 Gaussian 16, Revision A.03,
 Gaussian 16:  ES64L-G16RevA.03 25-Dec-2016

 -----------------------------------
 #p cam-b3lyp/Def2SVP td=(nstates=5)
 -----------------------------------

 -------------------------------------------------------
 step_701_chromophore_18 TDDFT with cam-b3lyp functional
 -------------------------------------------------------
 Symbolic Z-matrix:
 Charge =  0 Multiplicity = 1

                         Standard orientation:
 ---------------------------------------------------------------------
 Center     Atomic      Atomic             Coordinates (Angstroms)
 Number     Number       Type             X           Y           Z
 ---------------------------------------------------------------------
      1         12           0        5.196991    1.086711    0.124930
      2          6           0        4.215762   -2.255813    0.197830
      3          6           0        1.927588    1.978670    0.397312
      4          6           0        6.082990    4.424998   -0.030930
      5          6           0        8.473928    0.183362   -0.571538
      6          7           0        3.252586   -0.042634    0.069679
      7          6           0        3.141773   -1.426294    0.290361
      8          6           0        1.747630   -1.849767    0.657611
      9          6           0        1.007886   -0.408441    0.767904
     10          6           0        2.143763    0.592331    0.371075
     11          6           0       -0.235363   -0.241396   -0.045722
     12          6           0        1.575998   -2.567961    1.976552
     13          6           0        0.723662   -3.915700    1.900991
     14          6           0       -0.054796   -4.269521    0.586627
     15          8           0        0.230801   -5.065602   -0.282295
     16          8           0       -1.164868   -3.586633    0.488553
     17          7           0        4.186552    2.956538    0.158125
     18          6           0        2.802552    3.117504    0.254287
     19          6           0        2.462096    4.499836    0.023946
     20          6           0        3.702213    5.248221   -0.055197
     21          6           0        4.712695    4.226731    0.062274
     22          6           0        0.967617    4.946878   -0.101660
     23          6           0        3.941249    6.753267   -0.154758
     24          8           0        5.064122    7.236107   -0.270619
     25          6           0        2.671713    7.605143   -0.252328
     26          7           0        6.943080    2.122975   -0.346713
     27          6           0        7.100499    3.500180   -0.224724
     28          6           0        8.586882    3.894154   -0.003344
     29          6           0        9.319492    2.554045   -0.131144
     30          6           0        8.181291    1.541244   -0.379016
     31          6           0        9.111115    4.849292   -1.109117
     32          6           0       10.209205    2.193089    1.194348
     33          6           0       11.708345    2.516888    0.926222
     34          7           0        6.285488   -0.682104   -0.068069
     35          6           0        7.622510   -0.973874   -0.413919
     36          6           0        7.843597   -2.361576   -0.341398
     37          6           0        6.566284   -2.865046   -0.105774
     38          6           0        5.644462   -1.823164    0.016973
     39          6           0        9.200809   -3.044533   -0.506133
     40          6           0        5.808635   -4.136507   -0.044415
     41          8           0        6.183859   -5.245291   -0.116046
     42          6           0        4.222789   -3.800104    0.212360
     43          6           0        3.511577   -4.488541   -0.894440
     44          8           0        3.000312   -3.976019   -1.877097
     45          8           0        3.414124   -5.845100   -0.624483
     46          6           0        2.777774   -6.791988   -1.581189
     47          6           0       -2.203896   -4.016277   -0.508551
     48          6           0       -3.296325   -3.008906   -0.532030
     49          6           0       -4.354296   -3.082029   -1.322495
     50          6           0       -4.707345   -4.298272   -2.300112
     51          6           0       -5.506990   -2.216481   -1.033636
     52          6           0       -6.345392   -2.792199    0.163155
     53          6           0       -6.438245   -1.858940    1.310620
     54          6           0       -7.873216   -1.618383    1.793506
     55          6           0       -7.893286   -1.207608    3.250397
     56          6           0       -8.699984   -0.583097    0.939293
     57          6           0      -10.173162   -0.913714    0.908607
     58          6           0      -11.000557    0.249547    1.533024
     59          6           0      -11.800779    1.097707    0.462932
     60          6           0      -11.705688    2.593856    0.763170
     61          6           0      -13.332717    0.635334    0.396685
     62          6           0      -13.968345    0.874823   -0.973126
     63          6           0      -15.187834    1.885522   -0.972489
     64          6           0      -14.877987    3.325706   -1.264727
     65          6           0      -15.436979    4.259475   -0.195518
     66          6           0      -15.547364    3.702321   -2.657151
     67          1           0        0.881568    2.287746    0.451092
     68          1           0        6.516106    5.416297    0.119304
     69          1           0        9.513264   -0.110902   -0.730707
     70          1           0        1.287629   -2.401589   -0.162080
     71          1           0        0.793220   -0.210812    1.818024
     72          1           0       -0.258349   -0.846980   -0.951900
     73          1           0       -0.475654    0.795303   -0.282688
     74          1           0       -0.997181   -0.603754    0.643792
     75          1           0        1.107594   -1.931441    2.726663
     76          1           0        2.555674   -2.793466    2.396467
     77          1           0       -0.001054   -3.840993    2.712690
     78          1           0        1.391498   -4.750537    2.109775
     79          1           0        0.460670    4.466622    0.734518
     80          1           0        0.635789    4.496111   -1.036562
     81          1           0        0.805380    6.015334    0.042671
     82          1           0        2.970770    8.646925   -0.371011
     83          1           0        2.091924    7.614707    0.670504
     84          1           0        2.128386    7.424694   -1.179336
     85          1           0        8.624252    4.304590    1.006870
     86          1           0        9.977098    2.552292   -1.000426
     87          1           0        8.284375    5.398467   -1.559795
     88          1           0        9.767170    4.399364   -1.853664
     89          1           0        9.531189    5.695008   -0.564253
     90          1           0       10.149638    1.164111    1.551534
     91          1           0        9.986659    2.837081    2.045295
     92          1           0       11.934897    3.138704    0.060309
     93          1           0       12.217825    1.568879    0.753613
     94          1           0       12.184946    3.129645    1.691948
     95          1           0        9.124722   -3.990735    0.030868
     96          1           0       10.037708   -2.522478   -0.043247
     97          1           0        9.439447   -3.206419   -1.557124
     98          1           0        3.939171   -4.131427    1.211564
     99          1           0        3.640023   -7.098374   -2.173588
    100          1           0        2.152588   -6.318497   -2.336618
    101          1           0        2.321018   -7.630941   -1.055789
    102          1           0       -2.457966   -5.064046   -0.349194
    103          1           0       -1.767518   -4.019618   -1.507701
    104          1           0       -3.111630   -2.175510    0.144840
    105          1           0       -3.827982   -4.765887   -2.743943
    106          1           0       -5.208245   -3.850729   -3.158864
    107          1           0       -5.304288   -5.068861   -1.811520
    108          1           0       -5.960436   -2.097923   -2.017935
    109          1           0       -5.008977   -1.254370   -0.915001
    110          1           0       -5.764724   -3.613800    0.582508
    111          1           0       -7.297448   -3.028589   -0.312396
    112          1           0       -5.988786   -0.934791    0.948479
    113          1           0       -5.802002   -2.180819    2.135019
    114          1           0       -8.393734   -2.574892    1.759494
    115          1           0       -6.893688   -1.158510    3.682651
    116          1           0       -8.436693   -2.047050    3.684270
    117          1           0       -8.514454   -0.338434    3.466388
    118          1           0       -8.254702   -0.755398   -0.039971
    119          1           0       -8.413713    0.405707    1.298018
    120          1           0      -10.352320   -1.870182    1.401068
    121          1           0      -10.526670   -1.074120   -0.109303
    122          1           0      -10.333640    0.889157    2.111752
    123          1           0      -11.629680   -0.152480    2.327077
    124          1           0      -11.489724    0.890868   -0.561358
    125          1           0      -11.191225    3.142624   -0.025949
    126          1           0      -11.092018    2.740060    1.652598
    127          1           0      -12.700258    3.032510    0.845524
    128          1           0      -13.855309    1.188941    1.177094
    129          1           0      -13.417481   -0.422446    0.643089
    130          1           0      -14.466940   -0.050242   -1.262561
    131          1           0      -13.214997    1.072534   -1.736122
    132          1           0      -15.815049    1.798223   -0.085341
    133          1           0      -15.841987    1.491259   -1.750394
    134          1           0      -13.830440    3.627377   -1.236294
    135          1           0      -14.755442    4.307662    0.654328
    136          1           0      -16.435541    4.086870    0.205934
    137          1           0      -15.460839    5.206232   -0.736045
    138          1           0      -15.217685    4.665569   -3.046716
    139          1           0      -16.618259    3.820675   -2.495853
    140          1           0      -15.387107    2.902274   -3.379691
 ---------------------------------------------------------------------

 SCF Done:  E(RCAM-B3LYP) =  -3007.14934365     A.U. after   18 cycles

 Excitation energies and oscillator strengths:

 Excited State   1:      Singlet-A      1.6646 eV  744.82 nm  f=0.3702  <S**2>=0.000
     245 -> 248       -0.14597
     246 -> 247        0.69177
 This state for optimization and/or second-order correction.
 Total Energy, E(TD-HF/TD-DFT) =  -3007.08817018
 Copying the excited state density for this state as the 1-particle RhoCI density.

 Excited State   2:      Singlet-A      2.1584 eV  574.43 nm  f=0.1794  <S**2>=0.000
     245 -> 247        0.65979
     246 -> 248        0.22316

 Excited State   3:      Singlet-A      3.2535 eV  381.08 nm  f=0.0020  <S**2>=0.000
     241 -> 247       -0.26010
     242 -> 247       -0.41338
     244 -> 247        0.47329
     246 -> 248        0.12007

 Excited State   4:      Singlet-A      3.4191 eV  362.63 nm  f=0.0062  <S**2>=0.000
     240 -> 247        0.11413
     241 -> 247        0.20436
     242 -> 247        0.34287
     243 -> 247        0.18795
     244 -> 247        0.47055
     246 -> 248       -0.22598

 Excited State   5:      Singlet-A      3.5018 eV  354.06 nm  f=0.0092  <S**2>=0.000
     242 -> 247       -0.10573
     243 -> 247        0.59999
     243 -> 249        0.14510
     243 -> 251        0.21140
     244 -> 247       -0.18044

 The electronic state is 1-A.
 Alpha  occ. eigenvalues --  -46.88551 -19.24966 -19.21869 -19.20036 -19.18782
 Alpha  occ. eigenvalues --  -19.18360 -19.17716 -14.41694 -14.41690 -14.39435
 Alpha  occ. eigenvalues --  -14.38182 -10.38894 -10.37656 -10.36305 -10.34150
 Alpha  occ. eigenvalues --  -10.32323 -10.30967 -10.30611 -10.30526 -10.30170
 Alpha  occ. eigenvalues --  -10.30005 -10.29994 -10.29607 -10.29578 -10.28362
 Alpha  occ. eigenvalues --  -10.28052 -10.27900 -10.27707 -10.27705 -10.27649
 Alpha  occ. eigenvalues --  -10.27619 -10.27586 -10.27572 -10.27531 -10.27518
 Alpha  occ. eigenvalues --  -10.27445 -10.26869 -10.26817 -10.26759 -10.26657
 Alpha  occ. eigenvalues --  -10.26639 -10.26620 -10.26616 -10.25919 -10.25729
 Alpha  occ. eigenvalues --  -10.25657 -10.25602 -10.25578 -10.25566 -10.25485
 Alpha  occ. eigenvalues --  -10.25421 -10.25294 -10.25237 -10.25055 -10.24998
 Alpha  occ. eigenvalues --  -10.24982 -10.24974 -10.24754 -10.24660 -10.24654
 Alpha  occ. eigenvalues --  -10.24593 -10.24544 -10.24429 -10.24160 -10.24066
 Alpha  occ. eigenvalues --  -10.23995  -3.16996  -1.91896  -1.91447  -1.91308
 Alpha  occ. eigenvalues --   -1.17919  -1.13126  -1.11602  -1.10561  -1.07048
 Alpha  occ. eigenvalues --   -1.04820  -1.03770  -1.02957  -1.02668  -1.01681
 Alpha  occ. eigenvalues --   -0.91731  -0.90800  -0.90012  -0.89366  -0.89151
 Alpha  occ. eigenvalues --   -0.88054  -0.87990  -0.87592  -0.86723  -0.86472
 Alpha  occ. eigenvalues --   -0.85634  -0.85597  -0.84504  -0.83410  -0.82703
 Alpha  occ. eigenvalues --   -0.82460  -0.81845  -0.81330  -0.80562  -0.80094
 Alpha  occ. eigenvalues --   -0.79471  -0.78252  -0.77713  -0.76453  -0.76386
 Alpha  occ. eigenvalues --   -0.75288  -0.75267  -0.74882  -0.74480  -0.74281
 Alpha  occ. eigenvalues --   -0.73395  -0.72753  -0.70641  -0.70308  -0.68554
 Alpha  occ. eigenvalues --   -0.68350  -0.68003  -0.67092  -0.66618  -0.65997
 Alpha  occ. eigenvalues --   -0.65519  -0.65247  -0.64252  -0.63848  -0.63574
 Alpha  occ. eigenvalues --   -0.63507  -0.63485  -0.63042  -0.60428  -0.60170
 Alpha  occ. eigenvalues --   -0.59913  -0.58946  -0.58618  -0.57625  -0.57193
 Alpha  occ. eigenvalues --   -0.56752  -0.56388  -0.55669  -0.55404  -0.54933
 Alpha  occ. eigenvalues --   -0.54741  -0.54500  -0.54127  -0.53596  -0.53446
 Alpha  occ. eigenvalues --   -0.53219  -0.52994  -0.52919  -0.52672  -0.52522
 Alpha  occ. eigenvalues --   -0.52072  -0.51950  -0.51885  -0.51679  -0.51573
 Alpha  occ. eigenvalues --   -0.51520  -0.51094  -0.51082  -0.50750  -0.50588
 Alpha  occ. eigenvalues --   -0.50321  -0.50131  -0.49940  -0.49852  -0.49522
 Alpha  occ. eigenvalues --   -0.49219  -0.49173  -0.49070  -0.48882  -0.48768
 Alpha  occ. eigenvalues --   -0.48409  -0.48220  -0.48062  -0.47944  -0.47792
 Alpha  occ. eigenvalues --   -0.47422  -0.47271  -0.47193  -0.46938  -0.46792
 Alpha  occ. eigenvalues --   -0.46325  -0.45834  -0.45678  -0.45416  -0.45255
 Alpha  occ. eigenvalues --   -0.45119  -0.44975  -0.44866  -0.44757  -0.44498
 Alpha  occ. eigenvalues --   -0.44374  -0.44268  -0.44226  -0.44099  -0.43938
 Alpha  occ. eigenvalues --   -0.43738  -0.43567  -0.43556  -0.43245  -0.43090
 Alpha  occ. eigenvalues --   -0.42984  -0.42704  -0.42569  -0.42385  -0.42162
 Alpha  occ. eigenvalues --   -0.41790  -0.41699  -0.41423  -0.41083  -0.40836
 Alpha  occ. eigenvalues --   -0.40648  -0.40379  -0.40157  -0.40079  -0.39838
 Alpha  occ. eigenvalues --   -0.39575  -0.39511  -0.39359  -0.39175  -0.38458
 Alpha  occ. eigenvalues --   -0.38178  -0.38086  -0.37592  -0.37543  -0.37349
 Alpha  occ. eigenvalues --   -0.37046  -0.36827  -0.36468  -0.36162  -0.35864
 Alpha  occ. eigenvalues --   -0.35203  -0.34932  -0.34154  -0.34112  -0.33743
 Alpha  occ. eigenvalues --   -0.33319  -0.32650  -0.32310  -0.31843  -0.31159
 Alpha  occ. eigenvalues --   -0.30082  -0.30027  -0.29279  -0.29197  -0.23780
 Alpha  occ. eigenvalues --   -0.20972
 Alpha virt. eigenvalues --   -0.08909  -0.00966   0.00861   0.02951   0.03247
 Alpha virt. eigenvalues --    0.04679   0.05583   0.06290   0.06807   0.07387
 Alpha virt. eigenvalues --    0.08016   0.08835   0.09102   0.09226   0.09350

 Mulliken charges:
               1
     1  Mg   0.802673
     2  C   -0.013864
     3  C   -0.084873
     4  C   -0.077400
     5  C   -0.059692
     6  N   -0.267756
     7  C   -0.033713
     8  C   -0.014426
     9  C   -0.086676
    10  C    0.068789
    11  C    0.080699
    12  C    0.073640
    13  C    0.073047
    14  C    0.106041
    15  O   -0.226881
    16  O   -0.317080
    17  N   -0.369381
    18  C    0.127816
    19  C   -0.157868
    20  C   -0.037998
    21  C    0.147632
    22  C    0.114471
    23  C    0.021370
    24  O   -0.190384
    25  C    0.026526
    26  N   -0.308844
    27  C    0.042975
    28  C   -0.063721
    29  C   -0.001665
    30  C    0.070901
    31  C    0.074366
    32  C    0.031877
    33  C   -0.032753
    34  N   -0.359971
    35  C    0.067303
    36  C   -0.166823
    37  C   -0.002722
    38  C    0.104003
    39  C    0.116601
    40  C    0.012156
    41  O   -0.103688
    42  C   -0.041436
    43  C    0.229683
    44  O   -0.221685
    45  O   -0.360995
    46  C    0.200150
    47  C    0.269850
    48  C   -0.115363
    49  C   -0.207656
    50  C    0.058994
    51  C    0.060126
    52  C    0.072567
    53  C    0.062602
    54  C   -0.185996
    55  C    0.068297
    56  C    0.058559
    57  C    0.049930
    58  C    0.046581
    59  C   -0.143113
    60  C    0.068692
    61  C    0.044358
    62  C    0.022122
    63  C    0.064296
    64  C   -0.133205
    65  C    0.024320
    66  C    0.020436
    67  H   -0.041884
    68  H   -0.003991
    69  H   -0.031427
    70  H    0.053349
    71  H    0.011000
    72  H    0.026989
    73  H    0.011855
    74  H    0.011066
    75  H    0.002894
    76  H    0.009647
    77  H    0.018206
    78  H    0.032447
    79  H    0.029569
    80  H    0.044733
    81  H    0.015190
    82  H    0.013083
    83  H    0.050510
    84  H    0.053020
    85  H    0.026413
    86  H    0.015615
    87  H    0.016353
    88  H    0.031290
    89  H    0.007421
    90  H    0.021066
    91  H    0.005271
    92  H    0.005953
    93  H    0.019569
    94  H    0.012319
    95  H    0.028689
    96  H    0.011659
    97  H    0.034576
    98  H    0.049621
    99  H    0.019871
   100  H    0.041936
   101  H    0.045295
   102  H    0.033047
   103  H    0.043499
   104  H    0.007162
   105  H    0.013007
   106  H    0.015934
   107  H    0.039533
   108  H   -0.014772
   109  H    0.003114
   110  H    0.013694
   111  H    0.015615
   112  H   -0.014066
   113  H   -0.008971
   114  H   -0.007950
   115  H    0.008701
   116  H   -0.002584
   117  H    0.003616
   118  H   -0.022380
   119  H    0.004745
   120  H   -0.006278
   121  H   -0.003289
   122  H   -0.011295
   123  H   -0.008953
   124  H   -0.003031
   125  H    0.005238
   126  H    0.003623
   127  H    0.005353
   128  H   -0.005731
   129  H   -0.007928
   130  H   -0.010215
   131  H    0.000614
   132  H   -0.010799
   133  H   -0.017168
   134  H    0.000898
   135  H    0.009079
   136  H    0.007490
   137  H   -0.002888
   138  H    0.007885
   139  H    0.006622
   140  H    0.013837
 Sum of Mulliken charges =  -0.00000

 Dipole moment (field-independent basis, Debye):
    X=             -5.0196    Y=              3.0727    Z=              3.0175  Tot=              6.6138
 Quadrupole moment (field-independent basis, Debye-Ang):
   XX=           -383.7964   YY=           -423.0335   ZZ=           -401.7876
   XY=             26.0713   XZ=             14.6004   YZ=             -1.1200

 Normal termination of Gaussian 16 at Thu May  5 05:34:53 2022.
