 Gaussian 16, Revision A.03,
 Gaussian 16:  ES64L-G16RevA.03 25-Dec-2016

 ---------------------------------
 #p PBE1PBE/Def2SVP td=(nstates=5)
 ---------------------------------

 -----------------------------------------------------
 step_701_chromophore_18 TDDFT with PBE1PBE functional
 -----------------------------------------------------
 Symbolic Z-matrix:
 Charge =  0 Multiplicity = 1

                         Standard orientation:
 ---------------------------------------------------------------------
 Center     Atomic      Atomic             Coordinates (Angstroms)
 Number     Number       Type             X           Y           Z
 ---------------------------------------------------------------------
      1         12           0        5.196991    1.086711    0.124930
      2          6           0        4.215762   -2.255813    0.197830
      3          6           0        1.927588    1.978670    0.397312
      4          6           0        6.082990    4.424998   -0.030930
      5          6           0        8.473928    0.183362   -0.571538
      6          7           0        3.252586   -0.042634    0.069679
      7          6           0        3.141773   -1.426294    0.290361
      8          6           0        1.747630   -1.849767    0.657611
      9          6           0        1.007886   -0.408441    0.767904
     10          6           0        2.143763    0.592331    0.371075
     11          6           0       -0.235363   -0.241396   -0.045722
     12          6           0        1.575998   -2.567961    1.976552
     13          6           0        0.723662   -3.915700    1.900991
     14          6           0       -0.054796   -4.269521    0.586627
     15          8           0        0.230801   -5.065602   -0.282295
     16          8           0       -1.164868   -3.586633    0.488553
     17          7           0        4.186552    2.956538    0.158125
     18          6           0        2.802552    3.117504    0.254287
     19          6           0        2.462096    4.499836    0.023946
     20          6           0        3.702213    5.248221   -0.055197
     21          6           0        4.712695    4.226731    0.062274
     22          6           0        0.967617    4.946878   -0.101660
     23          6           0        3.941249    6.753267   -0.154758
     24          8           0        5.064122    7.236107   -0.270619
     25          6           0        2.671713    7.605143   -0.252328
     26          7           0        6.943080    2.122975   -0.346713
     27          6           0        7.100499    3.500180   -0.224724
     28          6           0        8.586882    3.894154   -0.003344
     29          6           0        9.319492    2.554045   -0.131144
     30          6           0        8.181291    1.541244   -0.379016
     31          6           0        9.111115    4.849292   -1.109117
     32          6           0       10.209205    2.193089    1.194348
     33          6           0       11.708345    2.516888    0.926222
     34          7           0        6.285488   -0.682104   -0.068069
     35          6           0        7.622510   -0.973874   -0.413919
     36          6           0        7.843597   -2.361576   -0.341398
     37          6           0        6.566284   -2.865046   -0.105774
     38          6           0        5.644462   -1.823164    0.016973
     39          6           0        9.200809   -3.044533   -0.506133
     40          6           0        5.808635   -4.136507   -0.044415
     41          8           0        6.183859   -5.245291   -0.116046
     42          6           0        4.222789   -3.800104    0.212360
     43          6           0        3.511577   -4.488541   -0.894440
     44          8           0        3.000312   -3.976019   -1.877097
     45          8           0        3.414124   -5.845100   -0.624483
     46          6           0        2.777774   -6.791988   -1.581189
     47          6           0       -2.203896   -4.016277   -0.508551
     48          6           0       -3.296325   -3.008906   -0.532030
     49          6           0       -4.354296   -3.082029   -1.322495
     50          6           0       -4.707345   -4.298272   -2.300112
     51          6           0       -5.506990   -2.216481   -1.033636
     52          6           0       -6.345392   -2.792199    0.163155
     53          6           0       -6.438245   -1.858940    1.310620
     54          6           0       -7.873216   -1.618383    1.793506
     55          6           0       -7.893286   -1.207608    3.250397
     56          6           0       -8.699984   -0.583097    0.939293
     57          6           0      -10.173162   -0.913714    0.908607
     58          6           0      -11.000557    0.249547    1.533024
     59          6           0      -11.800779    1.097707    0.462932
     60          6           0      -11.705688    2.593856    0.763170
     61          6           0      -13.332717    0.635334    0.396685
     62          6           0      -13.968345    0.874823   -0.973126
     63          6           0      -15.187834    1.885522   -0.972489
     64          6           0      -14.877987    3.325706   -1.264727
     65          6           0      -15.436979    4.259475   -0.195518
     66          6           0      -15.547364    3.702321   -2.657151
     67          1           0        0.881568    2.287746    0.451092
     68          1           0        6.516106    5.416297    0.119304
     69          1           0        9.513264   -0.110902   -0.730707
     70          1           0        1.287629   -2.401589   -0.162080
     71          1           0        0.793220   -0.210812    1.818024
     72          1           0       -0.258349   -0.846980   -0.951900
     73          1           0       -0.475654    0.795303   -0.282688
     74          1           0       -0.997181   -0.603754    0.643792
     75          1           0        1.107594   -1.931441    2.726663
     76          1           0        2.555674   -2.793466    2.396467
     77          1           0       -0.001054   -3.840993    2.712690
     78          1           0        1.391498   -4.750537    2.109775
     79          1           0        0.460670    4.466622    0.734518
     80          1           0        0.635789    4.496111   -1.036562
     81          1           0        0.805380    6.015334    0.042671
     82          1           0        2.970770    8.646925   -0.371011
     83          1           0        2.091924    7.614707    0.670504
     84          1           0        2.128386    7.424694   -1.179336
     85          1           0        8.624252    4.304590    1.006870
     86          1           0        9.977098    2.552292   -1.000426
     87          1           0        8.284375    5.398467   -1.559795
     88          1           0        9.767170    4.399364   -1.853664
     89          1           0        9.531189    5.695008   -0.564253
     90          1           0       10.149638    1.164111    1.551534
     91          1           0        9.986659    2.837081    2.045295
     92          1           0       11.934897    3.138704    0.060309
     93          1           0       12.217825    1.568879    0.753613
     94          1           0       12.184946    3.129645    1.691948
     95          1           0        9.124722   -3.990735    0.030868
     96          1           0       10.037708   -2.522478   -0.043247
     97          1           0        9.439447   -3.206419   -1.557124
     98          1           0        3.939171   -4.131427    1.211564
     99          1           0        3.640023   -7.098374   -2.173588
    100          1           0        2.152588   -6.318497   -2.336618
    101          1           0        2.321018   -7.630941   -1.055789
    102          1           0       -2.457966   -5.064046   -0.349194
    103          1           0       -1.767518   -4.019618   -1.507701
    104          1           0       -3.111630   -2.175510    0.144840
    105          1           0       -3.827982   -4.765887   -2.743943
    106          1           0       -5.208245   -3.850729   -3.158864
    107          1           0       -5.304288   -5.068861   -1.811520
    108          1           0       -5.960436   -2.097923   -2.017935
    109          1           0       -5.008977   -1.254370   -0.915001
    110          1           0       -5.764724   -3.613800    0.582508
    111          1           0       -7.297448   -3.028589   -0.312396
    112          1           0       -5.988786   -0.934791    0.948479
    113          1           0       -5.802002   -2.180819    2.135019
    114          1           0       -8.393734   -2.574892    1.759494
    115          1           0       -6.893688   -1.158510    3.682651
    116          1           0       -8.436693   -2.047050    3.684270
    117          1           0       -8.514454   -0.338434    3.466388
    118          1           0       -8.254702   -0.755398   -0.039971
    119          1           0       -8.413713    0.405707    1.298018
    120          1           0      -10.352320   -1.870182    1.401068
    121          1           0      -10.526670   -1.074120   -0.109303
    122          1           0      -10.333640    0.889157    2.111752
    123          1           0      -11.629680   -0.152480    2.327077
    124          1           0      -11.489724    0.890868   -0.561358
    125          1           0      -11.191225    3.142624   -0.025949
    126          1           0      -11.092018    2.740060    1.652598
    127          1           0      -12.700258    3.032510    0.845524
    128          1           0      -13.855309    1.188941    1.177094
    129          1           0      -13.417481   -0.422446    0.643089
    130          1           0      -14.466940   -0.050242   -1.262561
    131          1           0      -13.214997    1.072534   -1.736122
    132          1           0      -15.815049    1.798223   -0.085341
    133          1           0      -15.841987    1.491259   -1.750394
    134          1           0      -13.830440    3.627377   -1.236294
    135          1           0      -14.755442    4.307662    0.654328
    136          1           0      -16.435541    4.086870    0.205934
    137          1           0      -15.460839    5.206232   -0.736045
    138          1           0      -15.217685    4.665569   -3.046716
    139          1           0      -16.618259    3.820675   -2.495853
    140          1           0      -15.387107    2.902274   -3.379691
 ---------------------------------------------------------------------

 SCF Done:  E(RPBE1PBE) =  -3005.33530757     A.U. after   16 cycles

 Excitation energies and oscillator strengths:

 Excited State   1:      Singlet-A      1.8009 eV  688.47 nm  f=0.3503  <S**2>=0.000
     245 -> 248       -0.13732
     246 -> 247        0.69927
     246 <- 247       -0.12199
 This state for optimization and/or second-order correction.
 Total Energy, E(TD-HF/TD-DFT) =  -3005.26912740
 Copying the excited state density for this state as the 1-particle RhoCI density.

 Excited State   2:      Singlet-A      2.1612 eV  573.68 nm  f=0.1645  <S**2>=0.000
     245 -> 247        0.66674
     246 -> 248        0.20012
     246 -> 249        0.10029

 Excited State   3:      Singlet-A      2.8269 eV  438.58 nm  f=0.0001  <S**2>=0.000
     244 -> 247        0.69308

 Excited State   4:      Singlet-A      2.9498 eV  420.32 nm  f=0.0041  <S**2>=0.000
     241 -> 247       -0.14306
     243 -> 247        0.68640

 Excited State   5:      Singlet-A      3.1054 eV  399.25 nm  f=0.0088  <S**2>=0.000
     241 -> 247        0.65739
     243 -> 247        0.14194
     246 -> 248       -0.17710

 The electronic state is 1-A.
 Alpha  occ. eigenvalues --  -46.91960 -19.25628 -19.22642 -19.19965 -19.19064
 Alpha  occ. eigenvalues --  -19.18854 -19.18014 -14.41219 -14.41181 -14.38991
 Alpha  occ. eigenvalues --  -14.38039 -10.35954 -10.34722 -10.33171 -10.31577
 Alpha  occ. eigenvalues --  -10.29725 -10.28406 -10.28196 -10.28068 -10.27934
 Alpha  occ. eigenvalues --  -10.27883 -10.27360 -10.26930 -10.26890 -10.26547
 Alpha  occ. eigenvalues --  -10.26071 -10.25547 -10.25511 -10.25472 -10.25437
 Alpha  occ. eigenvalues --  -10.25387 -10.25365 -10.25233 -10.25221 -10.25061
 Alpha  occ. eigenvalues --  -10.24839 -10.24807 -10.24492 -10.24456 -10.24397
 Alpha  occ. eigenvalues --  -10.24386 -10.24056 -10.23718 -10.23627 -10.23332
 Alpha  occ. eigenvalues --  -10.23254 -10.23211 -10.23165 -10.23081 -10.22942
 Alpha  occ. eigenvalues --  -10.22886 -10.22880 -10.22867 -10.22579 -10.22563
 Alpha  occ. eigenvalues --  -10.22515 -10.22496 -10.22302 -10.22199 -10.22141
 Alpha  occ. eigenvalues --  -10.22130 -10.22083 -10.22058 -10.21793 -10.21536
 Alpha  occ. eigenvalues --  -10.21446  -3.13989  -1.86830  -1.86358  -1.86223
 Alpha  occ. eigenvalues --   -1.12770  -1.07975  -1.06648  -1.05020  -1.01927
 Alpha  occ. eigenvalues --   -0.99738  -0.98498  -0.97739  -0.97206  -0.96239
 Alpha  occ. eigenvalues --   -0.85877  -0.85210  -0.84130  -0.83601  -0.83249
 Alpha  occ. eigenvalues --   -0.82355  -0.82204  -0.81698  -0.81041  -0.80543
 Alpha  occ. eigenvalues --   -0.80208  -0.79806  -0.78698  -0.77622  -0.77060
 Alpha  occ. eigenvalues --   -0.76729  -0.75888  -0.75482  -0.74788  -0.74278
 Alpha  occ. eigenvalues --   -0.73874  -0.72382  -0.72058  -0.70787  -0.70585
 Alpha  occ. eigenvalues --   -0.69659  -0.69370  -0.68980  -0.68850  -0.68424
 Alpha  occ. eigenvalues --   -0.67748  -0.67219  -0.64996  -0.64662  -0.62782
 Alpha  occ. eigenvalues --   -0.62679  -0.62338  -0.61329  -0.61128  -0.60190
 Alpha  occ. eigenvalues --   -0.59916  -0.59714  -0.58766  -0.58393  -0.58150
 Alpha  occ. eigenvalues --   -0.57690  -0.57641  -0.57187  -0.54993  -0.54541
 Alpha  occ. eigenvalues --   -0.54439  -0.53635  -0.53203  -0.52313  -0.51926
 Alpha  occ. eigenvalues --   -0.51238  -0.50772  -0.50210  -0.49912  -0.49442
 Alpha  occ. eigenvalues --   -0.49335  -0.49062  -0.48634  -0.48063  -0.48014
 Alpha  occ. eigenvalues --   -0.47724  -0.47414  -0.47144  -0.47122  -0.47068
 Alpha  occ. eigenvalues --   -0.46633  -0.46435  -0.46373  -0.46283  -0.46206
 Alpha  occ. eigenvalues --   -0.46100  -0.45694  -0.45488  -0.45250  -0.45046
 Alpha  occ. eigenvalues --   -0.44997  -0.44663  -0.44461  -0.44391  -0.44227
 Alpha  occ. eigenvalues --   -0.43858  -0.43710  -0.43641  -0.43412  -0.43322
 Alpha  occ. eigenvalues --   -0.43063  -0.42873  -0.42680  -0.42532  -0.42424
 Alpha  occ. eigenvalues --   -0.42115  -0.41913  -0.41779  -0.41520  -0.41459
 Alpha  occ. eigenvalues --   -0.41104  -0.40552  -0.40335  -0.40212  -0.40100
 Alpha  occ. eigenvalues --   -0.39834  -0.39719  -0.39606  -0.39324  -0.39320
 Alpha  occ. eigenvalues --   -0.39144  -0.39040  -0.38919  -0.38882  -0.38745
 Alpha  occ. eigenvalues --   -0.38498  -0.38401  -0.38317  -0.38034  -0.37748
 Alpha  occ. eigenvalues --   -0.37564  -0.37437  -0.37421  -0.37141  -0.37059
 Alpha  occ. eigenvalues --   -0.36613  -0.36473  -0.36318  -0.35913  -0.35571
 Alpha  occ. eigenvalues --   -0.35487  -0.35145  -0.35071  -0.34867  -0.34688
 Alpha  occ. eigenvalues --   -0.34436  -0.34277  -0.34173  -0.34114  -0.33266
 Alpha  occ. eigenvalues --   -0.33089  -0.33016  -0.32635  -0.32370  -0.32321
 Alpha  occ. eigenvalues --   -0.31853  -0.31756  -0.31383  -0.31265  -0.30907
 Alpha  occ. eigenvalues --   -0.30067  -0.29782  -0.29376  -0.29072  -0.28693
 Alpha  occ. eigenvalues --   -0.28203  -0.28141  -0.27217  -0.26795  -0.26436
 Alpha  occ. eigenvalues --   -0.25544  -0.25320  -0.25043  -0.24544  -0.20665
 Alpha  occ. eigenvalues --   -0.18562
 Alpha virt. eigenvalues --   -0.11298  -0.04677  -0.03199  -0.01307   0.00148
 Alpha virt. eigenvalues --    0.00239   0.01104   0.01837   0.02258   0.03633
 Alpha virt. eigenvalues --    0.04529   0.04916   0.05555   0.05927   0.05990

 Mulliken charges:
               1
     1  Mg   0.951725
     2  C   -0.021947
     3  C   -0.076756
     4  C   -0.065385
     5  C   -0.057315
     6  N   -0.374264
     7  C    0.038052
     8  C   -0.091746
     9  C   -0.160548
    10  C    0.105799
    11  C    0.020248
    12  C    0.024358
    13  C    0.006331
    14  C    0.165945
    15  O   -0.261302
    16  O   -0.347917
    17  N   -0.477091
    18  C    0.148620
    19  C   -0.187172
    20  C   -0.074994
    21  C    0.168952
    22  C    0.052426
    23  C    0.068620
    24  O   -0.230486
    25  C   -0.047321
    26  N   -0.413044
    27  C    0.079156
    28  C   -0.145129
    29  C   -0.073945
    30  C    0.105699
    31  C    0.020146
    32  C   -0.027198
    33  C   -0.101068
    34  N   -0.487010
    35  C    0.091939
    36  C   -0.179933
    37  C   -0.071871
    38  C    0.172438
    39  C    0.065584
    40  C    0.116793
    41  O   -0.146203
    42  C   -0.146374
    43  C    0.316614
    44  O   -0.257472
    45  O   -0.392366
    46  C    0.146498
    47  C    0.235802
    48  C   -0.129046
    49  C   -0.252630
    50  C   -0.002564
    51  C   -0.002597
    52  C    0.005552
    53  C    0.010592
    54  C   -0.272448
    55  C    0.011058
    56  C   -0.002272
    57  C   -0.009183
    58  C   -0.007203
    59  C   -0.228175
    60  C    0.004815
    61  C   -0.005973
    62  C   -0.043461
    63  C    0.011839
    64  C   -0.226702
    65  C   -0.036333
    66  C   -0.044698
    67  H   -0.009766
    68  H    0.026883
    69  H    0.001904
    70  H    0.094416
    71  H    0.047449
    72  H    0.053749
    73  H    0.039822
    74  H    0.040753
    75  H    0.034519
    76  H    0.041804
    77  H    0.050747
    78  H    0.063576
    79  H    0.055577
    80  H    0.071786
    81  H    0.041509
    82  H    0.040808
    83  H    0.075735
    84  H    0.078977
    85  H    0.061593
    86  H    0.051588
    87  H    0.044734
    88  H    0.055983
    89  H    0.035559
    90  H    0.052313
    91  H    0.038371
    92  H    0.033648
    93  H    0.046935
    94  H    0.040052
    95  H    0.057445
    96  H    0.038941
    97  H    0.063389
    98  H    0.086863
    99  H    0.042930
   100  H    0.062761
   101  H    0.066513
   102  H    0.058351
   103  H    0.068976
   104  H    0.037881
   105  H    0.039744
   106  H    0.043007
   107  H    0.065740
   108  H    0.018083
   109  H    0.034858
   110  H    0.047988
   111  H    0.046890
   112  H    0.019716
   113  H    0.022803
   114  H    0.030539
   115  H    0.035553
   116  H    0.025067
   117  H    0.032280
   118  H    0.014824
   119  H    0.036304
   120  H    0.025000
   121  H    0.028932
   122  H    0.019745
   123  H    0.022900
   124  H    0.034189
   125  H    0.032694
   126  H    0.031079
   127  H    0.038125
   128  H    0.026415
   129  H    0.024896
   130  H    0.023786
   131  H    0.031266
   132  H    0.020740
   133  H    0.015219
   134  H    0.038991
   135  H    0.037734
   136  H    0.034283
   137  H    0.025969
   138  H    0.035793
   139  H    0.035045
   140  H    0.042270
 Sum of Mulliken charges =  -0.00000

 Dipole moment (field-independent basis, Debye):
    X=             -4.5983    Y=              2.4110    Z=              3.0302  Tot=              6.0116
 Quadrupole moment (field-independent basis, Debye-Ang):
   XX=           -373.2033   YY=           -421.7894   ZZ=           -399.4410
   XY=             23.7569   XZ=             14.6531   YZ=             -0.8831

 Normal termination of Gaussian 16 at Thu May  5 05:56:31 2022.
