 Gaussian 16, Revision A.03,
 Gaussian 16:  ES64L-G16RevA.03 25-Dec-2016

 --------------------------------
 #p wB97XD/Def2SVP td=(nstates=5)
 --------------------------------

 ----------------------------------------------------
 step_701_chromophore_18 TDDFT with wB97XD functional
 ----------------------------------------------------
 Symbolic Z-matrix:
 Charge =  0 Multiplicity = 1

                         Standard orientation:
 ---------------------------------------------------------------------
 Center     Atomic      Atomic             Coordinates (Angstroms)
 Number     Number       Type             X           Y           Z
 ---------------------------------------------------------------------
      1         12           0        5.196991    1.086711    0.124930
      2          6           0        4.215762   -2.255813    0.197830
      3          6           0        1.927588    1.978670    0.397312
      4          6           0        6.082990    4.424998   -0.030930
      5          6           0        8.473928    0.183362   -0.571538
      6          7           0        3.252586   -0.042634    0.069679
      7          6           0        3.141773   -1.426294    0.290361
      8          6           0        1.747630   -1.849767    0.657611
      9          6           0        1.007886   -0.408441    0.767904
     10          6           0        2.143763    0.592331    0.371075
     11          6           0       -0.235363   -0.241396   -0.045722
     12          6           0        1.575998   -2.567961    1.976552
     13          6           0        0.723662   -3.915700    1.900991
     14          6           0       -0.054796   -4.269521    0.586627
     15          8           0        0.230801   -5.065602   -0.282295
     16          8           0       -1.164868   -3.586633    0.488553
     17          7           0        4.186552    2.956538    0.158125
     18          6           0        2.802552    3.117504    0.254287
     19          6           0        2.462096    4.499836    0.023946
     20          6           0        3.702213    5.248221   -0.055197
     21          6           0        4.712695    4.226731    0.062274
     22          6           0        0.967617    4.946878   -0.101660
     23          6           0        3.941249    6.753267   -0.154758
     24          8           0        5.064122    7.236107   -0.270619
     25          6           0        2.671713    7.605143   -0.252328
     26          7           0        6.943080    2.122975   -0.346713
     27          6           0        7.100499    3.500180   -0.224724
     28          6           0        8.586882    3.894154   -0.003344
     29          6           0        9.319492    2.554045   -0.131144
     30          6           0        8.181291    1.541244   -0.379016
     31          6           0        9.111115    4.849292   -1.109117
     32          6           0       10.209205    2.193089    1.194348
     33          6           0       11.708345    2.516888    0.926222
     34          7           0        6.285488   -0.682104   -0.068069
     35          6           0        7.622510   -0.973874   -0.413919
     36          6           0        7.843597   -2.361576   -0.341398
     37          6           0        6.566284   -2.865046   -0.105774
     38          6           0        5.644462   -1.823164    0.016973
     39          6           0        9.200809   -3.044533   -0.506133
     40          6           0        5.808635   -4.136507   -0.044415
     41          8           0        6.183859   -5.245291   -0.116046
     42          6           0        4.222789   -3.800104    0.212360
     43          6           0        3.511577   -4.488541   -0.894440
     44          8           0        3.000312   -3.976019   -1.877097
     45          8           0        3.414124   -5.845100   -0.624483
     46          6           0        2.777774   -6.791988   -1.581189
     47          6           0       -2.203896   -4.016277   -0.508551
     48          6           0       -3.296325   -3.008906   -0.532030
     49          6           0       -4.354296   -3.082029   -1.322495
     50          6           0       -4.707345   -4.298272   -2.300112
     51          6           0       -5.506990   -2.216481   -1.033636
     52          6           0       -6.345392   -2.792199    0.163155
     53          6           0       -6.438245   -1.858940    1.310620
     54          6           0       -7.873216   -1.618383    1.793506
     55          6           0       -7.893286   -1.207608    3.250397
     56          6           0       -8.699984   -0.583097    0.939293
     57          6           0      -10.173162   -0.913714    0.908607
     58          6           0      -11.000557    0.249547    1.533024
     59          6           0      -11.800779    1.097707    0.462932
     60          6           0      -11.705688    2.593856    0.763170
     61          6           0      -13.332717    0.635334    0.396685
     62          6           0      -13.968345    0.874823   -0.973126
     63          6           0      -15.187834    1.885522   -0.972489
     64          6           0      -14.877987    3.325706   -1.264727
     65          6           0      -15.436979    4.259475   -0.195518
     66          6           0      -15.547364    3.702321   -2.657151
     67          1           0        0.881568    2.287746    0.451092
     68          1           0        6.516106    5.416297    0.119304
     69          1           0        9.513264   -0.110902   -0.730707
     70          1           0        1.287629   -2.401589   -0.162080
     71          1           0        0.793220   -0.210812    1.818024
     72          1           0       -0.258349   -0.846980   -0.951900
     73          1           0       -0.475654    0.795303   -0.282688
     74          1           0       -0.997181   -0.603754    0.643792
     75          1           0        1.107594   -1.931441    2.726663
     76          1           0        2.555674   -2.793466    2.396467
     77          1           0       -0.001054   -3.840993    2.712690
     78          1           0        1.391498   -4.750537    2.109775
     79          1           0        0.460670    4.466622    0.734518
     80          1           0        0.635789    4.496111   -1.036562
     81          1           0        0.805380    6.015334    0.042671
     82          1           0        2.970770    8.646925   -0.371011
     83          1           0        2.091924    7.614707    0.670504
     84          1           0        2.128386    7.424694   -1.179336
     85          1           0        8.624252    4.304590    1.006870
     86          1           0        9.977098    2.552292   -1.000426
     87          1           0        8.284375    5.398467   -1.559795
     88          1           0        9.767170    4.399364   -1.853664
     89          1           0        9.531189    5.695008   -0.564253
     90          1           0       10.149638    1.164111    1.551534
     91          1           0        9.986659    2.837081    2.045295
     92          1           0       11.934897    3.138704    0.060309
     93          1           0       12.217825    1.568879    0.753613
     94          1           0       12.184946    3.129645    1.691948
     95          1           0        9.124722   -3.990735    0.030868
     96          1           0       10.037708   -2.522478   -0.043247
     97          1           0        9.439447   -3.206419   -1.557124
     98          1           0        3.939171   -4.131427    1.211564
     99          1           0        3.640023   -7.098374   -2.173588
    100          1           0        2.152588   -6.318497   -2.336618
    101          1           0        2.321018   -7.630941   -1.055789
    102          1           0       -2.457966   -5.064046   -0.349194
    103          1           0       -1.767518   -4.019618   -1.507701
    104          1           0       -3.111630   -2.175510    0.144840
    105          1           0       -3.827982   -4.765887   -2.743943
    106          1           0       -5.208245   -3.850729   -3.158864
    107          1           0       -5.304288   -5.068861   -1.811520
    108          1           0       -5.960436   -2.097923   -2.017935
    109          1           0       -5.008977   -1.254370   -0.915001
    110          1           0       -5.764724   -3.613800    0.582508
    111          1           0       -7.297448   -3.028589   -0.312396
    112          1           0       -5.988786   -0.934791    0.948479
    113          1           0       -5.802002   -2.180819    2.135019
    114          1           0       -8.393734   -2.574892    1.759494
    115          1           0       -6.893688   -1.158510    3.682651
    116          1           0       -8.436693   -2.047050    3.684270
    117          1           0       -8.514454   -0.338434    3.466388
    118          1           0       -8.254702   -0.755398   -0.039971
    119          1           0       -8.413713    0.405707    1.298018
    120          1           0      -10.352320   -1.870182    1.401068
    121          1           0      -10.526670   -1.074120   -0.109303
    122          1           0      -10.333640    0.889157    2.111752
    123          1           0      -11.629680   -0.152480    2.327077
    124          1           0      -11.489724    0.890868   -0.561358
    125          1           0      -11.191225    3.142624   -0.025949
    126          1           0      -11.092018    2.740060    1.652598
    127          1           0      -12.700258    3.032510    0.845524
    128          1           0      -13.855309    1.188941    1.177094
    129          1           0      -13.417481   -0.422446    0.643089
    130          1           0      -14.466940   -0.050242   -1.262561
    131          1           0      -13.214997    1.072534   -1.736122
    132          1           0      -15.815049    1.798223   -0.085341
    133          1           0      -15.841987    1.491259   -1.750394
    134          1           0      -13.830440    3.627377   -1.236294
    135          1           0      -14.755442    4.307662    0.654328
    136          1           0      -16.435541    4.086870    0.205934
    137          1           0      -15.460839    5.206232   -0.736045
    138          1           0      -15.217685    4.665569   -3.046716
    139          1           0      -16.618259    3.820675   -2.495853
    140          1           0      -15.387107    2.902274   -3.379691
 ---------------------------------------------------------------------

 SCF Done:  E(RwB97XD) =  -3007.84809851     A.U. after   19 cycles

 Excitation energies and oscillator strengths:

 Excited State   1:      Singlet-A      1.6229 eV  763.97 nm  f=0.3695  <S**2>=0.000
     245 -> 248       -0.15045
     246 -> 247        0.68951
     245 <- 248       -0.10050
 This state for optimization and/or second-order correction.
 Total Energy, E(TD-HF/TD-DFT) =  -3007.78845797
 Copying the excited state density for this state as the 1-particle RhoCI density.

 Excited State   2:      Singlet-A      2.1077 eV  588.24 nm  f=0.1777  <S**2>=0.000
     245 -> 247        0.65780
     246 -> 248        0.22436

 Excited State   3:      Singlet-A      3.2620 eV  380.08 nm  f=0.0017  <S**2>=0.000
     240 -> 247        0.10420
     241 -> 247        0.53472
     243 -> 247       -0.39752
     246 -> 248       -0.14228

 Excited State   4:      Singlet-A      3.4612 eV  358.21 nm  f=0.0115  <S**2>=0.000
     240 -> 247        0.11887
     241 -> 247        0.31054
     243 -> 247        0.54511
     246 -> 248       -0.24182

 Excited State   5:      Singlet-A      3.5910 eV  345.26 nm  f=0.0490  <S**2>=0.000
     241 -> 247       -0.12199
     244 -> 247        0.58458
     244 -> 249        0.16444
     244 -> 250        0.23622
     246 -> 248       -0.13488

 The electronic state is 1-A.
 Alpha  occ. eigenvalues --  -46.94891 -19.30155 -19.27063 -19.25135 -19.23668
 Alpha  occ. eigenvalues --  -19.23291 -19.22595 -14.46314 -14.46275 -14.44107
 Alpha  occ. eigenvalues --  -14.42715 -10.42674 -10.41451 -10.40356 -10.38073
 Alpha  occ. eigenvalues --  -10.36215 -10.35032 -10.34795 -10.34628 -10.34128
 Alpha  occ. eigenvalues --  -10.34110 -10.33972 -10.33898 -10.33288 -10.32286
 Alpha  occ. eigenvalues --  -10.31963 -10.31913 -10.31804 -10.31710 -10.31708
 Alpha  occ. eigenvalues --  -10.31674 -10.31642 -10.31584 -10.31566 -10.31538
 Alpha  occ. eigenvalues --  -10.31499 -10.30982 -10.30808 -10.30765 -10.30616
 Alpha  occ. eigenvalues --  -10.30570 -10.30559 -10.30513 -10.29919 -10.29657
 Alpha  occ. eigenvalues --  -10.29645 -10.29548 -10.29522 -10.29463 -10.29356
 Alpha  occ. eigenvalues --  -10.29310 -10.29245 -10.29225 -10.28953 -10.28899
 Alpha  occ. eigenvalues --  -10.28891 -10.28861 -10.28683 -10.28578 -10.28522
 Alpha  occ. eigenvalues --  -10.28502 -10.28465 -10.28260 -10.27988 -10.27943
 Alpha  occ. eigenvalues --  -10.27892  -3.20783  -1.94371  -1.93901  -1.93763
 Alpha  occ. eigenvalues --   -1.20081  -1.15232  -1.13761  -1.12847  -1.09205
 Alpha  occ. eigenvalues --   -1.06973  -1.05759  -1.04939  -1.04733  -1.03742
 Alpha  occ. eigenvalues --   -0.93542  -0.92689  -0.91800  -0.91200  -0.90927
 Alpha  occ. eigenvalues --   -0.89981  -0.89909  -0.89375  -0.88676  -0.88457
 Alpha  occ. eigenvalues --   -0.87517  -0.87450  -0.86371  -0.85285  -0.84557
 Alpha  occ. eigenvalues --   -0.84361  -0.83807  -0.83183  -0.82484  -0.81945
 Alpha  occ. eigenvalues --   -0.81403  -0.80259  -0.79592  -0.78306  -0.78267
 Alpha  occ. eigenvalues --   -0.77199  -0.77085  -0.76695  -0.76398  -0.76112
 Alpha  occ. eigenvalues --   -0.75333  -0.74713  -0.72596  -0.72255  -0.70451
 Alpha  occ. eigenvalues --   -0.70254  -0.69967  -0.68967  -0.68636  -0.67851
 Alpha  occ. eigenvalues --   -0.67480  -0.67171  -0.66214  -0.65821  -0.65475
 Alpha  occ. eigenvalues --   -0.65387  -0.65329  -0.64859  -0.62412  -0.62191
 Alpha  occ. eigenvalues --   -0.61866  -0.60907  -0.60579  -0.59616  -0.59171
 Alpha  occ. eigenvalues --   -0.58647  -0.58260  -0.57595  -0.57406  -0.56844
 Alpha  occ. eigenvalues --   -0.56677  -0.56464  -0.56023  -0.55479  -0.55369
 Alpha  occ. eigenvalues --   -0.55168  -0.54895  -0.54858  -0.54569  -0.54449
 Alpha  occ. eigenvalues --   -0.53945  -0.53821  -0.53772  -0.53601  -0.53504
 Alpha  occ. eigenvalues --   -0.53416  -0.53064  -0.52985  -0.52658  -0.52459
 Alpha  occ. eigenvalues --   -0.52214  -0.52068  -0.51839  -0.51733  -0.51436
 Alpha  occ. eigenvalues --   -0.51139  -0.51070  -0.50979  -0.50876  -0.50675
 Alpha  occ. eigenvalues --   -0.50309  -0.50136  -0.49939  -0.49810  -0.49726
 Alpha  occ. eigenvalues --   -0.49323  -0.49166  -0.49145  -0.48804  -0.48722
 Alpha  occ. eigenvalues --   -0.48201  -0.47719  -0.47561  -0.47332  -0.47189
 Alpha  occ. eigenvalues --   -0.47009  -0.46908  -0.46784  -0.46599  -0.46362
 Alpha  occ. eigenvalues --   -0.46248  -0.46208  -0.46089  -0.46030  -0.45834
 Alpha  occ. eigenvalues --   -0.45594  -0.45523  -0.45424  -0.45249  -0.45083
 Alpha  occ. eigenvalues --   -0.44917  -0.44575  -0.44487  -0.44367  -0.44041
 Alpha  occ. eigenvalues --   -0.43661  -0.43609  -0.43337  -0.42971  -0.42695
 Alpha  occ. eigenvalues --   -0.42521  -0.42253  -0.42059  -0.41960  -0.41755
 Alpha  occ. eigenvalues --   -0.41435  -0.41392  -0.41201  -0.41066  -0.40306
 Alpha  occ. eigenvalues --   -0.40034  -0.39994  -0.39494  -0.39387  -0.39252
 Alpha  occ. eigenvalues --   -0.38901  -0.38797  -0.38342  -0.38320  -0.37813
 Alpha  occ. eigenvalues --   -0.37036  -0.36787  -0.36127  -0.35958  -0.35671
 Alpha  occ. eigenvalues --   -0.35214  -0.34826  -0.34226  -0.33893  -0.33388
 Alpha  occ. eigenvalues --   -0.32292  -0.32090  -0.31293  -0.31201  -0.25709
 Alpha  occ. eigenvalues --   -0.22799
 Alpha virt. eigenvalues --   -0.07260   0.00979   0.02885   0.05377   0.06021
 Alpha virt. eigenvalues --    0.06954   0.07866   0.08658   0.09131   0.10189
 Alpha virt. eigenvalues --    0.10713   0.11871   0.12300   0.12606   0.12740

 Mulliken charges:
               1
     1  Mg   0.942474
     2  C   -0.025137
     3  C   -0.093606
     4  C   -0.087384
     5  C   -0.067479
     6  N   -0.339814
     7  C    0.009161
     8  C   -0.064972
     9  C   -0.130571
    10  C    0.096192
    11  C    0.031219
    12  C    0.034138
    13  C    0.019305
    14  C    0.153141
    15  O   -0.255976
    16  O   -0.345257
    17  N   -0.449530
    18  C    0.145369
    19  C   -0.177148
    20  C   -0.072774
    21  C    0.168299
    22  C    0.068557
    23  C    0.066666
    24  O   -0.221908
    25  C   -0.037694
    26  N   -0.382161
    27  C    0.071230
    28  C   -0.120158
    29  C   -0.046064
    30  C    0.091182
    31  C    0.028751
    32  C   -0.014064
    33  C   -0.085067
    34  N   -0.449129
    35  C    0.077106
    36  C   -0.178345
    37  C   -0.061592
    38  C    0.146439
    39  C    0.075833
    40  C    0.094674
    41  O   -0.141208
    42  C   -0.107986
    43  C    0.291190
    44  O   -0.250040
    45  O   -0.390324
    46  C    0.159812
    47  C    0.244998
    48  C   -0.135305
    49  C   -0.234773
    50  C    0.010972
    51  C    0.015352
    52  C    0.020461
    53  C    0.027179
    54  C   -0.238439
    55  C    0.020055
    56  C    0.016140
    57  C    0.004731
    58  C    0.010782
    59  C   -0.197221
    60  C    0.024051
    61  C    0.007291
    62  C   -0.027291
    63  C    0.024378
    64  C   -0.199492
    65  C   -0.023697
    66  C   -0.028174
    67  H   -0.021103
    68  H    0.022585
    69  H   -0.004531
    70  H    0.077414
    71  H    0.036041
    72  H    0.049869
    73  H    0.033748
    74  H    0.032703
    75  H    0.027258
    76  H    0.033380
    77  H    0.045609
    78  H    0.058723
    79  H    0.051335
    80  H    0.068683
    81  H    0.037962
    82  H    0.040090
    83  H    0.071792
    84  H    0.074930
    85  H    0.052122
    86  H    0.038130
    87  H    0.037674
    88  H    0.052626
    89  H    0.030042
    90  H    0.045231
    91  H    0.029272
    92  H    0.025070
    93  H    0.041084
    94  H    0.034270
    95  H    0.051962
    96  H    0.032256
    97  H    0.057416
    98  H    0.077410
    99  H    0.038773
   100  H    0.059552
   101  H    0.063659
   102  H    0.054534
   103  H    0.063398
   104  H    0.032021
   105  H    0.034569
   106  H    0.037098
   107  H    0.060842
   108  H    0.009956
   109  H    0.025275
   110  H    0.037574
   111  H    0.039334
   112  H    0.007433
   113  H    0.015377
   114  H    0.015403
   115  H    0.030187
   116  H    0.019523
   117  H    0.025009
   118  H    0.002587
   119  H    0.026505
   120  H    0.017187
   121  H    0.020659
   122  H    0.005423
   123  H    0.015785
   124  H    0.018887
   125  H    0.027691
   126  H    0.025713
   127  H    0.020662
   128  H    0.015429
   129  H    0.017131
   130  H    0.016905
   131  H    0.022917
   132  H    0.012946
   133  H    0.006789
   134  H    0.026542
   135  H    0.031832
   136  H    0.028647
   137  H    0.018783
   138  H    0.030225
   139  H    0.027491
   140  H    0.035350
 Sum of Mulliken charges =  -0.00000

 Dipole moment (field-independent basis, Debye):
    X=             -5.2021    Y=              3.2945    Z=              3.0737  Tot=              6.8820
 Quadrupole moment (field-independent basis, Debye-Ang):
   XX=           -379.1088   YY=           -418.0686   ZZ=           -399.0516
   XY=             26.9292   XZ=             15.0331   YZ=             -1.0926

 Normal termination of Gaussian 16 at Thu May  5 06:30:49 2022.
