 Gaussian 16, Revision A.03,
 Gaussian 16:  ES64L-G16RevA.03 25-Dec-2016

 --------------------
 #p ZINDO=(nstates=5)
 --------------------

 -----------------------------
 step_701_chromophore_18 ZINDO
 -----------------------------
 Symbolic Z-matrix:
 Charge =  0 Multiplicity = 1

                         Standard orientation:
 ---------------------------------------------------------------------
 Center     Atomic      Atomic             Coordinates (Angstroms)
 Number     Number       Type             X           Y           Z
 ---------------------------------------------------------------------
      1         12           0        5.196991    1.086711    0.124930
      2          6           0        4.215762   -2.255813    0.197830
      3          6           0        1.927588    1.978670    0.397312
      4          6           0        6.082990    4.424998   -0.030930
      5          6           0        8.473928    0.183362   -0.571538
      6          7           0        3.252586   -0.042634    0.069679
      7          6           0        3.141773   -1.426294    0.290361
      8          6           0        1.747630   -1.849767    0.657611
      9          6           0        1.007886   -0.408441    0.767904
     10          6           0        2.143763    0.592331    0.371075
     11          6           0       -0.235363   -0.241396   -0.045722
     12          6           0        1.575998   -2.567961    1.976552
     13          6           0        0.723662   -3.915700    1.900991
     14          6           0       -0.054796   -4.269521    0.586627
     15          8           0        0.230801   -5.065602   -0.282295
     16          8           0       -1.164868   -3.586633    0.488553
     17          7           0        4.186552    2.956538    0.158125
     18          6           0        2.802552    3.117504    0.254287
     19          6           0        2.462096    4.499836    0.023946
     20          6           0        3.702213    5.248221   -0.055197
     21          6           0        4.712695    4.226731    0.062274
     22          6           0        0.967617    4.946878   -0.101660
     23          6           0        3.941249    6.753267   -0.154758
     24          8           0        5.064122    7.236107   -0.270619
     25          6           0        2.671713    7.605143   -0.252328
     26          7           0        6.943080    2.122975   -0.346713
     27          6           0        7.100499    3.500180   -0.224724
     28          6           0        8.586882    3.894154   -0.003344
     29          6           0        9.319492    2.554045   -0.131144
     30          6           0        8.181291    1.541244   -0.379016
     31          6           0        9.111115    4.849292   -1.109117
     32          6           0       10.209205    2.193089    1.194348
     33          6           0       11.708345    2.516888    0.926222
     34          7           0        6.285488   -0.682104   -0.068069
     35          6           0        7.622510   -0.973874   -0.413919
     36          6           0        7.843597   -2.361576   -0.341398
     37          6           0        6.566284   -2.865046   -0.105774
     38          6           0        5.644462   -1.823164    0.016973
     39          6           0        9.200809   -3.044533   -0.506133
     40          6           0        5.808635   -4.136507   -0.044415
     41          8           0        6.183859   -5.245291   -0.116046
     42          6           0        4.222789   -3.800104    0.212360
     43          6           0        3.511577   -4.488541   -0.894440
     44          8           0        3.000312   -3.976019   -1.877097
     45          8           0        3.414124   -5.845100   -0.624483
     46          6           0        2.777774   -6.791988   -1.581189
     47          6           0       -2.203896   -4.016277   -0.508551
     48          6           0       -3.296325   -3.008906   -0.532030
     49          6           0       -4.354296   -3.082029   -1.322495
     50          6           0       -4.707345   -4.298272   -2.300112
     51          6           0       -5.506990   -2.216481   -1.033636
     52          6           0       -6.345392   -2.792199    0.163155
     53          6           0       -6.438245   -1.858940    1.310620
     54          6           0       -7.873216   -1.618383    1.793506
     55          6           0       -7.893286   -1.207608    3.250397
     56          6           0       -8.699984   -0.583097    0.939293
     57          6           0      -10.173162   -0.913714    0.908607
     58          6           0      -11.000557    0.249547    1.533024
     59          6           0      -11.800779    1.097707    0.462932
     60          6           0      -11.705688    2.593856    0.763170
     61          6           0      -13.332717    0.635334    0.396685
     62          6           0      -13.968345    0.874823   -0.973126
     63          6           0      -15.187834    1.885522   -0.972489
     64          6           0      -14.877987    3.325706   -1.264727
     65          6           0      -15.436979    4.259475   -0.195518
     66          6           0      -15.547364    3.702321   -2.657151
     67          1           0        0.881568    2.287746    0.451092
     68          1           0        6.516106    5.416297    0.119304
     69          1           0        9.513264   -0.110902   -0.730707
     70          1           0        1.287629   -2.401589   -0.162080
     71          1           0        0.793220   -0.210812    1.818024
     72          1           0       -0.258349   -0.846980   -0.951900
     73          1           0       -0.475654    0.795303   -0.282688
     74          1           0       -0.997181   -0.603754    0.643792
     75          1           0        1.107594   -1.931441    2.726663
     76          1           0        2.555674   -2.793466    2.396467
     77          1           0       -0.001054   -3.840993    2.712690
     78          1           0        1.391498   -4.750537    2.109775
     79          1           0        0.460670    4.466622    0.734518
     80          1           0        0.635789    4.496111   -1.036562
     81          1           0        0.805380    6.015334    0.042671
     82          1           0        2.970770    8.646925   -0.371011
     83          1           0        2.091924    7.614707    0.670504
     84          1           0        2.128386    7.424694   -1.179336
     85          1           0        8.624252    4.304590    1.006870
     86          1           0        9.977098    2.552292   -1.000426
     87          1           0        8.284375    5.398467   -1.559795
     88          1           0        9.767170    4.399364   -1.853664
     89          1           0        9.531189    5.695008   -0.564253
     90          1           0       10.149638    1.164111    1.551534
     91          1           0        9.986659    2.837081    2.045295
     92          1           0       11.934897    3.138704    0.060309
     93          1           0       12.217825    1.568879    0.753613
     94          1           0       12.184946    3.129645    1.691948
     95          1           0        9.124722   -3.990735    0.030868
     96          1           0       10.037708   -2.522478   -0.043247
     97          1           0        9.439447   -3.206419   -1.557124
     98          1           0        3.939171   -4.131427    1.211564
     99          1           0        3.640023   -7.098374   -2.173588
    100          1           0        2.152588   -6.318497   -2.336618
    101          1           0        2.321018   -7.630941   -1.055789
    102          1           0       -2.457966   -5.064046   -0.349194
    103          1           0       -1.767518   -4.019618   -1.507701
    104          1           0       -3.111630   -2.175510    0.144840
    105          1           0       -3.827982   -4.765887   -2.743943
    106          1           0       -5.208245   -3.850729   -3.158864
    107          1           0       -5.304288   -5.068861   -1.811520
    108          1           0       -5.960436   -2.097923   -2.017935
    109          1           0       -5.008977   -1.254370   -0.915001
    110          1           0       -5.764724   -3.613800    0.582508
    111          1           0       -7.297448   -3.028589   -0.312396
    112          1           0       -5.988786   -0.934791    0.948479
    113          1           0       -5.802002   -2.180819    2.135019
    114          1           0       -8.393734   -2.574892    1.759494
    115          1           0       -6.893688   -1.158510    3.682651
    116          1           0       -8.436693   -2.047050    3.684270
    117          1           0       -8.514454   -0.338434    3.466388
    118          1           0       -8.254702   -0.755398   -0.039971
    119          1           0       -8.413713    0.405707    1.298018
    120          1           0      -10.352320   -1.870182    1.401068
    121          1           0      -10.526670   -1.074120   -0.109303
    122          1           0      -10.333640    0.889157    2.111752
    123          1           0      -11.629680   -0.152480    2.327077
    124          1           0      -11.489724    0.890868   -0.561358
    125          1           0      -11.191225    3.142624   -0.025949
    126          1           0      -11.092018    2.740060    1.652598
    127          1           0      -12.700258    3.032510    0.845524
    128          1           0      -13.855309    1.188941    1.177094
    129          1           0      -13.417481   -0.422446    0.643089
    130          1           0      -14.466940   -0.050242   -1.262561
    131          1           0      -13.214997    1.072534   -1.736122
    132          1           0      -15.815049    1.798223   -0.085341
    133          1           0      -15.841987    1.491259   -1.750394
    134          1           0      -13.830440    3.627377   -1.236294
    135          1           0      -14.755442    4.307662    0.654328
    136          1           0      -16.435541    4.086870    0.205934
    137          1           0      -15.460839    5.206232   -0.736045
    138          1           0      -15.217685    4.665569   -3.046716
    139          1           0      -16.618259    3.820675   -2.495853
    140          1           0      -15.387107    2.902274   -3.379691
 ---------------------------------------------------------------------

 SCF Done:  E(RZINDO/S) =  -474.232893850     A.U. after   19 cycles

 Excitation energies and oscillator strengths:

 Excited State   1:      Singlet-A      1.2392 eV 1000.51 nm  f=0.5661  <S**2>=0.000
     175 ->178        -0.14892
     176 ->177         0.66991
 This state for optimization and/or second-order correction.
 Total Energy, E(CIS/TDA) =  -474.187353867
 Copying the excited state density for this state as the 1-particle RhoCI density.

 Excited State   2:      Singlet-A      1.8943 eV  654.51 nm  f=0.1373  <S**2>=0.000
     175 ->177         0.59661
     176 ->178         0.31869
     176 ->179        -0.12479

 Excited State   3:      Singlet-A      2.9650 eV  418.16 nm  f=0.6153  <S**2>=0.000
     168 ->177         0.14916
     168 ->178        -0.12069
     168 ->179        -0.15290
     170 ->177         0.12324
     175 ->177        -0.25335
     176 ->178         0.52267

 Excited State   4:      Singlet-A      3.0209 eV  410.43 nm  f=0.1825  <S**2>=0.000
     164 ->179         0.11076
     167 ->177        -0.12675
     167 ->178         0.11377
     167 ->179         0.14406
     168 ->177         0.24914
     168 ->178        -0.24398
     168 ->179        -0.30460
     168 ->180         0.14736
     168 ->184         0.11244
     168 ->186        -0.13670
     170 ->177        -0.11154
     175 ->177         0.13396
     176 ->178        -0.26614

 Excited State   5:      Singlet-A      3.1286 eV  396.29 nm  f=0.0002  <S**2>=0.000
     170 ->177         0.10750
     171 ->177         0.29398
     171 ->179         0.21533
     171 ->180         0.41714
     171 ->186         0.18313
     171 ->188         0.20429
     171 ->204        -0.11728
     174 ->177         0.11899

 The electronic state is 1-A.
 Alpha  occ. eigenvalues --   -1.83003  -1.79933  -1.79479  -1.74837  -1.70136
 Alpha  occ. eigenvalues --   -1.68963  -1.66933  -1.62385  -1.58303  -1.57369
 Alpha  occ. eigenvalues --   -1.56786  -1.51918  -1.48404  -1.47029  -1.44975
 Alpha  occ. eigenvalues --   -1.44001  -1.41652  -1.39721  -1.39283  -1.38259
 Alpha  occ. eigenvalues --   -1.35353  -1.32920  -1.31907  -1.31209  -1.28521
 Alpha  occ. eigenvalues --   -1.27942  -1.24385  -1.22754  -1.21427  -1.17715
 Alpha  occ. eigenvalues --   -1.16271  -1.15180  -1.14808  -1.14510  -1.13813
 Alpha  occ. eigenvalues --   -1.11520  -1.10977  -1.10867  -1.04758  -1.02668
 Alpha  occ. eigenvalues --   -1.02479  -1.01317  -0.98611  -0.97155  -0.96320
 Alpha  occ. eigenvalues --   -0.95137  -0.95055  -0.94299  -0.92704  -0.91783
 Alpha  occ. eigenvalues --   -0.91256  -0.90935  -0.89923  -0.88861  -0.88547
 Alpha  occ. eigenvalues --   -0.86339  -0.85277  -0.83084  -0.81883  -0.79817
 Alpha  occ. eigenvalues --   -0.79369  -0.77413  -0.77101  -0.76179  -0.75578
 Alpha  occ. eigenvalues --   -0.74726  -0.74337  -0.74182  -0.73765  -0.73102
 Alpha  occ. eigenvalues --   -0.72224  -0.71592  -0.71184  -0.70978  -0.70655
 Alpha  occ. eigenvalues --   -0.70116  -0.69507  -0.68667  -0.68225  -0.67935
 Alpha  occ. eigenvalues --   -0.67413  -0.67020  -0.66321  -0.65911  -0.65498
 Alpha  occ. eigenvalues --   -0.65072  -0.64290  -0.64091  -0.63787  -0.63224
 Alpha  occ. eigenvalues --   -0.62792  -0.62698  -0.62299  -0.61800  -0.61522
 Alpha  occ. eigenvalues --   -0.61353  -0.61118  -0.60721  -0.60273  -0.59746
 Alpha  occ. eigenvalues --   -0.59342  -0.59131  -0.58839  -0.58525  -0.58037
 Alpha  occ. eigenvalues --   -0.57695  -0.57660  -0.57402  -0.56568  -0.56369
 Alpha  occ. eigenvalues --   -0.56159  -0.55811  -0.55561  -0.54507  -0.54415
 Alpha  occ. eigenvalues --   -0.54307  -0.53660  -0.53609  -0.53339  -0.53083
 Alpha  occ. eigenvalues --   -0.52467  -0.51934  -0.51719  -0.51558  -0.51026
 Alpha  occ. eigenvalues --   -0.50884  -0.50596  -0.50235  -0.50042  -0.49987
 Alpha  occ. eigenvalues --   -0.49715  -0.49384  -0.49330  -0.48732  -0.48520
 Alpha  occ. eigenvalues --   -0.48421  -0.48339  -0.48044  -0.47710  -0.47556
 Alpha  occ. eigenvalues --   -0.47227  -0.47038  -0.46817  -0.46795  -0.46659
 Alpha  occ. eigenvalues --   -0.46508  -0.46195  -0.45878  -0.45343  -0.45229
 Alpha  occ. eigenvalues --   -0.44851  -0.44642  -0.44227  -0.44139  -0.43788
 Alpha  occ. eigenvalues --   -0.43163  -0.42998  -0.42364  -0.41954  -0.41876
 Alpha  occ. eigenvalues --   -0.41751  -0.41446  -0.39689  -0.38220  -0.37831
 Alpha  occ. eigenvalues --   -0.37370  -0.36938  -0.36511  -0.34186  -0.33527
 Alpha  occ. eigenvalues --   -0.33235  -0.32256  -0.31821  -0.31584  -0.26368
 Alpha  occ. eigenvalues --   -0.21808
 Alpha virt. eigenvalues --   -0.08727  -0.01474  -0.00123   0.02094   0.02981
 Alpha virt. eigenvalues --    0.03103   0.03450   0.03995   0.04736   0.05176
 Alpha virt. eigenvalues --    0.06324   0.06908   0.07246   0.08095   0.08437

 Mulliken charges:
               1
     1  Mg   0.429645
     2  C   -0.038490
     3  C   -0.103577
     4  C   -0.061116
     5  C   -0.054639
     6  N   -0.278356
     7  C    0.100385
     8  C    0.007831
     9  C   -0.003861
    10  C    0.180977
    11  C   -0.046017
    12  C   -0.018120
    13  C   -0.003831
    14  C    0.474876
    15  O   -0.522969
    16  O   -0.277342
    17  N   -0.348545
    18  C    0.129702
    19  C    0.016977
    20  C   -0.042245
    21  C    0.160682
    22  C   -0.049067
    23  C    0.336370
    24  O   -0.503451
    25  C   -0.034825
    26  N   -0.267191
    27  C    0.146647
    28  C    0.007512
    29  C    0.000447
    30  C    0.097491
    31  C   -0.057920
    32  C   -0.037687
    33  C   -0.065993
    34  N   -0.316542
    35  C    0.050053
    36  C    0.018929
    37  C   -0.064304
    38  C    0.106047
    39  C   -0.039043
    40  C    0.324209
    41  O   -0.498625
    42  C    0.047641
    43  C    0.497470
    44  O   -0.523739
    45  O   -0.279207
    46  C    0.075042
    47  C    0.103003
    48  C   -0.078755
    49  C   -0.016482
    50  C   -0.052629
    51  C   -0.033752
    52  C   -0.022313
    53  C   -0.028768
    54  C   -0.017609
    55  C   -0.064208
    56  C   -0.032303
    57  C   -0.030338
    58  C   -0.037758
    59  C   -0.017420
    60  C   -0.058136
    61  C   -0.037032
    62  C   -0.038836
    63  C   -0.029211
    64  C   -0.007987
    65  C   -0.060305
    66  C   -0.059627
    67  H    0.016686
    68  H    0.041517
    69  H    0.019990
    70  H    0.057535
    71  H    0.029652
    72  H    0.033741
    73  H    0.021455
    74  H    0.012527
    75  H    0.022317
    76  H    0.022937
    77  H    0.031851
    78  H    0.037659
    79  H    0.026272
    80  H    0.043792
    81  H    0.034613
    82  H    0.023146
    83  H    0.042879
    84  H    0.045555
    85  H    0.043105
    86  H    0.036985
    87  H    0.022769
    88  H    0.038529
    89  H    0.016866
    90  H    0.031781
    91  H    0.020360
    92  H    0.014502
    93  H    0.018765
    94  H    0.017918
    95  H    0.026523
    96  H    0.021974
    97  H    0.035283
    98  H    0.060219
    99  H    0.031647
   100  H    0.055279
   101  H    0.046133
   102  H    0.055372
   103  H    0.052037
   104  H    0.035619
   105  H    0.021300
   106  H    0.022190
   107  H    0.035312
   108  H    0.017245
   109  H    0.020176
   110  H    0.029479
   111  H    0.029126
   112  H    0.014590
   113  H    0.017068
   114  H    0.017304
   115  H    0.023610
   116  H    0.009680
   117  H    0.021369
   118  H    0.008772
   119  H    0.029401
   120  H    0.020731
   121  H    0.017286
   122  H    0.016832
   123  H    0.016525
   124  H    0.026221
   125  H    0.012681
   126  H    0.020765
   127  H    0.024694
   128  H    0.019099
   129  H    0.015760
   130  H    0.008258
   131  H    0.028553
   132  H    0.021626
   133  H    0.009616
   134  H    0.027897
   135  H    0.013335
   136  H    0.021937
   137  H    0.011335
   138  H    0.015810
   139  H    0.018168
   140  H    0.018695
 Sum of Mulliken charges =  -0.00000

 Dipole moment (field-independent basis, Debye):
    X=             -7.5369    Y=              6.0353    Z=              5.7994  Tot=             11.2633
 N-N= 4.302834321012D+03 E-N= 0.000000000000D+00  KE=-9.280736647755D+03
 Leave Link  601 at Thu May  5 06:43:35 2022, MaxMem=  6710886400 cpu:               1.1 elap:               0.1
 (Enter /sw/apps/gaussian-16.0/g16/l9999.exe)
 1\1\GINC-BP1-COMPUTE132\SP\RZINDO CIS\STO-3G\C55H74Mg1N4O6\OF15641\05-
 May-2022\0\\#p ZINDO=(nstates=5)\\step_701_chromophore_18 ZINDO\\0,1\M
 g,0,35.02,49.517,25.766\C,0,35.02,47.936,28.871\C,0,33.957,52.362,27.2
 94\C,0,34.908,51.13,22.71\C,0,35.696,46.517,24.159\N,0,34.338,50.018,2
 7.85\C,0,34.625,49.233,28.98\C,0,34.476,49.989,30.27\C,0,34.168,51.484
 ,29.716\C,0,34.14,51.277,28.165\C,0,32.934,52.142,30.245\C,0,35.692,50
 .061,31.165\C,0,35.423,49.689,32.694\C,0,33.95,49.522,33.205\O,0,33.32

 Normal termination of Gaussian 16 at Thu May  5 06:43:35 2022.
