 Gaussian 16, Revision A.03,
 Gaussian 16:  ES64L-G16RevA.03 25-Dec-2016

 ------------------------------
 #p blyp/Def2SVP td=(nstates=5)
 ------------------------------

 --------------------------------------------------
 step_351_chromophore_15 TDDFT with blyp functional
 --------------------------------------------------
 Symbolic Z-matrix:
 Charge =  0 Multiplicity = 1

                         Standard orientation:
 ---------------------------------------------------------------------
 Center     Atomic      Atomic             Coordinates (Angstroms)
 Number     Number       Type             X           Y           Z
 ---------------------------------------------------------------------
      1         12           0       -4.577163    0.897315   -0.142100
      2          6           0       -4.340921   -2.517850    0.383300
      3          6           0       -1.189464    1.073081   -0.315007
      4          6           0       -4.904014    4.249988    0.010754
      5          6           0       -8.045055    0.605024    0.544231
      6          7           0       -3.010521   -0.572420    0.065285
      7          6           0       -3.133567   -1.901177    0.062043
      8          6           0       -1.688137   -2.627900   -0.179754
      9          6           0       -0.722106   -1.387236    0.066624
     10          6           0       -1.713775   -0.200136   -0.047496
     11          6           0        0.024284   -1.471602    1.430025
     12          6           0       -1.766735   -2.986509   -1.637905
     13          6           0       -0.552178   -3.670472   -2.319223
     14          6           0        0.602401   -4.039810   -1.419725
     15          8           0        0.488662   -4.708964   -0.407601
     16          8           0        1.793111   -3.577753   -1.986259
     17          7           0       -3.218931    2.430413   -0.231363
     18          6           0       -1.894996    2.311621   -0.416276
     19          6           0       -1.316526    3.618257   -0.494134
     20          6           0       -2.332611    4.582581   -0.355115
     21          6           0       -3.562566    3.782892   -0.121085
     22          6           0        0.166359    3.795094   -0.791053
     23          6           0       -2.295791    6.184350   -0.416588
     24          8           0       -3.290754    6.917958   -0.325259
     25          6           0       -0.961931    6.906131   -0.690205
     26          7           0       -6.185580    2.215250    0.226508
     27          6           0       -6.093846    3.595506    0.152338
     28          6           0       -7.371805    4.318699    0.464791
     29          6           0       -8.330667    3.107169    0.753319
     30          6           0       -7.502503    1.903585    0.439139
     31          6           0       -7.355088    5.438307    1.590002
     32          6           0       -9.631806    3.210447   -0.169881
     33          6           0      -11.023108    3.196141    0.564925
     34          7           0       -5.965311   -0.670258    0.224540
     35          6           0       -7.350901   -0.677792    0.438995
     36          6           0       -7.822962   -2.029246    0.664534
     37          6           0       -6.649126   -2.804213    0.660859
     38          6           0       -5.576555   -1.895948    0.326925
     39          6           0       -9.230886   -2.386380    0.876606
     40          6           0       -6.171018   -4.078980    0.862531
     41          8           0       -6.720924   -5.163415    1.100114
     42          6           0       -4.646302   -3.937611    0.892962
     43          6           0       -3.996196   -5.009213    0.044250
     44          8           0       -4.216967   -5.330538   -1.115603
     45          8           0       -3.110232   -5.650404    0.949674
     46          6           0       -2.186892   -6.661772    0.438544
     47          6           0        3.029036   -3.773198   -1.212670
     48          6           0        4.027352   -2.934960   -1.930671
     49          6           0        5.335187   -2.732445   -1.502551
     50          6           0        6.031438   -3.151776   -0.217268
     51          6           0        6.288793   -1.972345   -2.411171
     52          6           0        6.466818   -0.426440   -1.947543
     53          6           0        6.801197    0.466568   -3.160068
     54          6           0        7.731706    1.534318   -2.815571
     55          6           0        7.572010    2.741169   -3.687949
     56          6           0        9.215556    1.125946   -2.897180
     57          6           0       10.101982    1.927777   -1.872722
     58          6           0       10.601524    0.992060   -0.769088
     59          6           0       11.245742    1.790122    0.329736
     60          6           0       12.154978    3.003463   -0.109789
     61          6           0       11.908510    0.913845    1.405690
     62          6           0       11.256443    1.070813    2.684821
     63          6           0       10.297559    0.016723    3.159904
     64          6           0       10.072276    0.202828    4.683009
     65          6           0       10.663715   -0.952279    5.537486
     66          6           0        8.608166    0.504174    5.092310
     67          1           0       -0.110316    1.229559   -0.267933
     68          1           0       -5.028146    5.335262   -0.010156
     69          1           0       -9.108180    0.626112    0.790868
     70          1           0       -1.518882   -3.428309    0.541222
     71          1           0       -0.071520   -1.183518   -0.783552
     72          1           0       -0.427506   -2.278078    2.007134
     73          1           0       -0.025006   -0.565800    2.035148
     74          1           0        1.046941   -1.786730    1.225572
     75          1           0       -1.835379   -2.055335   -2.200532
     76          1           0       -2.685839   -3.529036   -1.859926
     77          1           0       -0.151322   -3.086448   -3.147214
     78          1           0       -0.778986   -4.630275   -2.783670
     79          1           0        0.322181    4.653533   -1.444094
     80          1           0        0.662156    3.040033   -1.401211
     81          1           0        0.864694    3.997279    0.020460
     82          1           0       -0.750024    6.685452   -1.736517
     83          1           0       -0.178393    6.427162   -0.103722
     84          1           0       -1.143943    7.935554   -0.382364
     85          1           0       -7.594797    4.804024   -0.485487
     86          1           0       -8.654548    3.104254    1.793291
     87          1           0       -6.388570    5.411162    2.094647
     88          1           0       -8.095056    5.423426    2.389273
     89          1           0       -7.433548    6.391190    1.067153
     90          1           0       -9.733694    2.268711   -0.708385
     91          1           0       -9.557897    4.107199   -0.784958
     92          1           0      -11.454862    4.178229    0.371820
     93          1           0      -10.832471    2.886169    1.592471
     94          1           0      -11.647164    2.417665    0.125943
     95          1           0       -9.817152   -1.535540    1.224957
     96          1           0       -9.297947   -3.163190    1.638656
     97          1           0       -9.688940   -2.637125   -0.079785
     98          1           0       -4.207166   -3.989834    1.889335
     99          1           0       -2.452918   -7.694545    0.662808
    100          1           0       -1.187856   -6.584269    0.867179
    101          1           0       -2.098846   -6.506452   -0.636413
    102          1           0        3.367090   -4.794850   -1.385034
    103          1           0        2.799664   -3.558921   -0.169185
    104          1           0        3.720319   -2.511673   -2.886987
    105          1           0        6.804941   -3.871005   -0.485202
    106          1           0        5.330805   -3.734446    0.380772
    107          1           0        6.442184   -2.343197    0.387494
    108          1           0        5.860506   -2.170962   -3.394296
    109          1           0        7.285650   -2.410123   -2.460407
    110          1           0        7.325121   -0.320634   -1.284510
    111          1           0        5.587169   -0.052774   -1.423823
    112          1           0        5.889425    0.853108   -3.615559
    113          1           0        7.377790   -0.217715   -3.782327
    114          1           0        7.646726    1.896664   -1.790738
    115          1           0        7.891701    2.536521   -4.709875
    116          1           0        8.238362    3.516341   -3.307518
    117          1           0        6.516078    3.009576   -3.700933
    118          1           0        9.564208    1.302249   -3.914048
    119          1           0        9.421984    0.081398   -2.664758
    120          1           0        9.639746    2.835392   -1.483921
    121          1           0       10.991385    2.237252   -2.419407
    122          1           0       11.364798    0.321804   -1.163963
    123          1           0        9.790693    0.377411   -0.378207
    124          1           0       10.430590    2.326316    0.813505
    125          1           0       12.990017    2.960230    0.590553
    126          1           0       11.716876    3.991263   -0.254685
    127          1           0       12.566088    2.762629   -1.090312
    128          1           0       12.975462    1.036221    1.593307
    129          1           0       11.786135   -0.116037    1.070270
    130          1           0       10.698767    2.006675    2.725921
    131          1           0       11.983607    1.126238    3.495655
    132          1           0       10.804801   -0.906986    2.880764
    133          1           0        9.439211    0.198287    2.512081
    134          1           0       10.682699    1.046726    5.003584
    135          1           0       10.308966   -0.757551    6.549437
    136          1           0       11.749489   -0.933946    5.449339
    137          1           0       10.285185   -1.936444    5.262197
    138          1           0        8.001516    0.876648    4.266537
    139          1           0        8.616324    1.325940    5.806971
    140          1           0        8.156026   -0.387167    5.527381
 ---------------------------------------------------------------------

 SCF Done:  E(RB-LYP) =  -3007.38502031     A.U. after   22 cycles

 Excitation energies and oscillator strengths:

 Excited State   1:      Singlet-A      1.7324 eV  715.68 nm  f=0.0143  <S**2>=0.000
     244 -> 247        0.64398
     245 -> 247        0.27420
 This state for optimization and/or second-order correction.
 Total Energy, E(TD-HF/TD-DFT) =  -3007.32135578
 Copying the excited state density for this state as the 1-particle RhoCI density.

 Excited State   2:      Singlet-A      1.8064 eV  686.37 nm  f=0.3116  <S**2>=0.000
     245 -> 248        0.17453
     246 -> 247        0.68426
     246 <- 247       -0.15242

 Excited State   3:      Singlet-A      1.9839 eV  624.96 nm  f=0.0922  <S**2>=0.000
     244 -> 247       -0.27673
     245 -> 247        0.59754
     246 -> 248       -0.20546

 Excited State   4:      Singlet-A      2.0900 eV  593.23 nm  f=0.0003  <S**2>=0.000
     243 -> 247        0.70629

 Excited State   5:      Singlet-A      2.2710 eV  545.94 nm  f=0.0000  <S**2>=0.000
     242 -> 247        0.70711

 The electronic state is 1-A.
 Alpha  occ. eigenvalues --  -46.26899 -18.82344 -18.81080 -18.77850 -18.77348
 Alpha  occ. eigenvalues --  -18.76636 -18.74571 -14.03677 -14.03101 -14.01124
 Alpha  occ. eigenvalues --  -14.00963 -10.04540 -10.03823 -10.01180  -9.98492
 Alpha  occ. eigenvalues --   -9.98135  -9.96802  -9.96518  -9.96331  -9.96191
 Alpha  occ. eigenvalues --   -9.96109  -9.96037  -9.95762  -9.95252  -9.94145
 Alpha  occ. eigenvalues --   -9.94134  -9.93940  -9.93921  -9.93872  -9.93773
 Alpha  occ. eigenvalues --   -9.93704  -9.93606  -9.93605  -9.93320  -9.93198
 Alpha  occ. eigenvalues --   -9.93173  -9.93168  -9.93084  -9.93000  -9.92886
 Alpha  occ. eigenvalues --   -9.92835  -9.92623  -9.92597  -9.92499  -9.92444
 Alpha  occ. eigenvalues --   -9.92417  -9.92374  -9.92336  -9.92288  -9.92114
 Alpha  occ. eigenvalues --   -9.92015  -9.91755  -9.91628  -9.91437  -9.91345
 Alpha  occ. eigenvalues --   -9.91267  -9.91196  -9.91183  -9.91067  -9.91063
 Alpha  occ. eigenvalues --   -9.91019  -9.90864  -9.90781  -9.90628  -9.90477
 Alpha  occ. eigenvalues --   -9.89929  -2.91617  -1.72046  -1.71473  -1.71350
 Alpha  occ. eigenvalues --   -0.97589  -0.95766  -0.91374  -0.90862  -0.89742
 Alpha  occ. eigenvalues --   -0.89311  -0.87341  -0.86381  -0.85805  -0.85048
 Alpha  occ. eigenvalues --   -0.75631  -0.74835  -0.74089  -0.73131  -0.72551
 Alpha  occ. eigenvalues --   -0.72071  -0.71613  -0.71558  -0.71110  -0.70522
 Alpha  occ. eigenvalues --   -0.69924  -0.69189  -0.68533  -0.67573  -0.66863
 Alpha  occ. eigenvalues --   -0.66558  -0.65783  -0.65459  -0.64995  -0.64385
 Alpha  occ. eigenvalues --   -0.64338  -0.63008  -0.62464  -0.61692  -0.60958
 Alpha  occ. eigenvalues --   -0.60502  -0.60165  -0.60084  -0.59852  -0.59573
 Alpha  occ. eigenvalues --   -0.58293  -0.57647  -0.56830  -0.55530  -0.54379
 Alpha  occ. eigenvalues --   -0.54193  -0.53867  -0.52716  -0.52323  -0.51706
 Alpha  occ. eigenvalues --   -0.51321  -0.50481  -0.50431  -0.50163  -0.49930
 Alpha  occ. eigenvalues --   -0.49901  -0.49697  -0.49392  -0.47956  -0.46334
 Alpha  occ. eigenvalues --   -0.46230  -0.46059  -0.45578  -0.45062  -0.44471
 Alpha  occ. eigenvalues --   -0.43760  -0.43287  -0.43110  -0.42919  -0.42338
 Alpha  occ. eigenvalues --   -0.42011  -0.41906  -0.41809  -0.41640  -0.41177
 Alpha  occ. eigenvalues --   -0.40927  -0.40874  -0.40703  -0.40653  -0.40381
 Alpha  occ. eigenvalues --   -0.40262  -0.40042  -0.39875  -0.39747  -0.39581
 Alpha  occ. eigenvalues --   -0.39131  -0.38930  -0.38838  -0.38376  -0.38077
 Alpha  occ. eigenvalues --   -0.38020  -0.37943  -0.37708  -0.37560  -0.37404
 Alpha  occ. eigenvalues --   -0.37294  -0.37114  -0.36927  -0.36700  -0.36536
 Alpha  occ. eigenvalues --   -0.36302  -0.36228  -0.36059  -0.35950  -0.35607
 Alpha  occ. eigenvalues --   -0.35269  -0.35147  -0.35076  -0.34993  -0.34855
 Alpha  occ. eigenvalues --   -0.34750  -0.34561  -0.34403  -0.34173  -0.34139
 Alpha  occ. eigenvalues --   -0.33860  -0.33818  -0.33621  -0.33273  -0.33017
 Alpha  occ. eigenvalues --   -0.32875  -0.32658  -0.32611  -0.32468  -0.32314
 Alpha  occ. eigenvalues --   -0.32224  -0.32195  -0.32119  -0.31924  -0.31737
 Alpha  occ. eigenvalues --   -0.31682  -0.31625  -0.31290  -0.31137  -0.30666
 Alpha  occ. eigenvalues --   -0.30563  -0.30494  -0.30197  -0.29999  -0.29957
 Alpha  occ. eigenvalues --   -0.29704  -0.29488  -0.29390  -0.29005  -0.28706
 Alpha  occ. eigenvalues --   -0.28565  -0.28246  -0.28127  -0.27962  -0.27925
 Alpha  occ. eigenvalues --   -0.27739  -0.27398  -0.27293  -0.26934  -0.26547
 Alpha  occ. eigenvalues --   -0.26358  -0.26250  -0.26145  -0.25971  -0.25810
 Alpha  occ. eigenvalues --   -0.25556  -0.25313  -0.24267  -0.23951  -0.23691
 Alpha  occ. eigenvalues --   -0.23663  -0.22615  -0.22448  -0.21915  -0.21121
 Alpha  occ. eigenvalues --   -0.20727  -0.20078  -0.19347  -0.18031  -0.17162
 Alpha  occ. eigenvalues --   -0.15952
 Alpha virt. eigenvalues --   -0.11732  -0.06819  -0.06319  -0.04785  -0.03446
 Alpha virt. eigenvalues --   -0.02816  -0.02516  -0.02226  -0.01366   0.00171
 Alpha virt. eigenvalues --    0.00988   0.01619   0.01666   0.02501   0.02739

 Mulliken charges:
               1
     1  Mg   0.705926
     2  C   -0.026064
     3  C   -0.056682
     4  C   -0.044602
     5  C   -0.070856
     6  N   -0.196351
     7  C   -0.120859
     8  C    0.025826
     9  C   -0.012587
    10  C    0.028187
    11  C    0.148774
    12  C    0.112189
    13  C    0.174653
    14  C    0.045770
    15  O   -0.194536
    16  O   -0.296773
    17  N   -0.300715
    18  C    0.097518
    19  C   -0.102811
    20  C    0.028360
    21  C    0.083657
    22  C    0.130915
    23  C   -0.047577
    24  O   -0.170347
    25  C    0.118793
    26  N   -0.240311
    27  C   -0.004095
    28  C    0.063161
    29  C    0.019501
    30  C    0.039683
    31  C    0.117942
    32  C    0.041605
    33  C    0.057022
    34  N   -0.208089
    35  C    0.103909
    36  C   -0.158841
    37  C    0.108860
    38  C    0.080970
    39  C    0.185935
    40  C   -0.060022
    41  O   -0.151475
    42  C    0.095052
    43  C    0.128938
    44  O   -0.165738
    45  O   -0.303244
    46  C    0.209776
    47  C    0.317965
    48  C   -0.113267
    49  C   -0.159067
    50  C    0.152055
    51  C    0.106602
    52  C    0.053847
    53  C    0.172573
    54  C   -0.085778
    55  C    0.124813
    56  C    0.106348
    57  C    0.063148
    58  C    0.091708
    59  C   -0.103057
    60  C    0.114592
    61  C    0.200156
    62  C   -0.023740
    63  C    0.137002
    64  C   -0.077646
    65  C    0.089829
    66  C    0.108023
    67  H   -0.055786
    68  H   -0.051470
    69  H   -0.069014
    70  H   -0.006041
    71  H   -0.029386
    72  H   -0.008654
    73  H   -0.003323
    74  H   -0.001728
    75  H   -0.028514
    76  H    0.007572
    77  H   -0.019268
    78  H    0.008818
    79  H   -0.030223
    80  H   -0.010498
    81  H    0.001629
    82  H    0.029149
    83  H   -0.002347
    84  H    0.010510
    85  H   -0.016174
    86  H   -0.010603
    87  H   -0.000059
    88  H   -0.002485
    89  H   -0.002478
    90  H   -0.013114
    91  H   -0.011633
    92  H    0.002875
    93  H   -0.007762
    94  H   -0.009351
    95  H   -0.026422
    96  H    0.015366
    97  H    0.011007
    98  H    0.004902
    99  H    0.008524
   100  H    0.016770
   101  H    0.006443
   102  H    0.008022
   103  H    0.021678
   104  H   -0.021208
   105  H   -0.003519
   106  H   -0.027983
   107  H    0.015743
   108  H   -0.025873
   109  H   -0.030995
   110  H   -0.023750
   111  H   -0.023709
   112  H   -0.035881
   113  H   -0.037777
   114  H   -0.046529
   115  H   -0.025731
   116  H   -0.024835
   117  H   -0.020029
   118  H   -0.043133
   119  H   -0.042035
   120  H   -0.022078
   121  H   -0.040713
   122  H   -0.034290
   123  H   -0.028657
   124  H   -0.041304
   125  H   -0.021084
   126  H   -0.007076
   127  H   -0.032114
   128  H   -0.037633
   129  H   -0.056977
   130  H   -0.034480
   131  H   -0.047150
   132  H   -0.044696
   133  H   -0.040522
   134  H   -0.029228
   135  H   -0.017021
   136  H   -0.012693
   137  H   -0.012879
   138  H   -0.024566
   139  H   -0.018848
   140  H   -0.012131
 Sum of Mulliken charges =  -0.00000

 Dipole moment (field-independent basis, Debye):
    X=              5.0245    Y=              3.8374    Z=             -0.6622  Tot=              6.3569
 Quadrupole moment (field-independent basis, Debye-Ang):
   XX=           -380.7445   YY=           -446.1697   ZZ=           -404.5975
   XY=            -39.0921   XZ=             -2.1194   YZ=              3.5180

 Normal termination of Gaussian 16 at Wed May  4 20:07:52 2022.
