 Gaussian 16, Revision A.03,
 Gaussian 16:  ES64L-G16RevA.03 25-Dec-2016

 -----------------------------------
 #p cam-b3lyp/Def2SVP td=(nstates=5)
 -----------------------------------

 -------------------------------------------------------
 step_351_chromophore_15 TDDFT with cam-b3lyp functional
 -------------------------------------------------------
 Symbolic Z-matrix:
 Charge =  0 Multiplicity = 1

                         Standard orientation:
 ---------------------------------------------------------------------
 Center     Atomic      Atomic             Coordinates (Angstroms)
 Number     Number       Type             X           Y           Z
 ---------------------------------------------------------------------
      1         12           0       -4.577163    0.897315   -0.142100
      2          6           0       -4.340921   -2.517850    0.383300
      3          6           0       -1.189464    1.073081   -0.315007
      4          6           0       -4.904014    4.249988    0.010754
      5          6           0       -8.045055    0.605024    0.544231
      6          7           0       -3.010521   -0.572420    0.065285
      7          6           0       -3.133567   -1.901177    0.062043
      8          6           0       -1.688137   -2.627900   -0.179754
      9          6           0       -0.722106   -1.387236    0.066624
     10          6           0       -1.713775   -0.200136   -0.047496
     11          6           0        0.024284   -1.471602    1.430025
     12          6           0       -1.766735   -2.986509   -1.637905
     13          6           0       -0.552178   -3.670472   -2.319223
     14          6           0        0.602401   -4.039810   -1.419725
     15          8           0        0.488662   -4.708964   -0.407601
     16          8           0        1.793111   -3.577753   -1.986259
     17          7           0       -3.218931    2.430413   -0.231363
     18          6           0       -1.894996    2.311621   -0.416276
     19          6           0       -1.316526    3.618257   -0.494134
     20          6           0       -2.332611    4.582581   -0.355115
     21          6           0       -3.562566    3.782892   -0.121085
     22          6           0        0.166359    3.795094   -0.791053
     23          6           0       -2.295791    6.184350   -0.416588
     24          8           0       -3.290754    6.917958   -0.325259
     25          6           0       -0.961931    6.906131   -0.690205
     26          7           0       -6.185580    2.215250    0.226508
     27          6           0       -6.093846    3.595506    0.152338
     28          6           0       -7.371805    4.318699    0.464791
     29          6           0       -8.330667    3.107169    0.753319
     30          6           0       -7.502503    1.903585    0.439139
     31          6           0       -7.355088    5.438307    1.590002
     32          6           0       -9.631806    3.210447   -0.169881
     33          6           0      -11.023108    3.196141    0.564925
     34          7           0       -5.965311   -0.670258    0.224540
     35          6           0       -7.350901   -0.677792    0.438995
     36          6           0       -7.822962   -2.029246    0.664534
     37          6           0       -6.649126   -2.804213    0.660859
     38          6           0       -5.576555   -1.895948    0.326925
     39          6           0       -9.230886   -2.386380    0.876606
     40          6           0       -6.171018   -4.078980    0.862531
     41          8           0       -6.720924   -5.163415    1.100114
     42          6           0       -4.646302   -3.937611    0.892962
     43          6           0       -3.996196   -5.009213    0.044250
     44          8           0       -4.216967   -5.330538   -1.115603
     45          8           0       -3.110232   -5.650404    0.949674
     46          6           0       -2.186892   -6.661772    0.438544
     47          6           0        3.029036   -3.773198   -1.212670
     48          6           0        4.027352   -2.934960   -1.930671
     49          6           0        5.335187   -2.732445   -1.502551
     50          6           0        6.031438   -3.151776   -0.217268
     51          6           0        6.288793   -1.972345   -2.411171
     52          6           0        6.466818   -0.426440   -1.947543
     53          6           0        6.801197    0.466568   -3.160068
     54          6           0        7.731706    1.534318   -2.815571
     55          6           0        7.572010    2.741169   -3.687949
     56          6           0        9.215556    1.125946   -2.897180
     57          6           0       10.101982    1.927777   -1.872722
     58          6           0       10.601524    0.992060   -0.769088
     59          6           0       11.245742    1.790122    0.329736
     60          6           0       12.154978    3.003463   -0.109789
     61          6           0       11.908510    0.913845    1.405690
     62          6           0       11.256443    1.070813    2.684821
     63          6           0       10.297559    0.016723    3.159904
     64          6           0       10.072276    0.202828    4.683009
     65          6           0       10.663715   -0.952279    5.537486
     66          6           0        8.608166    0.504174    5.092310
     67          1           0       -0.110316    1.229559   -0.267933
     68          1           0       -5.028146    5.335262   -0.010156
     69          1           0       -9.108180    0.626112    0.790868
     70          1           0       -1.518882   -3.428309    0.541222
     71          1           0       -0.071520   -1.183518   -0.783552
     72          1           0       -0.427506   -2.278078    2.007134
     73          1           0       -0.025006   -0.565800    2.035148
     74          1           0        1.046941   -1.786730    1.225572
     75          1           0       -1.835379   -2.055335   -2.200532
     76          1           0       -2.685839   -3.529036   -1.859926
     77          1           0       -0.151322   -3.086448   -3.147214
     78          1           0       -0.778986   -4.630275   -2.783670
     79          1           0        0.322181    4.653533   -1.444094
     80          1           0        0.662156    3.040033   -1.401211
     81          1           0        0.864694    3.997279    0.020460
     82          1           0       -0.750024    6.685452   -1.736517
     83          1           0       -0.178393    6.427162   -0.103722
     84          1           0       -1.143943    7.935554   -0.382364
     85          1           0       -7.594797    4.804024   -0.485487
     86          1           0       -8.654548    3.104254    1.793291
     87          1           0       -6.388570    5.411162    2.094647
     88          1           0       -8.095056    5.423426    2.389273
     89          1           0       -7.433548    6.391190    1.067153
     90          1           0       -9.733694    2.268711   -0.708385
     91          1           0       -9.557897    4.107199   -0.784958
     92          1           0      -11.454862    4.178229    0.371820
     93          1           0      -10.832471    2.886169    1.592471
     94          1           0      -11.647164    2.417665    0.125943
     95          1           0       -9.817152   -1.535540    1.224957
     96          1           0       -9.297947   -3.163190    1.638656
     97          1           0       -9.688940   -2.637125   -0.079785
     98          1           0       -4.207166   -3.989834    1.889335
     99          1           0       -2.452918   -7.694545    0.662808
    100          1           0       -1.187856   -6.584269    0.867179
    101          1           0       -2.098846   -6.506452   -0.636413
    102          1           0        3.367090   -4.794850   -1.385034
    103          1           0        2.799664   -3.558921   -0.169185
    104          1           0        3.720319   -2.511673   -2.886987
    105          1           0        6.804941   -3.871005   -0.485202
    106          1           0        5.330805   -3.734446    0.380772
    107          1           0        6.442184   -2.343197    0.387494
    108          1           0        5.860506   -2.170962   -3.394296
    109          1           0        7.285650   -2.410123   -2.460407
    110          1           0        7.325121   -0.320634   -1.284510
    111          1           0        5.587169   -0.052774   -1.423823
    112          1           0        5.889425    0.853108   -3.615559
    113          1           0        7.377790   -0.217715   -3.782327
    114          1           0        7.646726    1.896664   -1.790738
    115          1           0        7.891701    2.536521   -4.709875
    116          1           0        8.238362    3.516341   -3.307518
    117          1           0        6.516078    3.009576   -3.700933
    118          1           0        9.564208    1.302249   -3.914048
    119          1           0        9.421984    0.081398   -2.664758
    120          1           0        9.639746    2.835392   -1.483921
    121          1           0       10.991385    2.237252   -2.419407
    122          1           0       11.364798    0.321804   -1.163963
    123          1           0        9.790693    0.377411   -0.378207
    124          1           0       10.430590    2.326316    0.813505
    125          1           0       12.990017    2.960230    0.590553
    126          1           0       11.716876    3.991263   -0.254685
    127          1           0       12.566088    2.762629   -1.090312
    128          1           0       12.975462    1.036221    1.593307
    129          1           0       11.786135   -0.116037    1.070270
    130          1           0       10.698767    2.006675    2.725921
    131          1           0       11.983607    1.126238    3.495655
    132          1           0       10.804801   -0.906986    2.880764
    133          1           0        9.439211    0.198287    2.512081
    134          1           0       10.682699    1.046726    5.003584
    135          1           0       10.308966   -0.757551    6.549437
    136          1           0       11.749489   -0.933946    5.449339
    137          1           0       10.285185   -1.936444    5.262197
    138          1           0        8.001516    0.876648    4.266537
    139          1           0        8.616324    1.325940    5.806971
    140          1           0        8.156026   -0.387167    5.527381
 ---------------------------------------------------------------------

 SCF Done:  E(RCAM-B3LYP) =  -3007.18173570     A.U. after   18 cycles

 Excitation energies and oscillator strengths:

 Excited State   1:      Singlet-A      1.6842 eV  736.17 nm  f=0.4020  <S**2>=0.000
     245 -> 248       -0.17769
     246 -> 247        0.68672
     245 <- 248       -0.10833
 This state for optimization and/or second-order correction.
 Total Energy, E(TD-HF/TD-DFT) =  -3007.11984310
 Copying the excited state density for this state as the 1-particle RhoCI density.

 Excited State   2:      Singlet-A      2.1769 eV  569.54 nm  f=0.1420  <S**2>=0.000
     245 -> 247        0.65258
     246 -> 248        0.26238

 Excited State   3:      Singlet-A      3.2540 eV  381.02 nm  f=0.0016  <S**2>=0.000
     241 -> 247        0.18173
     241 -> 249        0.11078
     242 -> 247        0.43134
     242 -> 249        0.21963
     242 -> 250        0.16328
     243 -> 247        0.36594
     243 -> 249        0.12789

 Excited State   4:      Singlet-A      3.4665 eV  357.67 nm  f=0.0100  <S**2>=0.000
     241 -> 247       -0.18555
     242 -> 247       -0.34141
     243 -> 247        0.55762
     246 -> 248       -0.12221

 Excited State   5:      Singlet-A      3.5493 eV  349.32 nm  f=0.3201  <S**2>=0.000
     241 -> 247       -0.37118
     242 -> 247        0.13404
     245 -> 247       -0.18284
     246 -> 248        0.53481

 The electronic state is 1-A.
 Alpha  occ. eigenvalues --  -46.88419 -19.25256 -19.23981 -19.20890 -19.20489
 Alpha  occ. eigenvalues --  -19.19863 -19.17752 -14.42506 -14.42029 -14.39598
 Alpha  occ. eigenvalues --  -14.39426 -10.39943 -10.39441 -10.36509 -10.33426
 Alpha  occ. eigenvalues --  -10.32554 -10.31425 -10.30952 -10.30747 -10.30588
 Alpha  occ. eigenvalues --  -10.30419 -10.30106 -10.30081 -10.29462 -10.28489
 Alpha  occ. eigenvalues --  -10.28417 -10.28352 -10.28323 -10.28100 -10.27963
 Alpha  occ. eigenvalues --  -10.27845 -10.27820 -10.27597 -10.27542 -10.27378
 Alpha  occ. eigenvalues --  -10.27373 -10.27270 -10.27100 -10.26997 -10.26782
 Alpha  occ. eigenvalues --  -10.26669 -10.26592 -10.26536 -10.26369 -10.26183
 Alpha  occ. eigenvalues --  -10.26177 -10.26104 -10.26061 -10.26022 -10.25865
 Alpha  occ. eigenvalues --  -10.25803 -10.25663 -10.25364 -10.25165 -10.25018
 Alpha  occ. eigenvalues --  -10.24994 -10.24826 -10.24803 -10.24745 -10.24717
 Alpha  occ. eigenvalues --  -10.24677 -10.24645 -10.24472 -10.24426 -10.24090
 Alpha  occ. eigenvalues --  -10.23509  -3.17044  -1.91949  -1.91480  -1.91369
 Alpha  occ. eigenvalues --   -1.16080  -1.14301  -1.09756  -1.08770  -1.08077
 Alpha  occ. eigenvalues --   -1.07243  -1.05125  -1.04033  -1.03452  -1.02562
 Alpha  occ. eigenvalues --   -0.92807  -0.91788  -0.90966  -0.89953  -0.89348
 Alpha  occ. eigenvalues --   -0.88809  -0.88261  -0.88130  -0.87798  -0.87070
 Alpha  occ. eigenvalues --   -0.86555  -0.85516  -0.84847  -0.83747  -0.83009
 Alpha  occ. eigenvalues --   -0.82668  -0.81789  -0.81482  -0.81075  -0.80208
 Alpha  occ. eigenvalues --   -0.80133  -0.78747  -0.78126  -0.77179  -0.76373
 Alpha  occ. eigenvalues --   -0.75865  -0.75514  -0.75426  -0.75178  -0.74869
 Alpha  occ. eigenvalues --   -0.73394  -0.72663  -0.71739  -0.70333  -0.69056
 Alpha  occ. eigenvalues --   -0.68829  -0.68398  -0.67136  -0.66740  -0.65917
 Alpha  occ. eigenvalues --   -0.65438  -0.64666  -0.64506  -0.64078  -0.63942
 Alpha  occ. eigenvalues --   -0.63810  -0.63723  -0.63364  -0.61692  -0.59987
 Alpha  occ. eigenvalues --   -0.59888  -0.59518  -0.58995  -0.58467  -0.57867
 Alpha  occ. eigenvalues --   -0.57323  -0.56621  -0.56334  -0.56245  -0.55244
 Alpha  occ. eigenvalues --   -0.55124  -0.55020  -0.54862  -0.54657  -0.54138
 Alpha  occ. eigenvalues --   -0.53756  -0.53563  -0.53523  -0.53330  -0.53056
 Alpha  occ. eigenvalues --   -0.52978  -0.52923  -0.52644  -0.52396  -0.52253
 Alpha  occ. eigenvalues --   -0.51684  -0.51510  -0.51466  -0.50995  -0.50734
 Alpha  occ. eigenvalues --   -0.50446  -0.50263  -0.50052  -0.49928  -0.49751
 Alpha  occ. eigenvalues --   -0.49551  -0.49472  -0.49112  -0.48961  -0.48782
 Alpha  occ. eigenvalues --   -0.48711  -0.48377  -0.48213  -0.48196  -0.48150
 Alpha  occ. eigenvalues --   -0.47582  -0.47504  -0.47398  -0.46979  -0.46792
 Alpha  occ. eigenvalues --   -0.46687  -0.46456  -0.46188  -0.46162  -0.45857
 Alpha  occ. eigenvalues --   -0.45668  -0.45597  -0.45481  -0.44865  -0.44618
 Alpha  occ. eigenvalues --   -0.44533  -0.44405  -0.44352  -0.44228  -0.44100
 Alpha  occ. eigenvalues --   -0.43951  -0.43798  -0.43670  -0.43581  -0.43283
 Alpha  occ. eigenvalues --   -0.43172  -0.43075  -0.42735  -0.42597  -0.42265
 Alpha  occ. eigenvalues --   -0.42145  -0.42040  -0.41451  -0.41320  -0.41140
 Alpha  occ. eigenvalues --   -0.41095  -0.40709  -0.40607  -0.40304  -0.39985
 Alpha  occ. eigenvalues --   -0.39684  -0.39410  -0.39189  -0.39036  -0.38833
 Alpha  occ. eigenvalues --   -0.38829  -0.38274  -0.38205  -0.37770  -0.37650
 Alpha  occ. eigenvalues --   -0.37438  -0.37235  -0.36993  -0.36686  -0.36612
 Alpha  occ. eigenvalues --   -0.36378  -0.35904  -0.35618  -0.34715  -0.34487
 Alpha  occ. eigenvalues --   -0.34442  -0.34424  -0.32854  -0.31494  -0.31381
 Alpha  occ. eigenvalues --   -0.30512  -0.30386  -0.30025  -0.29581  -0.23934
 Alpha  occ. eigenvalues --   -0.21274
 Alpha virt. eigenvalues --   -0.08965  -0.01495   0.00138   0.02098   0.02735
 Alpha virt. eigenvalues --    0.04120   0.04942   0.05237   0.05416   0.06701
 Alpha virt. eigenvalues --    0.07589   0.07911   0.08449   0.08868   0.09174

 Mulliken charges:
               1
     1  Mg   0.839532
     2  C   -0.058596
     3  C   -0.067613
     4  C   -0.067099
     5  C   -0.075155
     6  N   -0.266147
     7  C   -0.075893
     8  C   -0.032039
     9  C   -0.064831
    10  C    0.044609
    11  C    0.095350
    12  C    0.055936
    13  C    0.107635
    14  C    0.126959
    15  O   -0.235064
    16  O   -0.363206
    17  N   -0.388930
    18  C    0.108770
    19  C   -0.114905
    20  C   -0.037503
    21  C    0.108028
    22  C    0.070521
    23  C    0.031955
    24  O   -0.211345
    25  C    0.043032
    26  N   -0.312518
    27  C    0.020104
    28  C    0.004505
    29  C   -0.040228
    30  C    0.060544
    31  C    0.058536
    32  C   -0.010499
    33  C   -0.001791
    34  N   -0.297051
    35  C    0.105475
    36  C   -0.149139
    37  C    0.022775
    38  C    0.123049
    39  C    0.134371
    40  C    0.040037
    41  O   -0.190652
    42  C    0.019046
    43  C    0.216399
    44  O   -0.203814
    45  O   -0.368333
    46  C    0.176604
    47  C    0.287475
    48  C   -0.134843
    49  C   -0.182402
    50  C    0.092288
    51  C    0.047350
    52  C    0.008097
    53  C    0.111818
    54  C   -0.144906
    55  C    0.068348
    56  C    0.052927
    57  C    0.003972
    58  C    0.047863
    59  C   -0.158306
    60  C    0.054831
    61  C    0.132968
    62  C   -0.071956
    63  C    0.083898
    64  C   -0.142850
    65  C    0.035169
    66  C    0.048269
    67  H   -0.020263
    68  H   -0.010029
    69  H   -0.035296
    70  H    0.029470
    71  H    0.005573
    72  H    0.016025
    73  H    0.022823
    74  H    0.018863
    75  H    0.003933
    76  H    0.040369
    77  H    0.017692
    78  H    0.040049
    79  H   -0.003420
    80  H    0.018196
    81  H    0.028903
    82  H    0.053199
    83  H    0.024349
    84  H    0.043451
    85  H    0.018573
    86  H    0.022871
    87  H    0.025570
    88  H    0.021983
    89  H    0.021200
    90  H    0.016049
    91  H    0.015970
    92  H    0.025961
    93  H    0.013137
    94  H    0.013886
    95  H   -0.000334
    96  H    0.042342
    97  H    0.038886
    98  H    0.051191
    99  H    0.030107
   100  H    0.038556
   101  H    0.028309
   102  H    0.035942
   103  H    0.046339
   104  H    0.014951
   105  H    0.021756
   106  H   -0.003179
   107  H    0.039241
   108  H    0.003894
   109  H   -0.001888
   110  H   -0.000426
   111  H    0.005040
   112  H   -0.005638
   113  H   -0.008296
   114  H   -0.014143
   115  H   -0.001248
   116  H    0.000115
   117  H    0.004649
   118  H   -0.012606
   119  H   -0.013309
   120  H    0.003469
   121  H   -0.010077
   122  H   -0.005868
   123  H   -0.004971
   124  H   -0.009890
   125  H    0.004480
   126  H    0.017428
   127  H   -0.008200
   128  H   -0.005333
   129  H   -0.024946
   130  H   -0.007124
   131  H   -0.017918
   132  H   -0.015668
   133  H   -0.013772
   134  H    0.002765
   135  H    0.007185
   136  H    0.010153
   137  H    0.010116
   138  H    0.000183
   139  H    0.005689
   140  H    0.011527
 Sum of Mulliken charges =  -0.00000

 Dipole moment (field-independent basis, Debye):
    X=              5.4017    Y=              4.1323    Z=             -0.7407  Tot=              6.8413
 Quadrupole moment (field-independent basis, Debye-Ang):
   XX=           -379.0688   YY=           -444.4989   ZZ=           -404.5130
   XY=            -39.7648   XZ=             -2.4205   YZ=              3.4069

 Normal termination of Gaussian 16 at Wed May  4 18:38:22 2022.
