 Gaussian 16, Revision A.03,
 Gaussian 16:  ES64L-G16RevA.03 25-Dec-2016

 ---------------------------------
 #p PBE1PBE/Def2SVP td=(nstates=5)
 ---------------------------------

 -----------------------------------------------------
 step_351_chromophore_15 TDDFT with PBE1PBE functional
 -----------------------------------------------------
 Symbolic Z-matrix:
 Charge =  0 Multiplicity = 1

                         Standard orientation:
 ---------------------------------------------------------------------
 Center     Atomic      Atomic             Coordinates (Angstroms)
 Number     Number       Type             X           Y           Z
 ---------------------------------------------------------------------
      1         12           0       -4.577163    0.897315   -0.142100
      2          6           0       -4.340921   -2.517850    0.383300
      3          6           0       -1.189464    1.073081   -0.315007
      4          6           0       -4.904014    4.249988    0.010754
      5          6           0       -8.045055    0.605024    0.544231
      6          7           0       -3.010521   -0.572420    0.065285
      7          6           0       -3.133567   -1.901177    0.062043
      8          6           0       -1.688137   -2.627900   -0.179754
      9          6           0       -0.722106   -1.387236    0.066624
     10          6           0       -1.713775   -0.200136   -0.047496
     11          6           0        0.024284   -1.471602    1.430025
     12          6           0       -1.766735   -2.986509   -1.637905
     13          6           0       -0.552178   -3.670472   -2.319223
     14          6           0        0.602401   -4.039810   -1.419725
     15          8           0        0.488662   -4.708964   -0.407601
     16          8           0        1.793111   -3.577753   -1.986259
     17          7           0       -3.218931    2.430413   -0.231363
     18          6           0       -1.894996    2.311621   -0.416276
     19          6           0       -1.316526    3.618257   -0.494134
     20          6           0       -2.332611    4.582581   -0.355115
     21          6           0       -3.562566    3.782892   -0.121085
     22          6           0        0.166359    3.795094   -0.791053
     23          6           0       -2.295791    6.184350   -0.416588
     24          8           0       -3.290754    6.917958   -0.325259
     25          6           0       -0.961931    6.906131   -0.690205
     26          7           0       -6.185580    2.215250    0.226508
     27          6           0       -6.093846    3.595506    0.152338
     28          6           0       -7.371805    4.318699    0.464791
     29          6           0       -8.330667    3.107169    0.753319
     30          6           0       -7.502503    1.903585    0.439139
     31          6           0       -7.355088    5.438307    1.590002
     32          6           0       -9.631806    3.210447   -0.169881
     33          6           0      -11.023108    3.196141    0.564925
     34          7           0       -5.965311   -0.670258    0.224540
     35          6           0       -7.350901   -0.677792    0.438995
     36          6           0       -7.822962   -2.029246    0.664534
     37          6           0       -6.649126   -2.804213    0.660859
     38          6           0       -5.576555   -1.895948    0.326925
     39          6           0       -9.230886   -2.386380    0.876606
     40          6           0       -6.171018   -4.078980    0.862531
     41          8           0       -6.720924   -5.163415    1.100114
     42          6           0       -4.646302   -3.937611    0.892962
     43          6           0       -3.996196   -5.009213    0.044250
     44          8           0       -4.216967   -5.330538   -1.115603
     45          8           0       -3.110232   -5.650404    0.949674
     46          6           0       -2.186892   -6.661772    0.438544
     47          6           0        3.029036   -3.773198   -1.212670
     48          6           0        4.027352   -2.934960   -1.930671
     49          6           0        5.335187   -2.732445   -1.502551
     50          6           0        6.031438   -3.151776   -0.217268
     51          6           0        6.288793   -1.972345   -2.411171
     52          6           0        6.466818   -0.426440   -1.947543
     53          6           0        6.801197    0.466568   -3.160068
     54          6           0        7.731706    1.534318   -2.815571
     55          6           0        7.572010    2.741169   -3.687949
     56          6           0        9.215556    1.125946   -2.897180
     57          6           0       10.101982    1.927777   -1.872722
     58          6           0       10.601524    0.992060   -0.769088
     59          6           0       11.245742    1.790122    0.329736
     60          6           0       12.154978    3.003463   -0.109789
     61          6           0       11.908510    0.913845    1.405690
     62          6           0       11.256443    1.070813    2.684821
     63          6           0       10.297559    0.016723    3.159904
     64          6           0       10.072276    0.202828    4.683009
     65          6           0       10.663715   -0.952279    5.537486
     66          6           0        8.608166    0.504174    5.092310
     67          1           0       -0.110316    1.229559   -0.267933
     68          1           0       -5.028146    5.335262   -0.010156
     69          1           0       -9.108180    0.626112    0.790868
     70          1           0       -1.518882   -3.428309    0.541222
     71          1           0       -0.071520   -1.183518   -0.783552
     72          1           0       -0.427506   -2.278078    2.007134
     73          1           0       -0.025006   -0.565800    2.035148
     74          1           0        1.046941   -1.786730    1.225572
     75          1           0       -1.835379   -2.055335   -2.200532
     76          1           0       -2.685839   -3.529036   -1.859926
     77          1           0       -0.151322   -3.086448   -3.147214
     78          1           0       -0.778986   -4.630275   -2.783670
     79          1           0        0.322181    4.653533   -1.444094
     80          1           0        0.662156    3.040033   -1.401211
     81          1           0        0.864694    3.997279    0.020460
     82          1           0       -0.750024    6.685452   -1.736517
     83          1           0       -0.178393    6.427162   -0.103722
     84          1           0       -1.143943    7.935554   -0.382364
     85          1           0       -7.594797    4.804024   -0.485487
     86          1           0       -8.654548    3.104254    1.793291
     87          1           0       -6.388570    5.411162    2.094647
     88          1           0       -8.095056    5.423426    2.389273
     89          1           0       -7.433548    6.391190    1.067153
     90          1           0       -9.733694    2.268711   -0.708385
     91          1           0       -9.557897    4.107199   -0.784958
     92          1           0      -11.454862    4.178229    0.371820
     93          1           0      -10.832471    2.886169    1.592471
     94          1           0      -11.647164    2.417665    0.125943
     95          1           0       -9.817152   -1.535540    1.224957
     96          1           0       -9.297947   -3.163190    1.638656
     97          1           0       -9.688940   -2.637125   -0.079785
     98          1           0       -4.207166   -3.989834    1.889335
     99          1           0       -2.452918   -7.694545    0.662808
    100          1           0       -1.187856   -6.584269    0.867179
    101          1           0       -2.098846   -6.506452   -0.636413
    102          1           0        3.367090   -4.794850   -1.385034
    103          1           0        2.799664   -3.558921   -0.169185
    104          1           0        3.720319   -2.511673   -2.886987
    105          1           0        6.804941   -3.871005   -0.485202
    106          1           0        5.330805   -3.734446    0.380772
    107          1           0        6.442184   -2.343197    0.387494
    108          1           0        5.860506   -2.170962   -3.394296
    109          1           0        7.285650   -2.410123   -2.460407
    110          1           0        7.325121   -0.320634   -1.284510
    111          1           0        5.587169   -0.052774   -1.423823
    112          1           0        5.889425    0.853108   -3.615559
    113          1           0        7.377790   -0.217715   -3.782327
    114          1           0        7.646726    1.896664   -1.790738
    115          1           0        7.891701    2.536521   -4.709875
    116          1           0        8.238362    3.516341   -3.307518
    117          1           0        6.516078    3.009576   -3.700933
    118          1           0        9.564208    1.302249   -3.914048
    119          1           0        9.421984    0.081398   -2.664758
    120          1           0        9.639746    2.835392   -1.483921
    121          1           0       10.991385    2.237252   -2.419407
    122          1           0       11.364798    0.321804   -1.163963
    123          1           0        9.790693    0.377411   -0.378207
    124          1           0       10.430590    2.326316    0.813505
    125          1           0       12.990017    2.960230    0.590553
    126          1           0       11.716876    3.991263   -0.254685
    127          1           0       12.566088    2.762629   -1.090312
    128          1           0       12.975462    1.036221    1.593307
    129          1           0       11.786135   -0.116037    1.070270
    130          1           0       10.698767    2.006675    2.725921
    131          1           0       11.983607    1.126238    3.495655
    132          1           0       10.804801   -0.906986    2.880764
    133          1           0        9.439211    0.198287    2.512081
    134          1           0       10.682699    1.046726    5.003584
    135          1           0       10.308966   -0.757551    6.549437
    136          1           0       11.749489   -0.933946    5.449339
    137          1           0       10.285185   -1.936444    5.262197
    138          1           0        8.001516    0.876648    4.266537
    139          1           0        8.616324    1.325940    5.806971
    140          1           0        8.156026   -0.387167    5.527381
 ---------------------------------------------------------------------

 SCF Done:  E(RPBE1PBE) =  -3005.37083018     A.U. after   16 cycles

 Excitation energies and oscillator strengths:

 Excited State   1:      Singlet-A      1.8466 eV  671.41 nm  f=0.3893  <S**2>=0.000
     245 -> 248        0.17046
     246 -> 247        0.69407
     246 <- 247       -0.11143
 This state for optimization and/or second-order correction.
 Total Energy, E(TD-HF/TD-DFT) =  -3005.30296781
 Copying the excited state density for this state as the 1-particle RhoCI density.

 Excited State   2:      Singlet-A      2.1805 eV  568.61 nm  f=0.1335  <S**2>=0.000
     245 -> 247        0.66187
     246 -> 248       -0.23615

 Excited State   3:      Singlet-A      2.7629 eV  448.75 nm  f=0.0001  <S**2>=0.000
     243 -> 247        0.67160
     243 -> 249       -0.15927
     243 -> 250       -0.10655

 Excited State   4:      Singlet-A      3.1353 eV  395.44 nm  f=0.0003  <S**2>=0.000
     241 -> 247       -0.14621
     242 -> 247        0.68091

 Excited State   5:      Singlet-A      3.2213 eV  384.89 nm  f=0.0005  <S**2>=0.000
     240 -> 247        0.55237
     240 -> 249        0.14662
     241 -> 247        0.37546

 The electronic state is 1-A.
 Alpha  occ. eigenvalues --  -46.91829 -19.25954 -19.24659 -19.21111 -19.20682
 Alpha  occ. eigenvalues --  -19.20113 -19.17982 -14.42026 -14.41533 -14.39274
 Alpha  occ. eigenvalues --  -14.39037 -10.36956 -10.36448 -10.33724 -10.30491
 Alpha  occ. eigenvalues --  -10.29931 -10.29165 -10.28708 -10.28468 -10.28368
 Alpha  occ. eigenvalues --  -10.28146 -10.27857 -10.27283 -10.27188 -10.26142
 Alpha  occ. eigenvalues --  -10.26087 -10.26079 -10.25973 -10.25864 -10.25771
 Alpha  occ. eigenvalues --  -10.25690 -10.25523 -10.25463 -10.25200 -10.25145
 Alpha  occ. eigenvalues --  -10.25008 -10.24776 -10.24773 -10.24456 -10.24397
 Alpha  occ. eigenvalues --  -10.24236 -10.24060 -10.23900 -10.23898 -10.23768
 Alpha  occ. eigenvalues --  -10.23758 -10.23632 -10.23545 -10.23471 -10.23458
 Alpha  occ. eigenvalues --  -10.23424 -10.23124 -10.23081 -10.22753 -10.22603
 Alpha  occ. eigenvalues --  -10.22563 -10.22495 -10.22420 -10.22190 -10.22180
 Alpha  occ. eigenvalues --  -10.22147 -10.22057 -10.21959 -10.21870 -10.21638
 Alpha  occ. eigenvalues --  -10.21010  -3.14031  -1.86878  -1.86386  -1.86278
 Alpha  occ. eigenvalues --   -1.10843  -1.09008  -1.04511  -1.03608  -1.02778
 Alpha  occ. eigenvalues --   -1.02054  -0.99762  -0.98687  -0.98088  -0.97255
 Alpha  occ. eigenvalues --   -0.87170  -0.85901  -0.85091  -0.84129  -0.83527
 Alpha  occ. eigenvalues --   -0.83131  -0.82455  -0.82378  -0.82111  -0.81391
 Alpha  occ. eigenvalues --   -0.80845  -0.79735  -0.79014  -0.78004  -0.77288
 Alpha  occ. eigenvalues --   -0.76922  -0.76030  -0.75676  -0.75291  -0.74512
 Alpha  occ. eigenvalues --   -0.74351  -0.73028  -0.72403  -0.71500  -0.70534
 Alpha  occ. eigenvalues --   -0.70204  -0.69605  -0.69565  -0.69496  -0.69045
 Alpha  occ. eigenvalues --   -0.67803  -0.66991  -0.66163  -0.64647  -0.63471
 Alpha  occ. eigenvalues --   -0.63146  -0.62786  -0.61478  -0.61042  -0.60391
 Alpha  occ. eigenvalues --   -0.59853  -0.59038  -0.58836  -0.58671  -0.58242
 Alpha  occ. eigenvalues --   -0.58110  -0.57872  -0.57543  -0.56247  -0.54539
 Alpha  occ. eigenvalues --   -0.54387  -0.54060  -0.53566  -0.53045  -0.52492
 Alpha  occ. eigenvalues --   -0.51704  -0.51098  -0.50926  -0.50695  -0.49780
 Alpha  occ. eigenvalues --   -0.49603  -0.49549  -0.49334  -0.49075  -0.48553
 Alpha  occ. eigenvalues --   -0.48192  -0.48135  -0.47996  -0.47954  -0.47579
 Alpha  occ. eigenvalues --   -0.47538  -0.47459  -0.47194  -0.46851  -0.46707
 Alpha  occ. eigenvalues --   -0.46178  -0.46018  -0.45975  -0.45528  -0.45282
 Alpha  occ. eigenvalues --   -0.45122  -0.44783  -0.44604  -0.44489  -0.44317
 Alpha  occ. eigenvalues --   -0.44138  -0.44045  -0.43718  -0.43573  -0.43385
 Alpha  occ. eigenvalues --   -0.43334  -0.43011  -0.42880  -0.42819  -0.42764
 Alpha  occ. eigenvalues --   -0.42248  -0.42154  -0.42021  -0.41647  -0.41484
 Alpha  occ. eigenvalues --   -0.41347  -0.41228  -0.40899  -0.40840  -0.40449
 Alpha  occ. eigenvalues --   -0.40421  -0.40264  -0.40169  -0.39578  -0.39340
 Alpha  occ. eigenvalues --   -0.39309  -0.39157  -0.39084  -0.38880  -0.38816
 Alpha  occ. eigenvalues --   -0.38753  -0.38628  -0.38402  -0.38356  -0.38113
 Alpha  occ. eigenvalues --   -0.38046  -0.37770  -0.37537  -0.37329  -0.37091
 Alpha  occ. eigenvalues --   -0.36954  -0.36852  -0.36286  -0.36127  -0.35991
 Alpha  occ. eigenvalues --   -0.35947  -0.35625  -0.35353  -0.35137  -0.34824
 Alpha  occ. eigenvalues --   -0.34507  -0.34347  -0.33999  -0.33988  -0.33737
 Alpha  occ. eigenvalues --   -0.33606  -0.33246  -0.33003  -0.32661  -0.32514
 Alpha  occ. eigenvalues --   -0.32408  -0.32066  -0.32023  -0.31656  -0.31544
 Alpha  occ. eigenvalues --   -0.31305  -0.30775  -0.30575  -0.29804  -0.29470
 Alpha  occ. eigenvalues --   -0.29347  -0.29333  -0.28404  -0.27104  -0.26270
 Alpha  occ. eigenvalues --   -0.26116  -0.25758  -0.25068  -0.24920  -0.20874
 Alpha  occ. eigenvalues --   -0.18911
 Alpha virt. eigenvalues --   -0.11385  -0.05063  -0.04079  -0.02276  -0.00400
 Alpha virt. eigenvalues --    0.00004   0.00300   0.00701   0.01340   0.03147
 Alpha virt. eigenvalues --    0.03712   0.04380   0.04562   0.05433   0.05688

 Mulliken charges:
               1
     1  Mg   0.989236
     2  C   -0.059883
     3  C   -0.057057
     4  C   -0.068803
     5  C   -0.068648
     6  N   -0.367293
     7  C   -0.001816
     8  C   -0.124373
     9  C   -0.133268
    10  C    0.076689
    11  C    0.038257
    12  C    0.014696
    13  C    0.035385
    14  C    0.194629
    15  O   -0.268330
    16  O   -0.396613
    17  N   -0.506834
    18  C    0.141595
    19  C   -0.151440
    20  C   -0.080984
    21  C    0.144086
    22  C    0.015136
    23  C    0.081517
    24  O   -0.246732
    25  C   -0.032180
    26  N   -0.418849
    27  C    0.055741
    28  C   -0.068256
    29  C   -0.121931
    30  C    0.099647
    31  C   -0.000276
    32  C   -0.065703
    33  C   -0.073450
    34  N   -0.425123
    35  C    0.127410
    36  C   -0.164925
    37  C   -0.030897
    38  C    0.176919
    39  C    0.084135
    40  C    0.136289
    41  O   -0.237994
    42  C   -0.092906
    43  C    0.303166
    44  O   -0.241355
    45  O   -0.399328
    46  C    0.123423
    47  C    0.250556
    48  C   -0.150759
    49  C   -0.223214
    50  C    0.029297
    51  C   -0.016366
    52  C   -0.054895
    53  C    0.053972
    54  C   -0.236894
    55  C    0.007891
    56  C    0.001655
    57  C   -0.061723
    58  C   -0.012103
    59  C   -0.239646
    60  C   -0.007560
    61  C    0.075270
    62  C   -0.137880
    63  C    0.030971
    64  C   -0.236484
    65  C   -0.027710
    66  C   -0.013004
    67  H    0.010962
    68  H    0.022917
    69  H   -0.001730
    70  H    0.066453
    71  H    0.042067
    72  H    0.043233
    73  H    0.049804
    74  H    0.048506
    75  H    0.038296
    76  H    0.075846
    77  H    0.049257
    78  H    0.072007
    79  H    0.025903
    80  H    0.044504
    81  H    0.056287
    82  H    0.079670
    83  H    0.052417
    84  H    0.070238
    85  H    0.055656
    86  H    0.059313
    87  H    0.053734
    88  H    0.048834
    89  H    0.048101
    90  H    0.048901
    91  H    0.047317
    92  H    0.053521
    93  H    0.039779
    94  H    0.041604
    95  H    0.027001
    96  H    0.068684
    97  H    0.066383
    98  H    0.088011
    99  H    0.052182
   100  H    0.060301
   101  H    0.049954
   102  H    0.063860
   103  H    0.070929
   104  H    0.043466
   105  H    0.049866
   106  H    0.025605
   107  H    0.064979
   108  H    0.035136
   109  H    0.030713
   110  H    0.035837
   111  H    0.037809
   112  H    0.026202
   113  H    0.026991
   114  H    0.025647
   115  H    0.026910
   116  H    0.029589
   117  H    0.033301
   118  H    0.020349
   119  H    0.019549
   120  H    0.033803
   121  H    0.024775
   122  H    0.028156
   123  H    0.031242
   124  H    0.029327
   125  H    0.033329
   126  H    0.044060
   127  H    0.020960
   128  H    0.026240
   129  H    0.008730
   130  H    0.027489
   131  H    0.016657
   132  H    0.017060
   133  H    0.019762
   134  H    0.039829
   135  H    0.035776
   136  H    0.038163
   137  H    0.037957
   138  H    0.027785
   139  H    0.033469
   140  H    0.038700
 Sum of Mulliken charges =  -0.00000

 Dipole moment (field-independent basis, Debye):
    X=              5.4126    Y=              4.2532    Z=             -0.7392  Tot=              6.9234
 Quadrupole moment (field-independent basis, Debye-Ang):
   XX=           -373.5319   YY=           -441.5497   ZZ=           -401.9305
   XY=            -41.1124   XZ=             -2.6485   YZ=              3.3654

 Normal termination of Gaussian 16 at Wed May  4 19:11:44 2022.
