 Gaussian 16, Revision A.03,
 Gaussian 16:  ES64L-G16RevA.03 25-Dec-2016

 --------------------------------
 #p wB97XD/Def2SVP td=(nstates=5)
 --------------------------------

 ----------------------------------------------------
 step_351_chromophore_15 TDDFT with wB97XD functional
 ----------------------------------------------------
 Symbolic Z-matrix:
 Charge =  0 Multiplicity = 1

                         Standard orientation:
 ---------------------------------------------------------------------
 Center     Atomic      Atomic             Coordinates (Angstroms)
 Number     Number       Type             X           Y           Z
 ---------------------------------------------------------------------
      1         12           0       -4.577163    0.897315   -0.142100
      2          6           0       -4.340921   -2.517850    0.383300
      3          6           0       -1.189464    1.073081   -0.315007
      4          6           0       -4.904014    4.249988    0.010754
      5          6           0       -8.045055    0.605024    0.544231
      6          7           0       -3.010521   -0.572420    0.065285
      7          6           0       -3.133567   -1.901177    0.062043
      8          6           0       -1.688137   -2.627900   -0.179754
      9          6           0       -0.722106   -1.387236    0.066624
     10          6           0       -1.713775   -0.200136   -0.047496
     11          6           0        0.024284   -1.471602    1.430025
     12          6           0       -1.766735   -2.986509   -1.637905
     13          6           0       -0.552178   -3.670472   -2.319223
     14          6           0        0.602401   -4.039810   -1.419725
     15          8           0        0.488662   -4.708964   -0.407601
     16          8           0        1.793111   -3.577753   -1.986259
     17          7           0       -3.218931    2.430413   -0.231363
     18          6           0       -1.894996    2.311621   -0.416276
     19          6           0       -1.316526    3.618257   -0.494134
     20          6           0       -2.332611    4.582581   -0.355115
     21          6           0       -3.562566    3.782892   -0.121085
     22          6           0        0.166359    3.795094   -0.791053
     23          6           0       -2.295791    6.184350   -0.416588
     24          8           0       -3.290754    6.917958   -0.325259
     25          6           0       -0.961931    6.906131   -0.690205
     26          7           0       -6.185580    2.215250    0.226508
     27          6           0       -6.093846    3.595506    0.152338
     28          6           0       -7.371805    4.318699    0.464791
     29          6           0       -8.330667    3.107169    0.753319
     30          6           0       -7.502503    1.903585    0.439139
     31          6           0       -7.355088    5.438307    1.590002
     32          6           0       -9.631806    3.210447   -0.169881
     33          6           0      -11.023108    3.196141    0.564925
     34          7           0       -5.965311   -0.670258    0.224540
     35          6           0       -7.350901   -0.677792    0.438995
     36          6           0       -7.822962   -2.029246    0.664534
     37          6           0       -6.649126   -2.804213    0.660859
     38          6           0       -5.576555   -1.895948    0.326925
     39          6           0       -9.230886   -2.386380    0.876606
     40          6           0       -6.171018   -4.078980    0.862531
     41          8           0       -6.720924   -5.163415    1.100114
     42          6           0       -4.646302   -3.937611    0.892962
     43          6           0       -3.996196   -5.009213    0.044250
     44          8           0       -4.216967   -5.330538   -1.115603
     45          8           0       -3.110232   -5.650404    0.949674
     46          6           0       -2.186892   -6.661772    0.438544
     47          6           0        3.029036   -3.773198   -1.212670
     48          6           0        4.027352   -2.934960   -1.930671
     49          6           0        5.335187   -2.732445   -1.502551
     50          6           0        6.031438   -3.151776   -0.217268
     51          6           0        6.288793   -1.972345   -2.411171
     52          6           0        6.466818   -0.426440   -1.947543
     53          6           0        6.801197    0.466568   -3.160068
     54          6           0        7.731706    1.534318   -2.815571
     55          6           0        7.572010    2.741169   -3.687949
     56          6           0        9.215556    1.125946   -2.897180
     57          6           0       10.101982    1.927777   -1.872722
     58          6           0       10.601524    0.992060   -0.769088
     59          6           0       11.245742    1.790122    0.329736
     60          6           0       12.154978    3.003463   -0.109789
     61          6           0       11.908510    0.913845    1.405690
     62          6           0       11.256443    1.070813    2.684821
     63          6           0       10.297559    0.016723    3.159904
     64          6           0       10.072276    0.202828    4.683009
     65          6           0       10.663715   -0.952279    5.537486
     66          6           0        8.608166    0.504174    5.092310
     67          1           0       -0.110316    1.229559   -0.267933
     68          1           0       -5.028146    5.335262   -0.010156
     69          1           0       -9.108180    0.626112    0.790868
     70          1           0       -1.518882   -3.428309    0.541222
     71          1           0       -0.071520   -1.183518   -0.783552
     72          1           0       -0.427506   -2.278078    2.007134
     73          1           0       -0.025006   -0.565800    2.035148
     74          1           0        1.046941   -1.786730    1.225572
     75          1           0       -1.835379   -2.055335   -2.200532
     76          1           0       -2.685839   -3.529036   -1.859926
     77          1           0       -0.151322   -3.086448   -3.147214
     78          1           0       -0.778986   -4.630275   -2.783670
     79          1           0        0.322181    4.653533   -1.444094
     80          1           0        0.662156    3.040033   -1.401211
     81          1           0        0.864694    3.997279    0.020460
     82          1           0       -0.750024    6.685452   -1.736517
     83          1           0       -0.178393    6.427162   -0.103722
     84          1           0       -1.143943    7.935554   -0.382364
     85          1           0       -7.594797    4.804024   -0.485487
     86          1           0       -8.654548    3.104254    1.793291
     87          1           0       -6.388570    5.411162    2.094647
     88          1           0       -8.095056    5.423426    2.389273
     89          1           0       -7.433548    6.391190    1.067153
     90          1           0       -9.733694    2.268711   -0.708385
     91          1           0       -9.557897    4.107199   -0.784958
     92          1           0      -11.454862    4.178229    0.371820
     93          1           0      -10.832471    2.886169    1.592471
     94          1           0      -11.647164    2.417665    0.125943
     95          1           0       -9.817152   -1.535540    1.224957
     96          1           0       -9.297947   -3.163190    1.638656
     97          1           0       -9.688940   -2.637125   -0.079785
     98          1           0       -4.207166   -3.989834    1.889335
     99          1           0       -2.452918   -7.694545    0.662808
    100          1           0       -1.187856   -6.584269    0.867179
    101          1           0       -2.098846   -6.506452   -0.636413
    102          1           0        3.367090   -4.794850   -1.385034
    103          1           0        2.799664   -3.558921   -0.169185
    104          1           0        3.720319   -2.511673   -2.886987
    105          1           0        6.804941   -3.871005   -0.485202
    106          1           0        5.330805   -3.734446    0.380772
    107          1           0        6.442184   -2.343197    0.387494
    108          1           0        5.860506   -2.170962   -3.394296
    109          1           0        7.285650   -2.410123   -2.460407
    110          1           0        7.325121   -0.320634   -1.284510
    111          1           0        5.587169   -0.052774   -1.423823
    112          1           0        5.889425    0.853108   -3.615559
    113          1           0        7.377790   -0.217715   -3.782327
    114          1           0        7.646726    1.896664   -1.790738
    115          1           0        7.891701    2.536521   -4.709875
    116          1           0        8.238362    3.516341   -3.307518
    117          1           0        6.516078    3.009576   -3.700933
    118          1           0        9.564208    1.302249   -3.914048
    119          1           0        9.421984    0.081398   -2.664758
    120          1           0        9.639746    2.835392   -1.483921
    121          1           0       10.991385    2.237252   -2.419407
    122          1           0       11.364798    0.321804   -1.163963
    123          1           0        9.790693    0.377411   -0.378207
    124          1           0       10.430590    2.326316    0.813505
    125          1           0       12.990017    2.960230    0.590553
    126          1           0       11.716876    3.991263   -0.254685
    127          1           0       12.566088    2.762629   -1.090312
    128          1           0       12.975462    1.036221    1.593307
    129          1           0       11.786135   -0.116037    1.070270
    130          1           0       10.698767    2.006675    2.725921
    131          1           0       11.983607    1.126238    3.495655
    132          1           0       10.804801   -0.906986    2.880764
    133          1           0        9.439211    0.198287    2.512081
    134          1           0       10.682699    1.046726    5.003584
    135          1           0       10.308966   -0.757551    6.549437
    136          1           0       11.749489   -0.933946    5.449339
    137          1           0       10.285185   -1.936444    5.262197
    138          1           0        8.001516    0.876648    4.266537
    139          1           0        8.616324    1.325940    5.806971
    140          1           0        8.156026   -0.387167    5.527381
 ---------------------------------------------------------------------

 SCF Done:  E(RwB97XD) =  -3007.87952704     A.U. after   19 cycles

 Excitation energies and oscillator strengths:

 Excited State   1:      Singlet-A      1.6238 eV  763.54 nm  f=0.4002  <S**2>=0.000
     245 -> 248       -0.18352
     246 -> 247        0.68434
     245 <- 248       -0.11767
 This state for optimization and/or second-order correction.
 Total Energy, E(TD-HF/TD-DFT) =  -3007.81985309
 Copying the excited state density for this state as the 1-particle RhoCI density.

 Excited State   2:      Singlet-A      2.1202 eV  584.78 nm  f=0.1378  <S**2>=0.000
     245 -> 247        0.65050
     246 -> 248        0.26575

 Excited State   3:      Singlet-A      3.2824 eV  377.72 nm  f=0.0022  <S**2>=0.000
     242 -> 247        0.33754
     242 -> 249        0.21293
     242 -> 250       -0.15245
     243 -> 247        0.46925
     243 -> 249        0.20457
     243 -> 250       -0.13806

 Excited State   4:      Singlet-A      3.4879 eV  355.47 nm  f=0.0246  <S**2>=0.000
     242 -> 247        0.50784
     243 -> 247       -0.41974
     246 -> 248        0.17450

 Excited State   5:      Singlet-A      3.5635 eV  347.93 nm  f=0.3469  <S**2>=0.000
     241 -> 247       -0.37780
     243 -> 247        0.14283
     245 -> 247       -0.18721
     246 -> 248        0.53380

 The electronic state is 1-A.
 Alpha  occ. eigenvalues --  -46.94778 -19.30492 -19.29233 -19.25794 -19.25447
 Alpha  occ. eigenvalues --  -19.24881 -19.22863 -14.47093 -14.46647 -14.44191
 Alpha  occ. eigenvalues --  -14.44036 -10.43747 -10.43335 -10.40501 -10.37454
 Alpha  occ. eigenvalues --  -10.36422 -10.35486 -10.34965 -10.34765 -10.34631
 Alpha  occ. eigenvalues --  -10.34504 -10.34098 -10.33821 -10.33454 -10.32580
 Alpha  occ. eigenvalues --  -10.32491 -10.32469 -10.32421 -10.32193 -10.32009
 Alpha  occ. eigenvalues --  -10.31869 -10.31867 -10.31653 -10.31604 -10.31508
 Alpha  occ. eigenvalues --  -10.31456 -10.31176 -10.31151 -10.30933 -10.30772
 Alpha  occ. eigenvalues --  -10.30623 -10.30457 -10.30360 -10.30331 -10.30141
 Alpha  occ. eigenvalues --  -10.30131 -10.29973 -10.29951 -10.29849 -10.29837
 Alpha  occ. eigenvalues --  -10.29820 -10.29493 -10.29346 -10.29120 -10.28950
 Alpha  occ. eigenvalues --  -10.28946 -10.28812 -10.28777 -10.28622 -10.28569
 Alpha  occ. eigenvalues --  -10.28558 -10.28481 -10.28323 -10.28315 -10.27995
 Alpha  occ. eigenvalues --  -10.27373  -3.20822  -1.94420  -1.93931  -1.93819
 Alpha  occ. eigenvalues --   -1.18225  -1.16461  -1.11963  -1.10951  -1.10336
 Alpha  occ. eigenvalues --   -1.09464  -1.07157  -1.06068  -1.05460  -1.04594
 Alpha  occ. eigenvalues --   -0.94829  -0.93552  -0.92734  -0.91788  -0.91184
 Alpha  occ. eigenvalues --   -0.90736  -0.90038  -0.90011  -0.89748  -0.89004
 Alpha  occ. eigenvalues --   -0.88483  -0.87378  -0.86663  -0.85637  -0.84928
 Alpha  occ. eigenvalues --   -0.84558  -0.83688  -0.83361  -0.83006  -0.82120
 Alpha  occ. eigenvalues --   -0.82019  -0.80679  -0.80035  -0.79094  -0.78217
 Alpha  occ. eigenvalues --   -0.77813  -0.77302  -0.77239  -0.77114  -0.76707
 Alpha  occ. eigenvalues --   -0.75372  -0.74599  -0.73702  -0.72251  -0.71020
 Alpha  occ. eigenvalues --   -0.70762  -0.70336  -0.69062  -0.68655  -0.67891
 Alpha  occ. eigenvalues --   -0.67367  -0.66502  -0.66487  -0.66084  -0.65771
 Alpha  occ. eigenvalues --   -0.65743  -0.65535  -0.65190  -0.63704  -0.61990
 Alpha  occ. eigenvalues --   -0.61851  -0.61491  -0.60979  -0.60458  -0.59864
 Alpha  occ. eigenvalues --   -0.59289  -0.58541  -0.58308  -0.58143  -0.57179
 Alpha  occ. eigenvalues --   -0.57054  -0.56956  -0.56770  -0.56538  -0.56033
 Alpha  occ. eigenvalues --   -0.55629  -0.55489  -0.55384  -0.55258  -0.54980
 Alpha  occ. eigenvalues --   -0.54894  -0.54828  -0.54554  -0.54309  -0.54124
 Alpha  occ. eigenvalues --   -0.53615  -0.53397  -0.53366  -0.52935  -0.52651
 Alpha  occ. eigenvalues --   -0.52388  -0.52133  -0.51990  -0.51836  -0.51683
 Alpha  occ. eigenvalues --   -0.51431  -0.51373  -0.51043  -0.50850  -0.50705
 Alpha  occ. eigenvalues --   -0.50608  -0.50324  -0.50137  -0.50087  -0.50048
 Alpha  occ. eigenvalues --   -0.49523  -0.49417  -0.49354  -0.48933  -0.48709
 Alpha  occ. eigenvalues --   -0.48569  -0.48378  -0.48115  -0.48055  -0.47688
 Alpha  occ. eigenvalues --   -0.47596  -0.47485  -0.47381  -0.46746  -0.46494
 Alpha  occ. eigenvalues --   -0.46455  -0.46329  -0.46289  -0.46080  -0.46010
 Alpha  occ. eigenvalues --   -0.45879  -0.45719  -0.45542  -0.45494  -0.45222
 Alpha  occ. eigenvalues --   -0.45076  -0.44932  -0.44649  -0.44470  -0.44180
 Alpha  occ. eigenvalues --   -0.44161  -0.43966  -0.43455  -0.43196  -0.43012
 Alpha  occ. eigenvalues --   -0.43001  -0.42637  -0.42459  -0.42250  -0.41846
 Alpha  occ. eigenvalues --   -0.41535  -0.41327  -0.41024  -0.40926  -0.40734
 Alpha  occ. eigenvalues --   -0.40667  -0.40207  -0.40041  -0.39693  -0.39533
 Alpha  occ. eigenvalues --   -0.39367  -0.39099  -0.39070  -0.38577  -0.38529
 Alpha  occ. eigenvalues --   -0.38238  -0.37737  -0.37620  -0.36692  -0.36462
 Alpha  occ. eigenvalues --   -0.36372  -0.36261  -0.35116  -0.33675  -0.33338
 Alpha  occ. eigenvalues --   -0.32684  -0.32455  -0.32169  -0.31621  -0.25855
 Alpha  occ. eigenvalues --   -0.23080
 Alpha virt. eigenvalues --   -0.07329   0.00419   0.02195   0.04199   0.05829
 Alpha virt. eigenvalues --    0.06382   0.07067   0.07504   0.07940   0.09554
 Alpha virt. eigenvalues --    0.10346   0.11045   0.11299   0.12234   0.12531

 Mulliken charges:
               1
     1  Mg   0.977889
     2  C   -0.067746
     3  C   -0.073900
     4  C   -0.079730
     5  C   -0.085000
     6  N   -0.335228
     7  C   -0.033747
     8  C   -0.087633
     9  C   -0.110125
    10  C    0.063688
    11  C    0.047852
    12  C    0.024654
    13  C    0.049046
    14  C    0.180768
    15  O   -0.264185
    16  O   -0.393820
    17  N   -0.473392
    18  C    0.129850
    19  C   -0.137742
    20  C   -0.077448
    21  C    0.132919
    22  C    0.023881
    23  C    0.077862
    24  O   -0.241837
    25  C   -0.018879
    26  N   -0.386028
    27  C    0.043137
    28  C   -0.044788
    29  C   -0.095419
    30  C    0.089491
    31  C    0.010387
    32  C   -0.051099
    33  C   -0.057007
    34  N   -0.385493
    35  C    0.119059
    36  C   -0.159937
    37  C   -0.026044
    38  C    0.159223
    39  C    0.093211
    40  C    0.116974
    41  O   -0.227276
    42  C   -0.050152
    43  C    0.277786
    44  O   -0.233854
    45  O   -0.397733
    46  C    0.138993
    47  C    0.259713
    48  C   -0.156973
    49  C   -0.210609
    50  C    0.042594
    51  C    0.002889
    52  C   -0.036612
    53  C    0.069269
    54  C   -0.199263
    55  C    0.020433
    56  C    0.015624
    57  C   -0.041945
    58  C    0.007943
    59  C   -0.210270
    60  C    0.006112
    61  C    0.087994
    62  C   -0.110895
    63  C    0.041829
    64  C   -0.205418
    65  C   -0.014520
    66  C   -0.001284
    67  H    0.004619
    68  H    0.016345
    69  H   -0.010347
    70  H    0.050876
    71  H    0.030873
    72  H    0.037380
    73  H    0.044876
    74  H    0.042055
    75  H    0.028673
    76  H    0.065201
    77  H    0.044908
    78  H    0.066840
    79  H    0.018229
    80  H    0.040498
    81  H    0.052574
    82  H    0.074333
    83  H    0.045909
    84  H    0.069068
    85  H    0.044557
    86  H    0.047465
    87  H    0.046610
    88  H    0.044123
    89  H    0.043027
    90  H    0.038229
    91  H    0.039942
    92  H    0.048330
    93  H    0.032708
    94  H    0.035858
    95  H    0.021440
    96  H    0.065694
    97  H    0.062682
    98  H    0.082256
    99  H    0.048749
   100  H    0.057329
   101  H    0.044345
   102  H    0.058897
   103  H    0.066259
   104  H    0.041388
   105  H    0.043965
   106  H    0.019469
   107  H    0.060863
   108  H    0.026620
   109  H    0.022789
   110  H    0.020770
   111  H    0.030031
   112  H    0.019774
   113  H    0.014303
   114  H    0.009899
   115  H    0.019609
   116  H    0.022658
   117  H    0.027144
   118  H    0.011360
   119  H    0.008204
   120  H    0.022540
   121  H    0.014443
   122  H    0.018511
   123  H    0.017323
   124  H    0.013360
   125  H    0.026610
   126  H    0.039650
   127  H    0.011998
   128  H    0.020117
   129  H   -0.002277
   130  H    0.014595
   131  H    0.005000
   132  H    0.007605
   133  H    0.009408
   134  H    0.027001
   135  H    0.029304
   136  H    0.032240
   137  H    0.031520
   138  H    0.022008
   139  H    0.028005
   140  H    0.032734
 Sum of Mulliken charges =  -0.00000

 Dipole moment (field-independent basis, Debye):
    X=              5.4384    Y=              4.1734    Z=             -0.7356  Tot=              6.8945
 Quadrupole moment (field-independent basis, Debye-Ang):
   XX=           -373.6340   YY=           -440.5940   ZZ=           -401.5540
   XY=            -39.9011   XZ=             -2.6368   YZ=              3.1010

 Normal termination of Gaussian 16 at Wed May  4 19:48:44 2022.
