 Gaussian 16, Revision A.03,
 Gaussian 16:  ES64L-G16RevA.03 25-Dec-2016

 --------------------
 #p ZINDO=(nstates=5)
 --------------------

 -----------------------------
 step_351_chromophore_15 ZINDO
 -----------------------------
 Symbolic Z-matrix:
 Charge =  0 Multiplicity = 1

                         Standard orientation:
 ---------------------------------------------------------------------
 Center     Atomic      Atomic             Coordinates (Angstroms)
 Number     Number       Type             X           Y           Z
 ---------------------------------------------------------------------
      1         12           0       -4.577163    0.897315   -0.142100
      2          6           0       -4.340921   -2.517850    0.383300
      3          6           0       -1.189464    1.073081   -0.315007
      4          6           0       -4.904014    4.249988    0.010754
      5          6           0       -8.045055    0.605024    0.544231
      6          7           0       -3.010521   -0.572420    0.065285
      7          6           0       -3.133567   -1.901177    0.062043
      8          6           0       -1.688137   -2.627900   -0.179754
      9          6           0       -0.722106   -1.387236    0.066624
     10          6           0       -1.713775   -0.200136   -0.047496
     11          6           0        0.024284   -1.471602    1.430025
     12          6           0       -1.766735   -2.986509   -1.637905
     13          6           0       -0.552178   -3.670472   -2.319223
     14          6           0        0.602401   -4.039810   -1.419725
     15          8           0        0.488662   -4.708964   -0.407601
     16          8           0        1.793111   -3.577753   -1.986259
     17          7           0       -3.218931    2.430413   -0.231363
     18          6           0       -1.894996    2.311621   -0.416276
     19          6           0       -1.316526    3.618257   -0.494134
     20          6           0       -2.332611    4.582581   -0.355115
     21          6           0       -3.562566    3.782892   -0.121085
     22          6           0        0.166359    3.795094   -0.791053
     23          6           0       -2.295791    6.184350   -0.416588
     24          8           0       -3.290754    6.917958   -0.325259
     25          6           0       -0.961931    6.906131   -0.690205
     26          7           0       -6.185580    2.215250    0.226508
     27          6           0       -6.093846    3.595506    0.152338
     28          6           0       -7.371805    4.318699    0.464791
     29          6           0       -8.330667    3.107169    0.753319
     30          6           0       -7.502503    1.903585    0.439139
     31          6           0       -7.355088    5.438307    1.590002
     32          6           0       -9.631806    3.210447   -0.169881
     33          6           0      -11.023108    3.196141    0.564925
     34          7           0       -5.965311   -0.670258    0.224540
     35          6           0       -7.350901   -0.677792    0.438995
     36          6           0       -7.822962   -2.029246    0.664534
     37          6           0       -6.649126   -2.804213    0.660859
     38          6           0       -5.576555   -1.895948    0.326925
     39          6           0       -9.230886   -2.386380    0.876606
     40          6           0       -6.171018   -4.078980    0.862531
     41          8           0       -6.720924   -5.163415    1.100114
     42          6           0       -4.646302   -3.937611    0.892962
     43          6           0       -3.996196   -5.009213    0.044250
     44          8           0       -4.216967   -5.330538   -1.115603
     45          8           0       -3.110232   -5.650404    0.949674
     46          6           0       -2.186892   -6.661772    0.438544
     47          6           0        3.029036   -3.773198   -1.212670
     48          6           0        4.027352   -2.934960   -1.930671
     49          6           0        5.335187   -2.732445   -1.502551
     50          6           0        6.031438   -3.151776   -0.217268
     51          6           0        6.288793   -1.972345   -2.411171
     52          6           0        6.466818   -0.426440   -1.947543
     53          6           0        6.801197    0.466568   -3.160068
     54          6           0        7.731706    1.534318   -2.815571
     55          6           0        7.572010    2.741169   -3.687949
     56          6           0        9.215556    1.125946   -2.897180
     57          6           0       10.101982    1.927777   -1.872722
     58          6           0       10.601524    0.992060   -0.769088
     59          6           0       11.245742    1.790122    0.329736
     60          6           0       12.154978    3.003463   -0.109789
     61          6           0       11.908510    0.913845    1.405690
     62          6           0       11.256443    1.070813    2.684821
     63          6           0       10.297559    0.016723    3.159904
     64          6           0       10.072276    0.202828    4.683009
     65          6           0       10.663715   -0.952279    5.537486
     66          6           0        8.608166    0.504174    5.092310
     67          1           0       -0.110316    1.229559   -0.267933
     68          1           0       -5.028146    5.335262   -0.010156
     69          1           0       -9.108180    0.626112    0.790868
     70          1           0       -1.518882   -3.428309    0.541222
     71          1           0       -0.071520   -1.183518   -0.783552
     72          1           0       -0.427506   -2.278078    2.007134
     73          1           0       -0.025006   -0.565800    2.035148
     74          1           0        1.046941   -1.786730    1.225572
     75          1           0       -1.835379   -2.055335   -2.200532
     76          1           0       -2.685839   -3.529036   -1.859926
     77          1           0       -0.151322   -3.086448   -3.147214
     78          1           0       -0.778986   -4.630275   -2.783670
     79          1           0        0.322181    4.653533   -1.444094
     80          1           0        0.662156    3.040033   -1.401211
     81          1           0        0.864694    3.997279    0.020460
     82          1           0       -0.750024    6.685452   -1.736517
     83          1           0       -0.178393    6.427162   -0.103722
     84          1           0       -1.143943    7.935554   -0.382364
     85          1           0       -7.594797    4.804024   -0.485487
     86          1           0       -8.654548    3.104254    1.793291
     87          1           0       -6.388570    5.411162    2.094647
     88          1           0       -8.095056    5.423426    2.389273
     89          1           0       -7.433548    6.391190    1.067153
     90          1           0       -9.733694    2.268711   -0.708385
     91          1           0       -9.557897    4.107199   -0.784958
     92          1           0      -11.454862    4.178229    0.371820
     93          1           0      -10.832471    2.886169    1.592471
     94          1           0      -11.647164    2.417665    0.125943
     95          1           0       -9.817152   -1.535540    1.224957
     96          1           0       -9.297947   -3.163190    1.638656
     97          1           0       -9.688940   -2.637125   -0.079785
     98          1           0       -4.207166   -3.989834    1.889335
     99          1           0       -2.452918   -7.694545    0.662808
    100          1           0       -1.187856   -6.584269    0.867179
    101          1           0       -2.098846   -6.506452   -0.636413
    102          1           0        3.367090   -4.794850   -1.385034
    103          1           0        2.799664   -3.558921   -0.169185
    104          1           0        3.720319   -2.511673   -2.886987
    105          1           0        6.804941   -3.871005   -0.485202
    106          1           0        5.330805   -3.734446    0.380772
    107          1           0        6.442184   -2.343197    0.387494
    108          1           0        5.860506   -2.170962   -3.394296
    109          1           0        7.285650   -2.410123   -2.460407
    110          1           0        7.325121   -0.320634   -1.284510
    111          1           0        5.587169   -0.052774   -1.423823
    112          1           0        5.889425    0.853108   -3.615559
    113          1           0        7.377790   -0.217715   -3.782327
    114          1           0        7.646726    1.896664   -1.790738
    115          1           0        7.891701    2.536521   -4.709875
    116          1           0        8.238362    3.516341   -3.307518
    117          1           0        6.516078    3.009576   -3.700933
    118          1           0        9.564208    1.302249   -3.914048
    119          1           0        9.421984    0.081398   -2.664758
    120          1           0        9.639746    2.835392   -1.483921
    121          1           0       10.991385    2.237252   -2.419407
    122          1           0       11.364798    0.321804   -1.163963
    123          1           0        9.790693    0.377411   -0.378207
    124          1           0       10.430590    2.326316    0.813505
    125          1           0       12.990017    2.960230    0.590553
    126          1           0       11.716876    3.991263   -0.254685
    127          1           0       12.566088    2.762629   -1.090312
    128          1           0       12.975462    1.036221    1.593307
    129          1           0       11.786135   -0.116037    1.070270
    130          1           0       10.698767    2.006675    2.725921
    131          1           0       11.983607    1.126238    3.495655
    132          1           0       10.804801   -0.906986    2.880764
    133          1           0        9.439211    0.198287    2.512081
    134          1           0       10.682699    1.046726    5.003584
    135          1           0       10.308966   -0.757551    6.549437
    136          1           0       11.749489   -0.933946    5.449339
    137          1           0       10.285185   -1.936444    5.262197
    138          1           0        8.001516    0.876648    4.266537
    139          1           0        8.616324    1.325940    5.806971
    140          1           0        8.156026   -0.387167    5.527381
 ---------------------------------------------------------------------

 SCF Done:  E(RZINDO/S) =  -474.407290470     A.U. after   19 cycles

 Excitation energies and oscillator strengths:

 Excited State   1:      Singlet-A      1.2321 eV 1006.24 nm  f=0.6288  <S**2>=0.000
     175 ->178        -0.19154
     176 ->177         0.66261
 This state for optimization and/or second-order correction.
 Total Energy, E(CIS/TDA) =  -474.362009870
 Copying the excited state density for this state as the 1-particle RhoCI density.

 Excited State   2:      Singlet-A      1.8921 eV  655.26 nm  f=0.0752  <S**2>=0.000
     175 ->177         0.57022
     176 ->178         0.38746

 Excited State   3:      Singlet-A      2.8299 eV  438.12 nm  f=0.0127  <S**2>=0.000
     169 ->177         0.34408
     169 ->178        -0.14534
     169 ->179        -0.31640
     169 ->180         0.21633
     169 ->186        -0.13886
     169 ->187         0.11618
     170 ->177         0.20881
     170 ->179        -0.18453
     170 ->180         0.11973

 Excited State   4:      Singlet-A      2.9612 eV  418.70 nm  f=0.6211  <S**2>=0.000
     171 ->177         0.10339
     173 ->177         0.10109
     175 ->177        -0.29182
     176 ->178         0.50431
     176 ->179         0.30831

 Excited State   5:      Singlet-A      3.0784 eV  402.75 nm  f=0.0044  <S**2>=0.000
     168 ->177         0.23146
     168 ->179         0.35077
     168 ->180         0.41603
     168 ->186         0.24623
     168 ->187         0.10640

 The electronic state is 1-A.
 Alpha  occ. eigenvalues --   -1.86132  -1.81102  -1.80657  -1.72982  -1.70562
 Alpha  occ. eigenvalues --   -1.69865  -1.69537  -1.65342  -1.58269  -1.56695
 Alpha  occ. eigenvalues --   -1.55895  -1.53280  -1.49430  -1.47087  -1.46654
 Alpha  occ. eigenvalues --   -1.45214  -1.42047  -1.41326  -1.40050  -1.38174
 Alpha  occ. eigenvalues --   -1.36585  -1.34782  -1.33692  -1.32012  -1.27746
 Alpha  occ. eigenvalues --   -1.27375  -1.24666  -1.22746  -1.21129  -1.19212
 Alpha  occ. eigenvalues --   -1.17942  -1.15565  -1.14947  -1.14692  -1.13999
 Alpha  occ. eigenvalues --   -1.12660  -1.11809  -1.10613  -1.05252  -1.04011
 Alpha  occ. eigenvalues --   -1.02501  -1.01137  -0.99354  -0.98139  -0.96150
 Alpha  occ. eigenvalues --   -0.94896  -0.94715  -0.94086  -0.92733  -0.92181
 Alpha  occ. eigenvalues --   -0.91181  -0.90274  -0.88903  -0.87741  -0.86643
 Alpha  occ. eigenvalues --   -0.85913  -0.85344  -0.83259  -0.82211  -0.80438
 Alpha  occ. eigenvalues --   -0.79680  -0.79189  -0.78704  -0.76640  -0.76097
 Alpha  occ. eigenvalues --   -0.74976  -0.74720  -0.74308  -0.74078  -0.73405
 Alpha  occ. eigenvalues --   -0.72543  -0.72238  -0.71707  -0.71184  -0.70966
 Alpha  occ. eigenvalues --   -0.70711  -0.69224  -0.68818  -0.68687  -0.68162
 Alpha  occ. eigenvalues --   -0.67897  -0.67339  -0.66565  -0.66395  -0.65422
 Alpha  occ. eigenvalues --   -0.64947  -0.64913  -0.64545  -0.64271  -0.63651
 Alpha  occ. eigenvalues --   -0.63400  -0.63322  -0.62788  -0.62010  -0.61643
 Alpha  occ. eigenvalues --   -0.61336  -0.61282  -0.60437  -0.59826  -0.59411
 Alpha  occ. eigenvalues --   -0.59322  -0.59168  -0.58551  -0.58492  -0.58342
 Alpha  occ. eigenvalues --   -0.58062  -0.57985  -0.57761  -0.57115  -0.56520
 Alpha  occ. eigenvalues --   -0.55785  -0.55090  -0.54883  -0.54775  -0.54394
 Alpha  occ. eigenvalues --   -0.54200  -0.53747  -0.53409  -0.53297  -0.53173
 Alpha  occ. eigenvalues --   -0.52627  -0.52541  -0.52173  -0.52011  -0.51826
 Alpha  occ. eigenvalues --   -0.51663  -0.50681  -0.50619  -0.50399  -0.50232
 Alpha  occ. eigenvalues --   -0.50025  -0.49911  -0.49819  -0.49722  -0.49041
 Alpha  occ. eigenvalues --   -0.48845  -0.48605  -0.48394  -0.47991  -0.47846
 Alpha  occ. eigenvalues --   -0.47601  -0.47502  -0.47204  -0.47011  -0.46384
 Alpha  occ. eigenvalues --   -0.46187  -0.46131  -0.45551  -0.45388  -0.45217
 Alpha  occ. eigenvalues --   -0.44881  -0.44814  -0.44616  -0.44485  -0.44079
 Alpha  occ. eigenvalues --   -0.43800  -0.43510  -0.43068  -0.42724  -0.42436
 Alpha  occ. eigenvalues --   -0.41505  -0.41038  -0.40616  -0.39321  -0.38941
 Alpha  occ. eigenvalues --   -0.38164  -0.37283  -0.35593  -0.34950  -0.34627
 Alpha  occ. eigenvalues --   -0.33365  -0.33032  -0.32498  -0.31668  -0.26591
 Alpha  occ. eigenvalues --   -0.21936
 Alpha virt. eigenvalues --   -0.08817  -0.02011  -0.00536   0.01281   0.01866
 Alpha virt. eigenvalues --    0.02196   0.02595   0.03013   0.03932   0.04728
 Alpha virt. eigenvalues --    0.06222   0.06698   0.06890   0.07854   0.07924

 Mulliken charges:
               1
     1  Mg   0.423606
     2  C   -0.057860
     3  C   -0.087969
     4  C   -0.050957
     5  C   -0.076842
     6  N   -0.269924
     7  C    0.131961
     8  C    0.007501
     9  C   -0.005214
    10  C    0.119864
    11  C   -0.047772
    12  C   -0.009148
    13  C    0.002633
    14  C    0.468038
    15  O   -0.525121
    16  O   -0.287479
    17  N   -0.313374
    18  C    0.106694
    19  C    0.002743
    20  C   -0.046428
    21  C    0.107415
    22  C   -0.052211
    23  C    0.319335
    24  O   -0.518678
    25  C   -0.031362
    26  N   -0.273062
    27  C    0.123507
    28  C    0.001214
    29  C    0.002617
    30  C    0.135884
    31  C   -0.054380
    32  C   -0.051136
    33  C   -0.066899
    34  N   -0.312051
    35  C    0.081108
    36  C    0.058924
    37  C   -0.056287
    38  C    0.140470
    39  C   -0.031394
    40  C    0.339643
    41  O   -0.533319
    42  C    0.056811
    43  C    0.485136
    44  O   -0.507038
    45  O   -0.284677
    46  C    0.070139
    47  C    0.107710
    48  C   -0.093583
    49  C   -0.019830
    50  C   -0.039590
    51  C   -0.034256
    52  C   -0.037546
    53  C   -0.028415
    54  C   -0.002415
    55  C   -0.054741
    56  C   -0.042820
    57  C   -0.043862
    58  C   -0.022221
    59  C   -0.014096
    60  C   -0.066486
    61  C   -0.026432
    62  C   -0.030495
    63  C   -0.035259
    64  C   -0.013158
    65  C   -0.056891
    66  C   -0.056815
    67  H    0.027117
    68  H    0.039481
    69  H    0.027478
    70  H    0.057333
    71  H    0.032482
    72  H    0.023059
    73  H    0.028086
    74  H    0.022754
    75  H    0.019142
    76  H    0.039613
    77  H    0.029592
    78  H    0.049109
    79  H    0.010799
    80  H    0.021561
    81  H    0.031207
    82  H    0.048160
    83  H    0.029267
    84  H    0.050065
    85  H    0.036611
    86  H    0.039512
    87  H    0.023891
    88  H    0.026573
    89  H    0.021740
    90  H    0.024949
    91  H    0.030446
    92  H    0.028022
    93  H    0.026104
    94  H    0.017900
    95  H    0.018582
    96  H    0.039791
    97  H    0.042693
    98  H    0.063112
    99  H    0.041094
   100  H    0.036998
   101  H    0.042871
   102  H    0.051989
   103  H    0.060099
   104  H    0.044166
   105  H    0.028741
   106  H    0.011740
   107  H    0.037345
   108  H    0.022315
   109  H    0.021900
   110  H    0.023129
   111  H    0.023287
   112  H    0.023800
   113  H    0.021605
   114  H    0.015310
   115  H    0.016589
   116  H    0.016361
   117  H    0.014223
   118  H    0.016164
   119  H    0.014992
   120  H    0.027946
   121  H    0.013851
   122  H    0.017784
   123  H    0.017753
   124  H    0.011090
   125  H    0.019768
   126  H    0.029599
   127  H    0.010978
   128  H    0.020916
   129  H    0.009462
   130  H    0.010701
   131  H    0.004503
   132  H    0.020800
   133  H    0.020729
   134  H    0.019353
   135  H    0.016207
   136  H    0.020166
   137  H    0.018944
   138  H    0.015850
   139  H    0.016300
   140  H    0.022895
 Sum of Mulliken charges =  -0.00000

 Dipole moment (field-independent basis, Debye):
    X=              6.8459    Y=              4.5182    Z=             -0.8893  Tot=              8.2506
 N-N= 4.400004753044D+03 E-N= 0.000000000000D+00  KE=-9.474229520123D+03
 Leave Link  601 at Wed May  4 20:07:59 2022, MaxMem=  6710886400 cpu:               0.7 elap:               0.0
 (Enter /sw/apps/gaussian-16.0/g16/l9999.exe)
 1\1\GINC-BP1-COMPUTE155\SP\RZINDO CIS\STO-3G\C55H74Mg1N4O6\OF15641\04-
 May-2022\0\\#p ZINDO=(nstates=5)\\step_351_chromophore_15 ZINDO\\0,1\M
 g,0,46.415,34.945,28.372\C,0,44.86,32.833,30.634\C,0,46.579,37.343,30.
 772\C,0,47.307,37.097,25.934\C,0,45.728,32.521,25.875\N,0,45.74,35.032
 ,30.42\C,0,45.336,34.019,31.189\C,0,45.319,34.446,32.768\C,0,45.451,36
 .025,32.618\C,0,45.941,36.153,31.152\C,0,44.116,36.768,32.916\C,0,46.5
 97,33.829,33.265\C,0,47.015,34.034,34.745\C,0,46.027,34.757,35.628\O,0

 Normal termination of Gaussian 16 at Wed May  4 20:07:59 2022.
