 Gaussian 16, Revision A.03,
 Gaussian 16:  ES64L-G16RevA.03 25-Dec-2016

 ------------------------------
 #p blyp/Def2SVP td=(nstates=5)
 ------------------------------

 --------------------------------------------------
 step_1501_chromophore_8 TDDFT with blyp functional
 --------------------------------------------------
 Symbolic Z-matrix:
 Charge =  0 Multiplicity = 1

                         Standard orientation:
 ---------------------------------------------------------------------
 Center     Atomic      Atomic             Coordinates (Angstroms)
 Number     Number       Type             X           Y           Z
 ---------------------------------------------------------------------
      1         12           0        4.538586    1.271645    0.109920
      2          6           0        4.222332   -2.237425    0.707996
      3          6           0        4.107267    0.439808   -3.316833
      4          6           0        4.215497    4.290233   -0.368187
      5          6           0        4.280394    1.669740    3.715162
      6          7           0        4.301799   -0.767926   -1.110347
      7          6           0        4.286608   -2.062646   -0.606020
      8          6           0        4.353619   -3.068837   -1.770627
      9          6           0        4.514414   -2.096669   -3.093789
     10          6           0        4.385225   -0.717539   -2.486224
     11          6           0        5.824289   -2.221094   -3.875241
     12          6           0        3.158969   -4.075615   -1.814598
     13          6           0        1.800014   -3.697747   -1.156673
     14          6           0        0.559207   -3.524019   -2.033816
     15          8           0        0.558584   -2.973048   -3.100247
     16          8           0       -0.541428   -4.037470   -1.442045
     17          7           0        4.036822    2.221528   -1.592478
     18          6           0        3.981032    1.785416   -2.887612
     19          6           0        3.675054    2.952836   -3.699770
     20          6           0        3.592030    4.075696   -2.864575
     21          6           0        3.933831    3.588308   -1.547196
     22          6           0        3.267141    2.776071   -5.139658
     23          6           0        3.258145    5.420598   -3.444806
     24          8           0        3.056630    5.581214   -4.661140
     25          6           0        3.273911    6.604709   -2.559582
     26          7           0        4.326760    2.696987    1.472251
     27          6           0        4.331302    3.926609    0.996453
     28          6           0        4.743043    4.984290    2.055687
     29          6           0        4.171452    4.171571    3.387169
     30          6           0        4.277849    2.755596    2.860603
     31          6           0        6.262219    5.181526    2.130861
     32          6           0        2.674940    4.566924    3.798304
     33          6           0        2.416618    5.498903    5.036409
     34          7           0        4.520033    0.036028    1.889665
     35          6           0        4.284930    0.325474    3.246133
     36          6           0        4.183651   -0.796972    4.058117
     37          6           0        4.221308   -1.850296    3.092651
     38          6           0        4.347623   -1.287613    1.788006
     39          6           0        4.015285   -0.845498    5.511729
     40          6           0        4.122382   -3.317568    2.948977
     41          8           0        3.945678   -4.166701    3.840986
     42          6           0        4.133557   -3.607214    1.376076
     43          6           0        5.391439   -4.388428    1.144524
     44          8           0        6.504273   -4.053566    1.404086
     45          8           0        5.083123   -5.695440    0.737916
     46          6           0        6.128803   -6.809103    0.634433
     47          6           0       -1.819418   -4.034685   -2.156049
     48          6           0       -2.641709   -2.859559   -1.541467
     49          6           0       -3.519817   -2.988550   -0.505572
     50          6           0       -3.551698   -4.188658    0.467317
     51          6           0       -4.147967   -1.739142    0.031154
     52          6           0       -5.322498   -1.129695   -0.688489
     53          6           0       -5.340432    0.392216   -0.900129
     54          6           0       -6.289793    0.807113   -2.114229
     55          6           0       -5.555501    1.667713   -3.165693
     56          6           0       -7.676607    1.272419   -1.586617
     57          6           0       -8.454241    0.125128   -0.946657
     58          6           0       -8.585049    0.377736    0.589229
     59          6           0       -9.940490    0.899822    1.086497
     60          6           0       -9.652979    1.846184    2.294584
     61          6           0      -10.920410   -0.202188    1.344406
     62          6           0      -11.927295   -0.488893    0.222797
     63          6           0      -13.300414   -0.768071    0.775558
     64          6           0      -14.097616    0.559773    0.987481
     65          6           0      -14.977221    0.926111   -0.251622
     66          6           0      -14.749066    0.685660    2.384089
     67          1           0        3.975105    0.242814   -4.382306
     68          1           0        4.422646    5.344370   -0.565046
     69          1           0        4.228582    1.916719    4.777579
     70          1           0        5.293111   -3.612682   -1.664698
     71          1           0        3.717004   -2.263821   -3.816383
     72          1           0        6.370263   -3.156950   -3.753132
     73          1           0        6.524242   -1.452789   -3.546462
     74          1           0        5.512260   -2.053853   -4.905745
     75          1           0        3.363392   -5.031147   -1.332880
     76          1           0        2.919433   -4.275919   -2.859000
     77          1           0        1.992402   -2.803014   -0.563478
     78          1           0        1.581401   -4.437413   -0.385849
     79          1           0        2.328976    3.327959   -5.192950
     80          1           0        2.963892    1.759457   -5.393006
     81          1           0        4.043793    3.173538   -5.792325
     82          1           0        4.239079    6.971081   -2.208855
     83          1           0        2.814543    6.159689   -1.676724
     84          1           0        2.771936    7.491269   -2.949300
     85          1           0        4.190790    5.912037    1.907333
     86          1           0        4.858031    4.289746    4.225632
     87          1           0        6.648816    4.647604    2.998716
     88          1           0        6.440755    6.256726    2.105113
     89          1           0        6.662350    4.768331    1.204651
     90          1           0        2.296626    3.571674    4.030872
     91          1           0        2.315732    5.015718    2.872509
     92          1           0        3.345850    5.551577    5.603875
     93          1           0        1.750364    5.018196    5.752586
     94          1           0        1.963053    6.462883    4.802651
     95          1           0        4.835029   -0.453234    6.113363
     96          1           0        3.880261   -1.853250    5.902871
     97          1           0        3.154218   -0.260823    5.836143
     98          1           0        3.239003   -4.179540    1.129203
     99          1           0        7.058419   -6.411796    0.226451
    100          1           0        5.584447   -7.546630    0.045054
    101          1           0        6.267359   -7.206203    1.640100
    102          1           0       -2.486529   -4.890359   -2.055180
    103          1           0       -1.765091   -3.761760   -3.210529
    104          1           0       -2.725950   -1.909445   -2.068437
    105          1           0       -2.571927   -4.662118    0.531003
    106          1           0       -4.320653   -4.889356    0.144368
    107          1           0       -3.842005   -3.765703    1.429240
    108          1           0       -3.381437   -0.966186    0.069302
    109          1           0       -4.419175   -1.907745    1.073778
    110          1           0       -6.151437   -1.345880   -0.015236
    111          1           0       -5.503570   -1.651707   -1.628467
    112          1           0       -4.297945    0.694881   -1.000105
    113          1           0       -5.725717    0.877463   -0.002361
    114          1           0       -6.502962   -0.113491   -2.658682
    115          1           0       -5.636851    1.169943   -4.132065
    116          1           0       -4.477516    1.671338   -3.000212
    117          1           0       -5.988593    2.645752   -3.372838
    118          1           0       -8.293227    1.637928   -2.408333
    119          1           0       -7.475991    1.990765   -0.792599
    120          1           0       -7.979291   -0.825793   -1.187694
    121          1           0       -9.463222    0.072053   -1.355239
    122          1           0       -7.766836    0.979652    0.984599
    123          1           0       -8.413892   -0.556084    1.125425
    124          1           0      -10.263684    1.440450    0.197286
    125          1           0       -8.783578    1.692093    2.934151
    126          1           0      -10.541813    1.926426    2.919918
    127          1           0       -9.545556    2.852354    1.890302
    128          1           0      -11.505835   -0.007802    2.243097
    129          1           0      -10.459008   -1.188852    1.389396
    130          1           0      -11.620333   -1.402230   -0.288611
    131          1           0      -11.919466    0.276139   -0.553750
    132          1           0      -13.196235   -1.305700    1.718752
    133          1           0      -13.897066   -1.527546    0.270283
    134          1           0      -13.384519    1.383934    0.981403
    135          1           0      -14.581174    1.748048   -0.847986
    136          1           0      -15.911090    1.268672    0.195114
    137          1           0      -15.116787    0.099245   -0.947121
    138          1           0      -14.824698    1.731442    2.681613
    139          1           0      -14.218098    0.122759    3.151794
    140          1           0      -15.761151    0.285379    2.334922
 ---------------------------------------------------------------------

 SCF Done:  E(RB-LYP) =  -3007.35839499     A.U. after   21 cycles

 Excitation energies and oscillator strengths:

 Excited State   1:      Singlet-A      1.7376 eV  713.56 nm  f=0.0112  <S**2>=0.000
     244 -> 247        0.66098
     245 -> 247        0.19999
     246 -> 247        0.14441
 This state for optimization and/or second-order correction.
 Total Energy, E(TD-HF/TD-DFT) =  -3007.29454111
 Copying the excited state density for this state as the 1-particle RhoCI density.

 Excited State   2:      Singlet-A      1.7982 eV  689.49 nm  f=0.2317  <S**2>=0.000
     243 -> 247        0.24323
     244 -> 247       -0.15086
     245 -> 248       -0.15749
     246 -> 247        0.63137
     246 <- 247       -0.13263

 Excited State   3:      Singlet-A      1.8276 eV  678.40 nm  f=0.0401  <S**2>=0.000
     243 -> 247        0.66098
     246 -> 247       -0.23958

 Excited State   4:      Singlet-A      2.0509 eV  604.55 nm  f=0.0972  <S**2>=0.000
     244 -> 247       -0.18838
     245 -> 247        0.61892
     246 -> 248        0.23798

 Excited State   5:      Singlet-A      2.1861 eV  567.14 nm  f=0.0004  <S**2>=0.000
     241 -> 247        0.70467

 The electronic state is 1-A.
 Alpha  occ. eigenvalues --  -46.27315 -18.82185 -18.80399 -18.76401 -18.76348
 Alpha  occ. eigenvalues --  -18.75362 -18.75358 -14.03259 -14.03144 -14.01394
 Alpha  occ. eigenvalues --  -14.00550 -10.03858 -10.03304  -9.99953  -9.99415
 Alpha  occ. eigenvalues --   -9.98134  -9.98081  -9.97181  -9.97106  -9.96742
 Alpha  occ. eigenvalues --   -9.96133  -9.95989  -9.95889  -9.94690  -9.94671
 Alpha  occ. eigenvalues --   -9.94585  -9.94531  -9.94291  -9.93944  -9.93915
 Alpha  occ. eigenvalues --   -9.93819  -9.93769  -9.93546  -9.93339  -9.93029
 Alpha  occ. eigenvalues --   -9.93006  -9.92939  -9.92864  -9.92719  -9.92702
 Alpha  occ. eigenvalues --   -9.92699  -9.92629  -9.92552  -9.92387  -9.91996
 Alpha  occ. eigenvalues --   -9.91962  -9.91935  -9.91799  -9.91782  -9.91585
 Alpha  occ. eigenvalues --   -9.91540  -9.91318  -9.91136  -9.91020  -9.90950
 Alpha  occ. eigenvalues --   -9.90915  -9.90861  -9.90843  -9.90832  -9.90793
 Alpha  occ. eigenvalues --   -9.90775  -9.90687  -9.90662  -9.90542  -9.90473
 Alpha  occ. eigenvalues --   -9.90435  -2.92093  -1.72492  -1.72053  -1.71752
 Alpha  occ. eigenvalues --   -0.98454  -0.96420  -0.90571  -0.90456  -0.89572
 Alpha  occ. eigenvalues --   -0.88600  -0.87296  -0.86095  -0.85477  -0.84330
 Alpha  occ. eigenvalues --   -0.75142  -0.73692  -0.73183  -0.72349  -0.71869
 Alpha  occ. eigenvalues --   -0.71562  -0.71490  -0.70972  -0.70503  -0.70368
 Alpha  occ. eigenvalues --   -0.70178  -0.69203  -0.68124  -0.67421  -0.67124
 Alpha  occ. eigenvalues --   -0.66472  -0.66220  -0.65482  -0.64857  -0.64817
 Alpha  occ. eigenvalues --   -0.64244  -0.62384  -0.62225  -0.61786  -0.60654
 Alpha  occ. eigenvalues --   -0.60182  -0.60149  -0.59992  -0.59675  -0.58812
 Alpha  occ. eigenvalues --   -0.58322  -0.57848  -0.56713  -0.55295  -0.54773
 Alpha  occ. eigenvalues --   -0.53628  -0.53387  -0.52917  -0.52192  -0.51685
 Alpha  occ. eigenvalues --   -0.51291  -0.50773  -0.50665  -0.50285  -0.49718
 Alpha  occ. eigenvalues --   -0.49694  -0.49058  -0.48895  -0.47340  -0.46748
 Alpha  occ. eigenvalues --   -0.46037  -0.45605  -0.45414  -0.44668  -0.44502
 Alpha  occ. eigenvalues --   -0.44433  -0.43726  -0.43391  -0.42680  -0.42220
 Alpha  occ. eigenvalues --   -0.42115  -0.41679  -0.41435  -0.41245  -0.40930
 Alpha  occ. eigenvalues --   -0.40889  -0.40525  -0.40216  -0.40073  -0.39872
 Alpha  occ. eigenvalues --   -0.39482  -0.39385  -0.39310  -0.39246  -0.38880
 Alpha  occ. eigenvalues --   -0.38613  -0.38569  -0.38360  -0.38272  -0.38235
 Alpha  occ. eigenvalues --   -0.38008  -0.37791  -0.37614  -0.37507  -0.37107
 Alpha  occ. eigenvalues --   -0.36960  -0.36845  -0.36520  -0.36405  -0.36344
 Alpha  occ. eigenvalues --   -0.36165  -0.36095  -0.35780  -0.35627  -0.35584
 Alpha  occ. eigenvalues --   -0.35458  -0.35315  -0.35045  -0.34765  -0.34556
 Alpha  occ. eigenvalues --   -0.34509  -0.34311  -0.34058  -0.33970  -0.33723
 Alpha  occ. eigenvalues --   -0.33586  -0.33363  -0.33326  -0.33166  -0.33039
 Alpha  occ. eigenvalues --   -0.32964  -0.32860  -0.32824  -0.32515  -0.32339
 Alpha  occ. eigenvalues --   -0.31997  -0.31843  -0.31684  -0.31569  -0.31425
 Alpha  occ. eigenvalues --   -0.31390  -0.31308  -0.30974  -0.30680  -0.30532
 Alpha  occ. eigenvalues --   -0.30334  -0.30231  -0.30051  -0.29885  -0.29534
 Alpha  occ. eigenvalues --   -0.29425  -0.29355  -0.29118  -0.28823  -0.28767
 Alpha  occ. eigenvalues --   -0.28608  -0.28524  -0.28103  -0.27592  -0.27241
 Alpha  occ. eigenvalues --   -0.26960  -0.26903  -0.26763  -0.26292  -0.26157
 Alpha  occ. eigenvalues --   -0.26062  -0.25733  -0.25482  -0.25295  -0.25183
 Alpha  occ. eigenvalues --   -0.24679  -0.24375  -0.24231  -0.23970  -0.23848
 Alpha  occ. eigenvalues --   -0.23190  -0.22574  -0.21996  -0.21571  -0.21139
 Alpha  occ. eigenvalues --   -0.19934  -0.19912  -0.18529  -0.18243  -0.17598
 Alpha  occ. eigenvalues --   -0.16215
 Alpha virt. eigenvalues --   -0.11902  -0.07161  -0.06085  -0.04748  -0.03278
 Alpha virt. eigenvalues --   -0.03137  -0.02104  -0.01649  -0.01418   0.00054
 Alpha virt. eigenvalues --    0.01151   0.01542   0.02460   0.02996   0.03248

 Mulliken charges:
               1
     1  Mg   0.702272
     2  C    0.039749
     3  C   -0.047063
     4  C   -0.074287
     5  C   -0.100282
     6  N   -0.199823
     7  C   -0.172055
     8  C    0.129900
     9  C   -0.033917
    10  C    0.025830
    11  C    0.122570
    12  C    0.108730
    13  C    0.061231
    14  C    0.062112
    15  O   -0.171784
    16  O   -0.244647
    17  N   -0.331145
    18  C    0.128186
    19  C   -0.159485
    20  C    0.050920
    21  C    0.158086
    22  C    0.199225
    23  C   -0.063303
    24  O   -0.182545
    25  C    0.117651
    26  N   -0.247774
    27  C    0.026543
    28  C   -0.031776
    29  C   -0.018120
    30  C    0.039117
    31  C    0.170356
    32  C    0.096206
    33  C    0.080358
    34  N   -0.231541
    35  C    0.132805
    36  C   -0.146328
    37  C    0.066304
    38  C    0.109601
    39  C    0.178279
    40  C   -0.036675
    41  O   -0.155407
    42  C    0.036437
    43  C    0.108429
    44  O   -0.145960
    45  O   -0.327239
    46  C    0.212020
    47  C    0.341604
    48  C   -0.135705
    49  C   -0.158238
    50  C    0.130727
    51  C    0.146391
    52  C    0.043688
    53  C    0.090378
    54  C   -0.088617
    55  C    0.130398
    56  C    0.134676
    57  C    0.069521
    58  C    0.052544
    59  C   -0.045164
    60  C    0.103699
    61  C    0.145995
    62  C    0.050547
    63  C    0.111548
    64  C   -0.097862
    65  C    0.111724
    66  C    0.100936
    67  H   -0.053614
    68  H   -0.071394
    69  H   -0.062293
    70  H   -0.021523
    71  H   -0.005609
    72  H   -0.004169
    73  H   -0.008301
    74  H    0.000360
    75  H   -0.012670
    76  H   -0.016528
    77  H    0.023826
    78  H   -0.004865
    79  H    0.009385
    80  H   -0.015888
    81  H    0.010653
    82  H    0.024445
    83  H   -0.003863
    84  H   -0.003102
    85  H   -0.034430
    86  H   -0.036016
    87  H    0.007191
    88  H   -0.001598
    89  H   -0.011050
    90  H   -0.016725
    91  H   -0.009337
    92  H   -0.017013
    93  H   -0.011944
    94  H    0.005319
    95  H   -0.010491
    96  H    0.001042
    97  H   -0.011702
    98  H   -0.007575
    99  H    0.030918
   100  H    0.023488
   101  H    0.027466
   102  H    0.003959
   103  H   -0.004681
   104  H   -0.026357
   105  H    0.018395
   106  H    0.001818
   107  H   -0.011271
   108  H   -0.025132
   109  H   -0.046443
   110  H   -0.021316
   111  H   -0.024071
   112  H   -0.033686
   113  H   -0.033518
   114  H   -0.036382
   115  H   -0.032198
   116  H   -0.018670
   117  H   -0.018379
   118  H   -0.039522
   119  H   -0.026643
   120  H   -0.030111
   121  H   -0.034536
   122  H   -0.035692
   123  H   -0.049713
   124  H   -0.040079
   125  H   -0.002344
   126  H   -0.028582
   127  H   -0.023945
   128  H   -0.030132
   129  H   -0.033218
   130  H   -0.042267
   131  H   -0.029638
   132  H   -0.056573
   133  H   -0.046886
   134  H   -0.033422
   135  H   -0.015869
   136  H   -0.024756
   137  H   -0.013338
   138  H   -0.015357
   139  H   -0.011658
   140  H   -0.020731
 Sum of Mulliken charges =  -0.00000

 Dipole moment (field-independent basis, Debye):
    X=             -0.2303    Y=              1.4480    Z=              0.8643  Tot=              1.7020
 Quadrupole moment (field-independent basis, Debye-Ang):
   XX=           -390.7664   YY=           -388.1629   ZZ=           -420.6333
   XY=             14.7211   XZ=             -6.7828   YZ=             44.6748

 Normal termination of Gaussian 16 at Wed May  4 08:58:18 2022.
