 Gaussian 16, Revision A.03,
 Gaussian 16:  ES64L-G16RevA.03 25-Dec-2016

 -----------------------------------
 #p cam-b3lyp/Def2SVP td=(nstates=5)
 -----------------------------------

 -------------------------------------------------------
 step_1501_chromophore_8 TDDFT with cam-b3lyp functional
 -------------------------------------------------------
 Symbolic Z-matrix:
 Charge =  0 Multiplicity = 1

                         Standard orientation:
 ---------------------------------------------------------------------
 Center     Atomic      Atomic             Coordinates (Angstroms)
 Number     Number       Type             X           Y           Z
 ---------------------------------------------------------------------
      1         12           0        4.538586    1.271645    0.109920
      2          6           0        4.222332   -2.237425    0.707996
      3          6           0        4.107267    0.439808   -3.316833
      4          6           0        4.215497    4.290233   -0.368187
      5          6           0        4.280394    1.669740    3.715162
      6          7           0        4.301799   -0.767926   -1.110347
      7          6           0        4.286608   -2.062646   -0.606020
      8          6           0        4.353619   -3.068837   -1.770627
      9          6           0        4.514414   -2.096669   -3.093789
     10          6           0        4.385225   -0.717539   -2.486224
     11          6           0        5.824289   -2.221094   -3.875241
     12          6           0        3.158969   -4.075615   -1.814598
     13          6           0        1.800014   -3.697747   -1.156673
     14          6           0        0.559207   -3.524019   -2.033816
     15          8           0        0.558584   -2.973048   -3.100247
     16          8           0       -0.541428   -4.037470   -1.442045
     17          7           0        4.036822    2.221528   -1.592478
     18          6           0        3.981032    1.785416   -2.887612
     19          6           0        3.675054    2.952836   -3.699770
     20          6           0        3.592030    4.075696   -2.864575
     21          6           0        3.933831    3.588308   -1.547196
     22          6           0        3.267141    2.776071   -5.139658
     23          6           0        3.258145    5.420598   -3.444806
     24          8           0        3.056630    5.581214   -4.661140
     25          6           0        3.273911    6.604709   -2.559582
     26          7           0        4.326760    2.696987    1.472251
     27          6           0        4.331302    3.926609    0.996453
     28          6           0        4.743043    4.984290    2.055687
     29          6           0        4.171452    4.171571    3.387169
     30          6           0        4.277849    2.755596    2.860603
     31          6           0        6.262219    5.181526    2.130861
     32          6           0        2.674940    4.566924    3.798304
     33          6           0        2.416618    5.498903    5.036409
     34          7           0        4.520033    0.036028    1.889665
     35          6           0        4.284930    0.325474    3.246133
     36          6           0        4.183651   -0.796972    4.058117
     37          6           0        4.221308   -1.850296    3.092651
     38          6           0        4.347623   -1.287613    1.788006
     39          6           0        4.015285   -0.845498    5.511729
     40          6           0        4.122382   -3.317568    2.948977
     41          8           0        3.945678   -4.166701    3.840986
     42          6           0        4.133557   -3.607214    1.376076
     43          6           0        5.391439   -4.388428    1.144524
     44          8           0        6.504273   -4.053566    1.404086
     45          8           0        5.083123   -5.695440    0.737916
     46          6           0        6.128803   -6.809103    0.634433
     47          6           0       -1.819418   -4.034685   -2.156049
     48          6           0       -2.641709   -2.859559   -1.541467
     49          6           0       -3.519817   -2.988550   -0.505572
     50          6           0       -3.551698   -4.188658    0.467317
     51          6           0       -4.147967   -1.739142    0.031154
     52          6           0       -5.322498   -1.129695   -0.688489
     53          6           0       -5.340432    0.392216   -0.900129
     54          6           0       -6.289793    0.807113   -2.114229
     55          6           0       -5.555501    1.667713   -3.165693
     56          6           0       -7.676607    1.272419   -1.586617
     57          6           0       -8.454241    0.125128   -0.946657
     58          6           0       -8.585049    0.377736    0.589229
     59          6           0       -9.940490    0.899822    1.086497
     60          6           0       -9.652979    1.846184    2.294584
     61          6           0      -10.920410   -0.202188    1.344406
     62          6           0      -11.927295   -0.488893    0.222797
     63          6           0      -13.300414   -0.768071    0.775558
     64          6           0      -14.097616    0.559773    0.987481
     65          6           0      -14.977221    0.926111   -0.251622
     66          6           0      -14.749066    0.685660    2.384089
     67          1           0        3.975105    0.242814   -4.382306
     68          1           0        4.422646    5.344370   -0.565046
     69          1           0        4.228582    1.916719    4.777579
     70          1           0        5.293111   -3.612682   -1.664698
     71          1           0        3.717004   -2.263821   -3.816383
     72          1           0        6.370263   -3.156950   -3.753132
     73          1           0        6.524242   -1.452789   -3.546462
     74          1           0        5.512260   -2.053853   -4.905745
     75          1           0        3.363392   -5.031147   -1.332880
     76          1           0        2.919433   -4.275919   -2.859000
     77          1           0        1.992402   -2.803014   -0.563478
     78          1           0        1.581401   -4.437413   -0.385849
     79          1           0        2.328976    3.327959   -5.192950
     80          1           0        2.963892    1.759457   -5.393006
     81          1           0        4.043793    3.173538   -5.792325
     82          1           0        4.239079    6.971081   -2.208855
     83          1           0        2.814543    6.159689   -1.676724
     84          1           0        2.771936    7.491269   -2.949300
     85          1           0        4.190790    5.912037    1.907333
     86          1           0        4.858031    4.289746    4.225632
     87          1           0        6.648816    4.647604    2.998716
     88          1           0        6.440755    6.256726    2.105113
     89          1           0        6.662350    4.768331    1.204651
     90          1           0        2.296626    3.571674    4.030872
     91          1           0        2.315732    5.015718    2.872509
     92          1           0        3.345850    5.551577    5.603875
     93          1           0        1.750364    5.018196    5.752586
     94          1           0        1.963053    6.462883    4.802651
     95          1           0        4.835029   -0.453234    6.113363
     96          1           0        3.880261   -1.853250    5.902871
     97          1           0        3.154218   -0.260823    5.836143
     98          1           0        3.239003   -4.179540    1.129203
     99          1           0        7.058419   -6.411796    0.226451
    100          1           0        5.584447   -7.546630    0.045054
    101          1           0        6.267359   -7.206203    1.640100
    102          1           0       -2.486529   -4.890359   -2.055180
    103          1           0       -1.765091   -3.761760   -3.210529
    104          1           0       -2.725950   -1.909445   -2.068437
    105          1           0       -2.571927   -4.662118    0.531003
    106          1           0       -4.320653   -4.889356    0.144368
    107          1           0       -3.842005   -3.765703    1.429240
    108          1           0       -3.381437   -0.966186    0.069302
    109          1           0       -4.419175   -1.907745    1.073778
    110          1           0       -6.151437   -1.345880   -0.015236
    111          1           0       -5.503570   -1.651707   -1.628467
    112          1           0       -4.297945    0.694881   -1.000105
    113          1           0       -5.725717    0.877463   -0.002361
    114          1           0       -6.502962   -0.113491   -2.658682
    115          1           0       -5.636851    1.169943   -4.132065
    116          1           0       -4.477516    1.671338   -3.000212
    117          1           0       -5.988593    2.645752   -3.372838
    118          1           0       -8.293227    1.637928   -2.408333
    119          1           0       -7.475991    1.990765   -0.792599
    120          1           0       -7.979291   -0.825793   -1.187694
    121          1           0       -9.463222    0.072053   -1.355239
    122          1           0       -7.766836    0.979652    0.984599
    123          1           0       -8.413892   -0.556084    1.125425
    124          1           0      -10.263684    1.440450    0.197286
    125          1           0       -8.783578    1.692093    2.934151
    126          1           0      -10.541813    1.926426    2.919918
    127          1           0       -9.545556    2.852354    1.890302
    128          1           0      -11.505835   -0.007802    2.243097
    129          1           0      -10.459008   -1.188852    1.389396
    130          1           0      -11.620333   -1.402230   -0.288611
    131          1           0      -11.919466    0.276139   -0.553750
    132          1           0      -13.196235   -1.305700    1.718752
    133          1           0      -13.897066   -1.527546    0.270283
    134          1           0      -13.384519    1.383934    0.981403
    135          1           0      -14.581174    1.748048   -0.847986
    136          1           0      -15.911090    1.268672    0.195114
    137          1           0      -15.116787    0.099245   -0.947121
    138          1           0      -14.824698    1.731442    2.681613
    139          1           0      -14.218098    0.122759    3.151794
    140          1           0      -15.761151    0.285379    2.334922
 ---------------------------------------------------------------------

 SCF Done:  E(RCAM-B3LYP) =  -3007.15358313     A.U. after   17 cycles

 Excitation energies and oscillator strengths:

 Excited State   1:      Singlet-A      1.7815 eV  695.94 nm  f=0.3409  <S**2>=0.000
     245 -> 248        0.15756
     246 -> 247        0.68903
 This state for optimization and/or second-order correction.
 Total Energy, E(TD-HF/TD-DFT) =  -3007.08811248
 Copying the excited state density for this state as the 1-particle RhoCI density.

 Excited State   2:      Singlet-A      2.2642 eV  547.59 nm  f=0.1297  <S**2>=0.000
     245 -> 247        0.64427
     246 -> 248       -0.26747

 Excited State   3:      Singlet-A      3.2313 eV  383.69 nm  f=0.0093  <S**2>=0.000
     241 -> 247       -0.15271
     244 -> 247        0.67139

 Excited State   4:      Singlet-A      3.4045 eV  364.18 nm  f=0.0202  <S**2>=0.000
     240 -> 247        0.16372
     240 -> 249        0.16977
     241 -> 247        0.54996
     241 -> 249        0.12701
     244 -> 247        0.12036
     246 -> 248        0.24239

 Excited State   5:      Singlet-A      3.4904 eV  355.21 nm  f=0.0081  <S**2>=0.000
     240 -> 247       -0.13377
     242 -> 247        0.56338
     242 -> 249       -0.21633
     242 -> 251        0.25150

 The electronic state is 1-A.
 Alpha  occ. eigenvalues --  -46.88910 -19.24970 -19.23152 -19.19330 -19.19300
 Alpha  occ. eigenvalues --  -19.19049 -19.17860 -14.42268 -14.42039 -14.40166
 Alpha  occ. eigenvalues --  -14.38536 -10.39033 -10.38612 -10.35616 -10.34279
 Alpha  occ. eigenvalues --  -10.32242 -10.32210 -10.32187 -10.32098 -10.32062
 Alpha  occ. eigenvalues --  -10.31036 -10.30061 -10.29970 -10.29296 -10.28788
 Alpha  occ. eigenvalues --  -10.28709 -10.28451 -10.28178 -10.28176 -10.28153
 Alpha  occ. eigenvalues --  -10.28059 -10.27964 -10.27708 -10.27677 -10.27180
 Alpha  occ. eigenvalues --  -10.26946 -10.26825 -10.26774 -10.26729 -10.26690
 Alpha  occ. eigenvalues --  -10.26419 -10.26332 -10.26279 -10.26111 -10.26076
 Alpha  occ. eigenvalues --  -10.25881 -10.25569 -10.25545 -10.25487 -10.25237
 Alpha  occ. eigenvalues --  -10.25201 -10.25037 -10.24835 -10.24619 -10.24526
 Alpha  occ. eigenvalues --  -10.24478 -10.24459 -10.24439 -10.24436 -10.24377
 Alpha  occ. eigenvalues --  -10.24301 -10.24290 -10.24217 -10.24143 -10.24136
 Alpha  occ. eigenvalues --  -10.24024  -3.17596  -1.92466  -1.92122  -1.91849
 Alpha  occ. eigenvalues --   -1.16881  -1.14887  -1.09397  -1.08283  -1.07305
 Alpha  occ. eigenvalues --   -1.06304  -1.05119  -1.04184  -1.02776  -1.01732
 Alpha  occ. eigenvalues --   -0.92030  -0.90551  -0.89972  -0.89169  -0.88566
 Alpha  occ. eigenvalues --   -0.88268  -0.88135  -0.87625  -0.87488  -0.87035
 Alpha  occ. eigenvalues --   -0.86388  -0.85555  -0.84367  -0.83538  -0.83338
 Alpha  occ. eigenvalues --   -0.82681  -0.82412  -0.81442  -0.80714  -0.80482
 Alpha  occ. eigenvalues --   -0.80001  -0.78016  -0.77724  -0.77547  -0.75876
 Alpha  occ. eigenvalues --   -0.75496  -0.75477  -0.75277  -0.74956  -0.74033
 Alpha  occ. eigenvalues --   -0.73318  -0.72787  -0.71718  -0.70165  -0.69275
 Alpha  occ. eigenvalues --   -0.68419  -0.68045  -0.67279  -0.66545  -0.65719
 Alpha  occ. eigenvalues --   -0.65401  -0.64939  -0.64776  -0.64126  -0.63711
 Alpha  occ. eigenvalues --   -0.63472  -0.63007  -0.62797  -0.60840  -0.60743
 Alpha  occ. eigenvalues --   -0.59588  -0.59086  -0.58894  -0.58024  -0.57867
 Alpha  occ. eigenvalues --   -0.57748  -0.57140  -0.56664  -0.55872  -0.55314
 Alpha  occ. eigenvalues --   -0.55048  -0.54470  -0.54318  -0.54111  -0.53794
 Alpha  occ. eigenvalues --   -0.53461  -0.53361  -0.53012  -0.52925  -0.52715
 Alpha  occ. eigenvalues --   -0.52436  -0.52362  -0.52182  -0.51915  -0.51443
 Alpha  occ. eigenvalues --   -0.51277  -0.51048  -0.50890  -0.50801  -0.50653
 Alpha  occ. eigenvalues --   -0.50392  -0.50305  -0.49911  -0.49660  -0.49248
 Alpha  occ. eigenvalues --   -0.49178  -0.49134  -0.48959  -0.48560  -0.48455
 Alpha  occ. eigenvalues --   -0.48259  -0.48235  -0.48166  -0.47792  -0.47735
 Alpha  occ. eigenvalues --   -0.47647  -0.47303  -0.47182  -0.46763  -0.46670
 Alpha  occ. eigenvalues --   -0.46350  -0.46232  -0.46052  -0.45634  -0.45527
 Alpha  occ. eigenvalues --   -0.45392  -0.45173  -0.44999  -0.44898  -0.44782
 Alpha  occ. eigenvalues --   -0.44608  -0.44539  -0.44414  -0.44272  -0.44018
 Alpha  occ. eigenvalues --   -0.43780  -0.43456  -0.43238  -0.43096  -0.43036
 Alpha  occ. eigenvalues --   -0.42790  -0.42718  -0.42434  -0.42109  -0.41786
 Alpha  occ. eigenvalues --   -0.41691  -0.41618  -0.41309  -0.41207  -0.41084
 Alpha  occ. eigenvalues --   -0.41030  -0.40645  -0.40380  -0.40312  -0.39923
 Alpha  occ. eigenvalues --   -0.39774  -0.39591  -0.39074  -0.38421  -0.38310
 Alpha  occ. eigenvalues --   -0.38069  -0.37630  -0.37550  -0.37052  -0.36887
 Alpha  occ. eigenvalues --   -0.36839  -0.36376  -0.36156  -0.36099  -0.35954
 Alpha  occ. eigenvalues --   -0.35764  -0.35411  -0.35162  -0.34429  -0.34218
 Alpha  occ. eigenvalues --   -0.34107  -0.33758  -0.33167  -0.31885  -0.31449
 Alpha  occ. eigenvalues --   -0.30843  -0.29635  -0.29496  -0.28460  -0.24551
 Alpha  occ. eigenvalues --   -0.21664
 Alpha virt. eigenvalues --   -0.08948  -0.01857   0.00295   0.01801   0.02433
 Alpha virt. eigenvalues --    0.04117   0.05113   0.06217   0.06405   0.06988
 Alpha virt. eigenvalues --    0.07688   0.08489   0.08573   0.09260   0.09606

 Mulliken charges:
               1
     1  Mg   0.835047
     2  C    0.010530
     3  C   -0.059006
     4  C   -0.109934
     5  C   -0.094536
     6  N   -0.260007
     7  C   -0.145291
     8  C    0.088385
     9  C   -0.089092
    10  C    0.048518
    11  C    0.064161
    12  C    0.051822
    13  C   -0.011700
    14  C    0.150602
    15  O   -0.215322
    16  O   -0.310466
    17  N   -0.424656
    18  C    0.138940
    19  C   -0.148550
    20  C   -0.025808
    21  C    0.199227
    22  C    0.136019
    23  C    0.019175
    24  O   -0.220235
    25  C    0.035086
    26  N   -0.323122
    27  C    0.053895
    28  C   -0.083795
    29  C   -0.066633
    30  C    0.042450
    31  C    0.110777
    32  C    0.044404
    33  C    0.018311
    34  N   -0.315964
    35  C    0.124197
    36  C   -0.145734
    37  C   -0.014802
    38  C    0.146855
    39  C    0.120541
    40  C    0.058979
    41  O   -0.199973
    42  C   -0.039570
    43  C    0.198593
    44  O   -0.181340
    45  O   -0.395075
    46  C    0.178618
    47  C    0.296541
    48  C   -0.144417
    49  C   -0.176021
    50  C    0.066749
    51  C    0.081558
    52  C   -0.008496
    53  C    0.038123
    54  C   -0.144325
    55  C    0.071030
    56  C    0.083262
    57  C    0.012220
    58  C    0.004282
    59  C   -0.104191
    60  C    0.046619
    61  C    0.090402
    62  C   -0.002193
    63  C    0.053308
    64  C   -0.159549
    65  C    0.053810
    66  C    0.044308
    67  H   -0.015803
    68  H   -0.036743
    69  H   -0.026069
    70  H    0.013128
    71  H    0.030140
    72  H    0.022869
    73  H    0.018019
    74  H    0.023562
    75  H    0.020087
    76  H    0.015022
    77  H    0.056379
    78  H    0.029563
    79  H    0.039976
    80  H    0.014150
    81  H    0.041631
    82  H    0.053195
    83  H    0.022837
    84  H    0.033714
    85  H    0.000393
    86  H   -0.001854
    87  H    0.033204
    88  H    0.023326
    89  H    0.013292
    90  H    0.013752
    91  H    0.013325
    92  H    0.005640
    93  H    0.012378
    94  H    0.027195
    95  H    0.013242
    96  H    0.028472
    97  H    0.011099
    98  H    0.034887
    99  H    0.053159
   100  H    0.045086
   101  H    0.049554
   102  H    0.032630
   103  H    0.030090
   104  H    0.002713
   105  H    0.043019
   106  H    0.025567
   107  H    0.013749
   108  H    0.006625
   109  H   -0.014647
   110  H    0.003185
   111  H    0.003687
   112  H   -0.005897
   113  H   -0.007035
   114  H   -0.004878
   115  H   -0.007313
   116  H    0.005777
   117  H    0.006421
   118  H   -0.009013
   119  H    0.000755
   120  H   -0.000462
   121  H   -0.006454
   122  H   -0.009214
   123  H   -0.020975
   124  H   -0.008788
   125  H    0.020995
   126  H   -0.004170
   127  H    0.001141
   128  H   -0.003637
   129  H   -0.002992
   130  H   -0.012037
   131  H   -0.004328
   132  H   -0.025299
   133  H   -0.015662
   134  H   -0.003194
   135  H    0.007999
   136  H   -0.000455
   137  H    0.010174
   138  H    0.008990
   139  H    0.011095
   140  H    0.002490
 Sum of Mulliken charges =  -0.00000

 Dipole moment (field-independent basis, Debye):
    X=             -0.1855    Y=              2.2833    Z=             -0.5721  Tot=              2.3612
 Quadrupole moment (field-independent basis, Debye-Ang):
   XX=           -390.3754   YY=           -382.1942   ZZ=           -419.8807
   XY=             17.9983   XZ=            -12.9961   YZ=             45.0453

 Normal termination of Gaussian 16 at Wed May  4 08:00:59 2022.
