 Gaussian 16, Revision A.03,
 Gaussian 16:  ES64L-G16RevA.03 25-Dec-2016

 ---------------------------------
 #p PBE1PBE/Def2SVP td=(nstates=5)
 ---------------------------------

 -----------------------------------------------------
 step_1501_chromophore_8 TDDFT with PBE1PBE functional
 -----------------------------------------------------
 Symbolic Z-matrix:
 Charge =  0 Multiplicity = 1

                         Standard orientation:
 ---------------------------------------------------------------------
 Center     Atomic      Atomic             Coordinates (Angstroms)
 Number     Number       Type             X           Y           Z
 ---------------------------------------------------------------------
      1         12           0        4.538586    1.271645    0.109920
      2          6           0        4.222332   -2.237425    0.707996
      3          6           0        4.107267    0.439808   -3.316833
      4          6           0        4.215497    4.290233   -0.368187
      5          6           0        4.280394    1.669740    3.715162
      6          7           0        4.301799   -0.767926   -1.110347
      7          6           0        4.286608   -2.062646   -0.606020
      8          6           0        4.353619   -3.068837   -1.770627
      9          6           0        4.514414   -2.096669   -3.093789
     10          6           0        4.385225   -0.717539   -2.486224
     11          6           0        5.824289   -2.221094   -3.875241
     12          6           0        3.158969   -4.075615   -1.814598
     13          6           0        1.800014   -3.697747   -1.156673
     14          6           0        0.559207   -3.524019   -2.033816
     15          8           0        0.558584   -2.973048   -3.100247
     16          8           0       -0.541428   -4.037470   -1.442045
     17          7           0        4.036822    2.221528   -1.592478
     18          6           0        3.981032    1.785416   -2.887612
     19          6           0        3.675054    2.952836   -3.699770
     20          6           0        3.592030    4.075696   -2.864575
     21          6           0        3.933831    3.588308   -1.547196
     22          6           0        3.267141    2.776071   -5.139658
     23          6           0        3.258145    5.420598   -3.444806
     24          8           0        3.056630    5.581214   -4.661140
     25          6           0        3.273911    6.604709   -2.559582
     26          7           0        4.326760    2.696987    1.472251
     27          6           0        4.331302    3.926609    0.996453
     28          6           0        4.743043    4.984290    2.055687
     29          6           0        4.171452    4.171571    3.387169
     30          6           0        4.277849    2.755596    2.860603
     31          6           0        6.262219    5.181526    2.130861
     32          6           0        2.674940    4.566924    3.798304
     33          6           0        2.416618    5.498903    5.036409
     34          7           0        4.520033    0.036028    1.889665
     35          6           0        4.284930    0.325474    3.246133
     36          6           0        4.183651   -0.796972    4.058117
     37          6           0        4.221308   -1.850296    3.092651
     38          6           0        4.347623   -1.287613    1.788006
     39          6           0        4.015285   -0.845498    5.511729
     40          6           0        4.122382   -3.317568    2.948977
     41          8           0        3.945678   -4.166701    3.840986
     42          6           0        4.133557   -3.607214    1.376076
     43          6           0        5.391439   -4.388428    1.144524
     44          8           0        6.504273   -4.053566    1.404086
     45          8           0        5.083123   -5.695440    0.737916
     46          6           0        6.128803   -6.809103    0.634433
     47          6           0       -1.819418   -4.034685   -2.156049
     48          6           0       -2.641709   -2.859559   -1.541467
     49          6           0       -3.519817   -2.988550   -0.505572
     50          6           0       -3.551698   -4.188658    0.467317
     51          6           0       -4.147967   -1.739142    0.031154
     52          6           0       -5.322498   -1.129695   -0.688489
     53          6           0       -5.340432    0.392216   -0.900129
     54          6           0       -6.289793    0.807113   -2.114229
     55          6           0       -5.555501    1.667713   -3.165693
     56          6           0       -7.676607    1.272419   -1.586617
     57          6           0       -8.454241    0.125128   -0.946657
     58          6           0       -8.585049    0.377736    0.589229
     59          6           0       -9.940490    0.899822    1.086497
     60          6           0       -9.652979    1.846184    2.294584
     61          6           0      -10.920410   -0.202188    1.344406
     62          6           0      -11.927295   -0.488893    0.222797
     63          6           0      -13.300414   -0.768071    0.775558
     64          6           0      -14.097616    0.559773    0.987481
     65          6           0      -14.977221    0.926111   -0.251622
     66          6           0      -14.749066    0.685660    2.384089
     67          1           0        3.975105    0.242814   -4.382306
     68          1           0        4.422646    5.344370   -0.565046
     69          1           0        4.228582    1.916719    4.777579
     70          1           0        5.293111   -3.612682   -1.664698
     71          1           0        3.717004   -2.263821   -3.816383
     72          1           0        6.370263   -3.156950   -3.753132
     73          1           0        6.524242   -1.452789   -3.546462
     74          1           0        5.512260   -2.053853   -4.905745
     75          1           0        3.363392   -5.031147   -1.332880
     76          1           0        2.919433   -4.275919   -2.859000
     77          1           0        1.992402   -2.803014   -0.563478
     78          1           0        1.581401   -4.437413   -0.385849
     79          1           0        2.328976    3.327959   -5.192950
     80          1           0        2.963892    1.759457   -5.393006
     81          1           0        4.043793    3.173538   -5.792325
     82          1           0        4.239079    6.971081   -2.208855
     83          1           0        2.814543    6.159689   -1.676724
     84          1           0        2.771936    7.491269   -2.949300
     85          1           0        4.190790    5.912037    1.907333
     86          1           0        4.858031    4.289746    4.225632
     87          1           0        6.648816    4.647604    2.998716
     88          1           0        6.440755    6.256726    2.105113
     89          1           0        6.662350    4.768331    1.204651
     90          1           0        2.296626    3.571674    4.030872
     91          1           0        2.315732    5.015718    2.872509
     92          1           0        3.345850    5.551577    5.603875
     93          1           0        1.750364    5.018196    5.752586
     94          1           0        1.963053    6.462883    4.802651
     95          1           0        4.835029   -0.453234    6.113363
     96          1           0        3.880261   -1.853250    5.902871
     97          1           0        3.154218   -0.260823    5.836143
     98          1           0        3.239003   -4.179540    1.129203
     99          1           0        7.058419   -6.411796    0.226451
    100          1           0        5.584447   -7.546630    0.045054
    101          1           0        6.267359   -7.206203    1.640100
    102          1           0       -2.486529   -4.890359   -2.055180
    103          1           0       -1.765091   -3.761760   -3.210529
    104          1           0       -2.725950   -1.909445   -2.068437
    105          1           0       -2.571927   -4.662118    0.531003
    106          1           0       -4.320653   -4.889356    0.144368
    107          1           0       -3.842005   -3.765703    1.429240
    108          1           0       -3.381437   -0.966186    0.069302
    109          1           0       -4.419175   -1.907745    1.073778
    110          1           0       -6.151437   -1.345880   -0.015236
    111          1           0       -5.503570   -1.651707   -1.628467
    112          1           0       -4.297945    0.694881   -1.000105
    113          1           0       -5.725717    0.877463   -0.002361
    114          1           0       -6.502962   -0.113491   -2.658682
    115          1           0       -5.636851    1.169943   -4.132065
    116          1           0       -4.477516    1.671338   -3.000212
    117          1           0       -5.988593    2.645752   -3.372838
    118          1           0       -8.293227    1.637928   -2.408333
    119          1           0       -7.475991    1.990765   -0.792599
    120          1           0       -7.979291   -0.825793   -1.187694
    121          1           0       -9.463222    0.072053   -1.355239
    122          1           0       -7.766836    0.979652    0.984599
    123          1           0       -8.413892   -0.556084    1.125425
    124          1           0      -10.263684    1.440450    0.197286
    125          1           0       -8.783578    1.692093    2.934151
    126          1           0      -10.541813    1.926426    2.919918
    127          1           0       -9.545556    2.852354    1.890302
    128          1           0      -11.505835   -0.007802    2.243097
    129          1           0      -10.459008   -1.188852    1.389396
    130          1           0      -11.620333   -1.402230   -0.288611
    131          1           0      -11.919466    0.276139   -0.553750
    132          1           0      -13.196235   -1.305700    1.718752
    133          1           0      -13.897066   -1.527546    0.270283
    134          1           0      -13.384519    1.383934    0.981403
    135          1           0      -14.581174    1.748048   -0.847986
    136          1           0      -15.911090    1.268672    0.195114
    137          1           0      -15.116787    0.099245   -0.947121
    138          1           0      -14.824698    1.731442    2.681613
    139          1           0      -14.218098    0.122759    3.151794
    140          1           0      -15.761151    0.285379    2.334922
 ---------------------------------------------------------------------

 SCF Done:  E(RPBE1PBE) =  -3005.34078493     A.U. after   16 cycles

 Excitation energies and oscillator strengths:

 Excited State   1:      Singlet-A      1.8610 eV  666.22 nm  f=0.3282  <S**2>=0.000
     245 -> 248       -0.15894
     246 -> 247        0.69416
     246 <- 247       -0.10176
 This state for optimization and/or second-order correction.
 Total Energy, E(TD-HF/TD-DFT) =  -3005.27239358
 Copying the excited state density for this state as the 1-particle RhoCI density.

 Excited State   2:      Singlet-A      2.2560 eV  549.57 nm  f=0.1247  <S**2>=0.000
     245 -> 247        0.65353
     246 -> 248        0.24985

 Excited State   3:      Singlet-A      2.7693 eV  447.71 nm  f=0.0062  <S**2>=0.000
     242 -> 247        0.19778
     244 -> 247        0.66212

 Excited State   4:      Singlet-A      2.8846 eV  429.82 nm  f=0.0026  <S**2>=0.000
     242 -> 247        0.65335
     244 -> 247       -0.20462

 Excited State   5:      Singlet-A      2.9689 eV  417.60 nm  f=0.0009  <S**2>=0.000
     241 -> 247        0.66194
     241 -> 249        0.14704

 The electronic state is 1-A.
 Alpha  occ. eigenvalues --  -46.92275 -19.25644 -19.23923 -19.19607 -19.19525
 Alpha  occ. eigenvalues --  -19.18981 -19.18537 -14.41646 -14.41590 -14.39617
 Alpha  occ. eigenvalues --  -14.38486 -10.36012 -10.35719 -10.32448 -10.31835
 Alpha  occ. eigenvalues --  -10.29629 -10.29572 -10.29567 -10.29381 -10.29165
 Alpha  occ. eigenvalues --  -10.28174 -10.28088 -10.28031 -10.26625 -10.26502
 Alpha  occ. eigenvalues --  -10.26352 -10.26324 -10.26288 -10.26160 -10.25887
 Alpha  occ. eigenvalues --  -10.25840 -10.25831 -10.25558 -10.24975 -10.24811
 Alpha  occ. eigenvalues --  -10.24695 -10.24483 -10.24379 -10.24373 -10.24287
 Alpha  occ. eigenvalues --  -10.24278 -10.24189 -10.23614 -10.23585 -10.23420
 Alpha  occ. eigenvalues --  -10.23279 -10.23163 -10.22960 -10.22950 -10.22918
 Alpha  occ. eigenvalues --  -10.22830 -10.22788 -10.22531 -10.22407 -10.22171
 Alpha  occ. eigenvalues --  -10.22015 -10.21994 -10.21933 -10.21915 -10.21858
 Alpha  occ. eigenvalues --  -10.21818 -10.21816 -10.21815 -10.21723 -10.21560
 Alpha  occ. eigenvalues --  -10.21500  -3.14537  -1.87348  -1.86983  -1.86715
 Alpha  occ. eigenvalues --   -1.11678  -1.09714  -1.03810  -1.03129  -1.02430
 Alpha  occ. eigenvalues --   -1.01232  -0.99655  -0.98551  -0.97607  -0.96480
 Alpha  occ. eigenvalues --   -0.86515  -0.84629  -0.84100  -0.83408  -0.82690
 Alpha  occ. eigenvalues --   -0.82426  -0.82391  -0.81892  -0.81455  -0.81154
 Alpha  occ. eigenvalues --   -0.81009  -0.79848  -0.78545  -0.77744  -0.77561
 Alpha  occ. eigenvalues --   -0.76793  -0.76612  -0.75696  -0.74976  -0.74836
 Alpha  occ. eigenvalues --   -0.74186  -0.72288  -0.71984  -0.71797  -0.70338
 Alpha  occ. eigenvalues --   -0.69691  -0.69577  -0.69570  -0.69083  -0.68206
 Alpha  occ. eigenvalues --   -0.67785  -0.67147  -0.66080  -0.64428  -0.63666
 Alpha  occ. eigenvalues --   -0.62656  -0.62277  -0.61818  -0.60776  -0.60204
 Alpha  occ. eigenvalues --   -0.59834  -0.59289  -0.59228  -0.58739  -0.57939
 Alpha  occ. eigenvalues --   -0.57806  -0.57192  -0.56984  -0.55509  -0.55083
 Alpha  occ. eigenvalues --   -0.54128  -0.53651  -0.53338  -0.52538  -0.52480
 Alpha  occ. eigenvalues --   -0.52302  -0.51611  -0.51198  -0.50302  -0.49889
 Alpha  occ. eigenvalues --   -0.49395  -0.49065  -0.48905  -0.48544  -0.48309
 Alpha  occ. eigenvalues --   -0.47989  -0.47809  -0.47533  -0.47465  -0.47240
 Alpha  occ. eigenvalues --   -0.46905  -0.46762  -0.46565  -0.46400  -0.46049
 Alpha  occ. eigenvalues --   -0.45915  -0.45546  -0.45453  -0.45262  -0.45160
 Alpha  occ. eigenvalues --   -0.45057  -0.44851  -0.44446  -0.44164  -0.43978
 Alpha  occ. eigenvalues --   -0.43761  -0.43666  -0.43514  -0.43160  -0.43096
 Alpha  occ. eigenvalues --   -0.42984  -0.42909  -0.42788  -0.42330  -0.42314
 Alpha  occ. eigenvalues --   -0.42287  -0.41966  -0.41743  -0.41511  -0.41283
 Alpha  occ. eigenvalues --   -0.40991  -0.40879  -0.40596  -0.40405  -0.40296
 Alpha  occ. eigenvalues --   -0.40252  -0.39813  -0.39769  -0.39598  -0.39497
 Alpha  occ. eigenvalues --   -0.39387  -0.39331  -0.39168  -0.38960  -0.38858
 Alpha  occ. eigenvalues --   -0.38510  -0.38151  -0.38031  -0.37835  -0.37766
 Alpha  occ. eigenvalues --   -0.37579  -0.37481  -0.37201  -0.36966  -0.36735
 Alpha  occ. eigenvalues --   -0.36504  -0.36411  -0.36241  -0.36003  -0.35876
 Alpha  occ. eigenvalues --   -0.35824  -0.35477  -0.35237  -0.35073  -0.34849
 Alpha  occ. eigenvalues --   -0.34698  -0.34381  -0.33909  -0.33247  -0.33233
 Alpha  occ. eigenvalues --   -0.33006  -0.32692  -0.32397  -0.31924  -0.31811
 Alpha  occ. eigenvalues --   -0.31687  -0.31225  -0.31190  -0.30931  -0.30794
 Alpha  occ. eigenvalues --   -0.30754  -0.30356  -0.30046  -0.29424  -0.29300
 Alpha  occ. eigenvalues --   -0.29016  -0.28765  -0.28606  -0.27328  -0.26443
 Alpha  occ. eigenvalues --   -0.25684  -0.24964  -0.24800  -0.24492  -0.21363
 Alpha  occ. eigenvalues --   -0.19209
 Alpha virt. eigenvalues --   -0.11496  -0.05450  -0.03841  -0.02147  -0.00919
 Alpha virt. eigenvalues --   -0.00262   0.00735   0.01498   0.01947   0.02983
 Alpha virt. eigenvalues --    0.04079   0.04264   0.05227   0.06001   0.06247

 Mulliken charges:
               1
     1  Mg   0.982797
     2  C   -0.025549
     3  C   -0.045366
     4  C   -0.106188
     5  C   -0.077292
     6  N   -0.356517
     7  C   -0.074623
     8  C    0.029530
     9  C   -0.168076
    10  C    0.084529
    11  C    0.009916
    12  C   -0.001433
    13  C   -0.092099
    14  C    0.228553
    15  O   -0.249771
    16  O   -0.342844
    17  N   -0.538849
    18  C    0.159287
    19  C   -0.175755
    20  C   -0.074735
    21  C    0.221070
    22  C    0.074040
    23  C    0.070085
    24  O   -0.257063
    25  C   -0.035772
    26  N   -0.428467
    27  C    0.078477
    28  C   -0.156791
    29  C   -0.137729
    30  C    0.073507
    31  C    0.054880
    32  C   -0.013617
    33  C   -0.053443
    34  N   -0.437263
    35  C    0.134514
    36  C   -0.154690
    37  C   -0.070824
    38  C    0.218163
    39  C    0.066313
    40  C    0.155556
    41  O   -0.240961
    42  C   -0.145443
    43  C    0.296230
    44  O   -0.218157
    45  O   -0.427700
    46  C    0.124488
    47  C    0.241275
    48  C   -0.149807
    49  C   -0.208626
    50  C   -0.001302
    51  C    0.017788
    52  C   -0.076415
    53  C   -0.015093
    54  C   -0.229963
    55  C    0.012232
    56  C    0.022920
    57  C   -0.049859
    58  C   -0.046415
    59  C   -0.196058
    60  C   -0.014507
    61  C    0.040033
    62  C   -0.068144
    63  C   -0.002868
    64  C   -0.248451
    65  C   -0.005008
    66  C   -0.019001
    67  H    0.013582
    68  H   -0.001684
    69  H    0.004835
    70  H    0.051913
    71  H    0.064640
    72  H    0.048571
    73  H    0.046019
    74  H    0.050329
    75  H    0.052689
    76  H    0.048456
    77  H    0.093217
    78  H    0.060668
    79  H    0.066032
    80  H    0.038727
    81  H    0.067765
    82  H    0.077605
    83  H    0.050192
    84  H    0.059963
    85  H    0.034945
    86  H    0.033739
    87  H    0.058492
    88  H    0.051076
    89  H    0.042833
    90  H    0.047308
    91  H    0.047755
    92  H    0.033161
    93  H    0.040193
    94  H    0.054763
    95  H    0.043022
    96  H    0.057712
    97  H    0.040842
    98  H    0.074405
    99  H    0.073412
   100  H    0.066170
   101  H    0.070912
   102  H    0.059794
   103  H    0.057821
   104  H    0.032684
   105  H    0.069912
   106  H    0.054019
   107  H    0.040559
   108  H    0.039779
   109  H    0.016942
   110  H    0.039949
   111  H    0.035352
   112  H    0.025682
   113  H    0.027492
   114  H    0.034208
   115  H    0.020736
   116  H    0.033003
   117  H    0.033565
   118  H    0.023981
   119  H    0.035055
   120  H    0.031221
   121  H    0.029379
   122  H    0.022511
   123  H    0.011999
   124  H    0.030495
   125  H    0.046832
   126  H    0.023839
   127  H    0.030116
   128  H    0.028958
   129  H    0.029450
   130  H    0.021821
   131  H    0.026692
   132  H    0.007639
   133  H    0.016073
   134  H    0.037129
   135  H    0.034800
   136  H    0.027472
   137  H    0.036613
   138  H    0.036552
   139  H    0.037423
   140  H    0.030544
 Sum of Mulliken charges =  -0.00000

 Dipole moment (field-independent basis, Debye):
    X=             -0.1606    Y=              1.8883    Z=              0.3640  Tot=              1.9298
 Quadrupole moment (field-independent basis, Debye-Ang):
   XX=           -387.2924   YY=           -379.7477   ZZ=           -415.0151
   XY=             16.4023   XZ=             -9.3761   YZ=             46.6790

 Normal termination of Gaussian 16 at Wed May  4 08:17:14 2022.
