 Gaussian 16, Revision A.03,
 Gaussian 16:  ES64L-G16RevA.03 25-Dec-2016

 --------------------------------
 #p wB97XD/Def2SVP td=(nstates=5)
 --------------------------------

 ----------------------------------------------------
 step_1501_chromophore_8 TDDFT with wB97XD functional
 ----------------------------------------------------
 Symbolic Z-matrix:
 Charge =  0 Multiplicity = 1

                         Standard orientation:
 ---------------------------------------------------------------------
 Center     Atomic      Atomic             Coordinates (Angstroms)
 Number     Number       Type             X           Y           Z
 ---------------------------------------------------------------------
      1         12           0        4.538586    1.271645    0.109920
      2          6           0        4.222332   -2.237425    0.707996
      3          6           0        4.107267    0.439808   -3.316833
      4          6           0        4.215497    4.290233   -0.368187
      5          6           0        4.280394    1.669740    3.715162
      6          7           0        4.301799   -0.767926   -1.110347
      7          6           0        4.286608   -2.062646   -0.606020
      8          6           0        4.353619   -3.068837   -1.770627
      9          6           0        4.514414   -2.096669   -3.093789
     10          6           0        4.385225   -0.717539   -2.486224
     11          6           0        5.824289   -2.221094   -3.875241
     12          6           0        3.158969   -4.075615   -1.814598
     13          6           0        1.800014   -3.697747   -1.156673
     14          6           0        0.559207   -3.524019   -2.033816
     15          8           0        0.558584   -2.973048   -3.100247
     16          8           0       -0.541428   -4.037470   -1.442045
     17          7           0        4.036822    2.221528   -1.592478
     18          6           0        3.981032    1.785416   -2.887612
     19          6           0        3.675054    2.952836   -3.699770
     20          6           0        3.592030    4.075696   -2.864575
     21          6           0        3.933831    3.588308   -1.547196
     22          6           0        3.267141    2.776071   -5.139658
     23          6           0        3.258145    5.420598   -3.444806
     24          8           0        3.056630    5.581214   -4.661140
     25          6           0        3.273911    6.604709   -2.559582
     26          7           0        4.326760    2.696987    1.472251
     27          6           0        4.331302    3.926609    0.996453
     28          6           0        4.743043    4.984290    2.055687
     29          6           0        4.171452    4.171571    3.387169
     30          6           0        4.277849    2.755596    2.860603
     31          6           0        6.262219    5.181526    2.130861
     32          6           0        2.674940    4.566924    3.798304
     33          6           0        2.416618    5.498903    5.036409
     34          7           0        4.520033    0.036028    1.889665
     35          6           0        4.284930    0.325474    3.246133
     36          6           0        4.183651   -0.796972    4.058117
     37          6           0        4.221308   -1.850296    3.092651
     38          6           0        4.347623   -1.287613    1.788006
     39          6           0        4.015285   -0.845498    5.511729
     40          6           0        4.122382   -3.317568    2.948977
     41          8           0        3.945678   -4.166701    3.840986
     42          6           0        4.133557   -3.607214    1.376076
     43          6           0        5.391439   -4.388428    1.144524
     44          8           0        6.504273   -4.053566    1.404086
     45          8           0        5.083123   -5.695440    0.737916
     46          6           0        6.128803   -6.809103    0.634433
     47          6           0       -1.819418   -4.034685   -2.156049
     48          6           0       -2.641709   -2.859559   -1.541467
     49          6           0       -3.519817   -2.988550   -0.505572
     50          6           0       -3.551698   -4.188658    0.467317
     51          6           0       -4.147967   -1.739142    0.031154
     52          6           0       -5.322498   -1.129695   -0.688489
     53          6           0       -5.340432    0.392216   -0.900129
     54          6           0       -6.289793    0.807113   -2.114229
     55          6           0       -5.555501    1.667713   -3.165693
     56          6           0       -7.676607    1.272419   -1.586617
     57          6           0       -8.454241    0.125128   -0.946657
     58          6           0       -8.585049    0.377736    0.589229
     59          6           0       -9.940490    0.899822    1.086497
     60          6           0       -9.652979    1.846184    2.294584
     61          6           0      -10.920410   -0.202188    1.344406
     62          6           0      -11.927295   -0.488893    0.222797
     63          6           0      -13.300414   -0.768071    0.775558
     64          6           0      -14.097616    0.559773    0.987481
     65          6           0      -14.977221    0.926111   -0.251622
     66          6           0      -14.749066    0.685660    2.384089
     67          1           0        3.975105    0.242814   -4.382306
     68          1           0        4.422646    5.344370   -0.565046
     69          1           0        4.228582    1.916719    4.777579
     70          1           0        5.293111   -3.612682   -1.664698
     71          1           0        3.717004   -2.263821   -3.816383
     72          1           0        6.370263   -3.156950   -3.753132
     73          1           0        6.524242   -1.452789   -3.546462
     74          1           0        5.512260   -2.053853   -4.905745
     75          1           0        3.363392   -5.031147   -1.332880
     76          1           0        2.919433   -4.275919   -2.859000
     77          1           0        1.992402   -2.803014   -0.563478
     78          1           0        1.581401   -4.437413   -0.385849
     79          1           0        2.328976    3.327959   -5.192950
     80          1           0        2.963892    1.759457   -5.393006
     81          1           0        4.043793    3.173538   -5.792325
     82          1           0        4.239079    6.971081   -2.208855
     83          1           0        2.814543    6.159689   -1.676724
     84          1           0        2.771936    7.491269   -2.949300
     85          1           0        4.190790    5.912037    1.907333
     86          1           0        4.858031    4.289746    4.225632
     87          1           0        6.648816    4.647604    2.998716
     88          1           0        6.440755    6.256726    2.105113
     89          1           0        6.662350    4.768331    1.204651
     90          1           0        2.296626    3.571674    4.030872
     91          1           0        2.315732    5.015718    2.872509
     92          1           0        3.345850    5.551577    5.603875
     93          1           0        1.750364    5.018196    5.752586
     94          1           0        1.963053    6.462883    4.802651
     95          1           0        4.835029   -0.453234    6.113363
     96          1           0        3.880261   -1.853250    5.902871
     97          1           0        3.154218   -0.260823    5.836143
     98          1           0        3.239003   -4.179540    1.129203
     99          1           0        7.058419   -6.411796    0.226451
    100          1           0        5.584447   -7.546630    0.045054
    101          1           0        6.267359   -7.206203    1.640100
    102          1           0       -2.486529   -4.890359   -2.055180
    103          1           0       -1.765091   -3.761760   -3.210529
    104          1           0       -2.725950   -1.909445   -2.068437
    105          1           0       -2.571927   -4.662118    0.531003
    106          1           0       -4.320653   -4.889356    0.144368
    107          1           0       -3.842005   -3.765703    1.429240
    108          1           0       -3.381437   -0.966186    0.069302
    109          1           0       -4.419175   -1.907745    1.073778
    110          1           0       -6.151437   -1.345880   -0.015236
    111          1           0       -5.503570   -1.651707   -1.628467
    112          1           0       -4.297945    0.694881   -1.000105
    113          1           0       -5.725717    0.877463   -0.002361
    114          1           0       -6.502962   -0.113491   -2.658682
    115          1           0       -5.636851    1.169943   -4.132065
    116          1           0       -4.477516    1.671338   -3.000212
    117          1           0       -5.988593    2.645752   -3.372838
    118          1           0       -8.293227    1.637928   -2.408333
    119          1           0       -7.475991    1.990765   -0.792599
    120          1           0       -7.979291   -0.825793   -1.187694
    121          1           0       -9.463222    0.072053   -1.355239
    122          1           0       -7.766836    0.979652    0.984599
    123          1           0       -8.413892   -0.556084    1.125425
    124          1           0      -10.263684    1.440450    0.197286
    125          1           0       -8.783578    1.692093    2.934151
    126          1           0      -10.541813    1.926426    2.919918
    127          1           0       -9.545556    2.852354    1.890302
    128          1           0      -11.505835   -0.007802    2.243097
    129          1           0      -10.459008   -1.188852    1.389396
    130          1           0      -11.620333   -1.402230   -0.288611
    131          1           0      -11.919466    0.276139   -0.553750
    132          1           0      -13.196235   -1.305700    1.718752
    133          1           0      -13.897066   -1.527546    0.270283
    134          1           0      -13.384519    1.383934    0.981403
    135          1           0      -14.581174    1.748048   -0.847986
    136          1           0      -15.911090    1.268672    0.195114
    137          1           0      -15.116787    0.099245   -0.947121
    138          1           0      -14.824698    1.731442    2.681613
    139          1           0      -14.218098    0.122759    3.151794
    140          1           0      -15.761151    0.285379    2.334922
 ---------------------------------------------------------------------

 SCF Done:  E(RwB97XD) =  -3007.85407818     A.U. after   17 cycles

 Excitation energies and oscillator strengths:

 Excited State   1:      Singlet-A      1.7699 eV  700.51 nm  f=0.3426  <S**2>=0.000
     245 -> 248        0.15842
     246 -> 247        0.68710
     245 <- 248        0.10006
 This state for optimization and/or second-order correction.
 Total Energy, E(TD-HF/TD-DFT) =  -3007.78903462
 Copying the excited state density for this state as the 1-particle RhoCI density.

 Excited State   2:      Singlet-A      2.2194 eV  558.64 nm  f=0.1272  <S**2>=0.000
     245 -> 247        0.64173
     246 -> 248       -0.26733

 Excited State   3:      Singlet-A      3.2993 eV  375.79 nm  f=0.0110  <S**2>=0.000
     241 -> 247       -0.24857
     244 -> 247        0.62976

 Excited State   4:      Singlet-A      3.4071 eV  363.90 nm  f=0.0136  <S**2>=0.000
     240 -> 249        0.16828
     241 -> 247        0.52013
     241 -> 249        0.17514
     244 -> 247        0.22934
     246 -> 248        0.23010

 Excited State   5:      Singlet-A      3.5284 eV  351.39 nm  f=0.0976  <S**2>=0.000
     239 -> 247       -0.22271
     240 -> 247        0.43019
     240 -> 249        0.21098
     241 -> 249        0.15162
     242 -> 247       -0.11342
     246 -> 248       -0.30348

 The electronic state is 1-A.
 Alpha  occ. eigenvalues --  -46.95240 -19.30186 -19.28355 -19.24207 -19.24195
 Alpha  occ. eigenvalues --  -19.24152 -19.22827 -14.46907 -14.46610 -14.44807
 Alpha  occ. eigenvalues --  -14.43072 -10.42805 -10.42414 -10.39645 -10.38240
 Alpha  occ. eigenvalues --  -10.36344 -10.36293 -10.36245 -10.36126 -10.35821
 Alpha  occ. eigenvalues --  -10.35210 -10.34015 -10.33900 -10.33561 -10.32870
 Alpha  occ. eigenvalues --  -10.32777 -10.32596 -10.32255 -10.32226 -10.32067
 Alpha  occ. eigenvalues --  -10.32043 -10.31894 -10.31835 -10.31749 -10.31265
 Alpha  occ. eigenvalues --  -10.30860 -10.30820 -10.30663 -10.30644 -10.30638
 Alpha  occ. eigenvalues --  -10.30353 -10.30244 -10.30173 -10.30059 -10.29893
 Alpha  occ. eigenvalues --  -10.29875 -10.29559 -10.29431 -10.29354 -10.29208
 Alpha  occ. eigenvalues --  -10.29117 -10.28812 -10.28770 -10.28524 -10.28391
 Alpha  occ. eigenvalues --  -10.28380 -10.28353 -10.28295 -10.28245 -10.28233
 Alpha  occ. eigenvalues --  -10.28211 -10.28188 -10.28161 -10.28083 -10.27949
 Alpha  occ. eigenvalues --  -10.27934  -3.21366  -1.94927  -1.94560  -1.94286
 Alpha  occ. eigenvalues --   -1.19043  -1.16980  -1.11673  -1.10460  -1.09451
 Alpha  occ. eigenvalues --   -1.08470  -1.07151  -1.06281  -1.04750  -1.03715
 Alpha  occ. eigenvalues --   -0.93938  -0.92296  -0.91746  -0.91136  -0.90358
 Alpha  occ. eigenvalues --   -0.90097  -0.90020  -0.89606  -0.89493  -0.88805
 Alpha  occ. eigenvalues --   -0.88262  -0.87426  -0.86236  -0.85418  -0.85186
 Alpha  occ. eigenvalues --   -0.84572  -0.84301  -0.83346  -0.82598  -0.82372
 Alpha  occ. eigenvalues --   -0.81833  -0.80000  -0.79647  -0.79424  -0.77782
 Alpha  occ. eigenvalues --   -0.77318  -0.77273  -0.77212  -0.76759  -0.75864
 Alpha  occ. eigenvalues --   -0.75256  -0.74708  -0.73713  -0.72109  -0.71185
 Alpha  occ. eigenvalues --   -0.70435  -0.69922  -0.69249  -0.68396  -0.67670
 Alpha  occ. eigenvalues --   -0.67321  -0.66866  -0.66740  -0.66104  -0.65499
 Alpha  occ. eigenvalues --   -0.65394  -0.64842  -0.64613  -0.62827  -0.62801
 Alpha  occ. eigenvalues --   -0.61580  -0.61024  -0.60800  -0.59959  -0.59755
 Alpha  occ. eigenvalues --   -0.59730  -0.59126  -0.58578  -0.57790  -0.57265
 Alpha  occ. eigenvalues --   -0.56895  -0.56371  -0.56254  -0.55982  -0.55684
 Alpha  occ. eigenvalues --   -0.55359  -0.55234  -0.54896  -0.54874  -0.54653
 Alpha  occ. eigenvalues --   -0.54367  -0.54333  -0.54086  -0.53773  -0.53356
 Alpha  occ. eigenvalues --   -0.53166  -0.52968  -0.52806  -0.52716  -0.52516
 Alpha  occ. eigenvalues --   -0.52258  -0.52207  -0.51824  -0.51507  -0.51206
 Alpha  occ. eigenvalues --   -0.51064  -0.51017  -0.50836  -0.50455  -0.50400
 Alpha  occ. eigenvalues --   -0.50173  -0.50103  -0.50088  -0.49748  -0.49596
 Alpha  occ. eigenvalues --   -0.49563  -0.49235  -0.49025  -0.48668  -0.48541
 Alpha  occ. eigenvalues --   -0.48206  -0.48128  -0.48053  -0.47495  -0.47418
 Alpha  occ. eigenvalues --   -0.47286  -0.47115  -0.46843  -0.46795  -0.46712
 Alpha  occ. eigenvalues --   -0.46498  -0.46390  -0.46270  -0.46157  -0.45921
 Alpha  occ. eigenvalues --   -0.45704  -0.45345  -0.45089  -0.44965  -0.44945
 Alpha  occ. eigenvalues --   -0.44664  -0.44617  -0.44325  -0.44069  -0.43682
 Alpha  occ. eigenvalues --   -0.43637  -0.43548  -0.43305  -0.43095  -0.42982
 Alpha  occ. eigenvalues --   -0.42907  -0.42543  -0.42255  -0.42178  -0.41821
 Alpha  occ. eigenvalues --   -0.41690  -0.41434  -0.40935  -0.40262  -0.40249
 Alpha  occ. eigenvalues --   -0.40018  -0.39662  -0.39412  -0.38884  -0.38848
 Alpha  occ. eigenvalues --   -0.38720  -0.38203  -0.38093  -0.37926  -0.37799
 Alpha  occ. eigenvalues --   -0.37738  -0.37326  -0.37002  -0.36243  -0.36148
 Alpha  occ. eigenvalues --   -0.36054  -0.35663  -0.35368  -0.34095  -0.33525
 Alpha  occ. eigenvalues --   -0.33024  -0.31539  -0.31512  -0.30518  -0.26510
 Alpha  occ. eigenvalues --   -0.23511
 Alpha virt. eigenvalues --   -0.07245   0.00078   0.02329   0.04509   0.05000
 Alpha virt. eigenvalues --    0.06432   0.07468   0.08435   0.08787   0.09495
 Alpha virt. eigenvalues --    0.10352   0.11208   0.11824   0.12703   0.12980

 Mulliken charges:
               1
     1  Mg   0.972393
     2  C   -0.013488
     3  C   -0.068303
     4  C   -0.126267
     5  C   -0.096746
     6  N   -0.321804
     7  C   -0.104977
     8  C    0.045841
     9  C   -0.142941
    10  C    0.074012
    11  C    0.016991
    12  C    0.010619
    13  C   -0.073481
    14  C    0.216306
    15  O   -0.247458
    16  O   -0.341303
    17  N   -0.510732
    18  C    0.158078
    19  C   -0.161003
    20  C   -0.070806
    21  C    0.226393
    22  C    0.085729
    23  C    0.065746
    24  O   -0.249828
    25  C   -0.023877
    26  N   -0.398942
    27  C    0.074893
    28  C   -0.132986
    29  C   -0.110241
    30  C    0.059642
    31  C    0.062646
    32  C   -0.000237
    33  C   -0.036928
    34  N   -0.400523
    35  C    0.126933
    36  C   -0.154887
    37  C   -0.064889
    38  C    0.188073
    39  C    0.074324
    40  C    0.133675
    41  O   -0.235635
    42  C   -0.104637
    43  C    0.266628
    44  O   -0.212091
    45  O   -0.425467
    46  C    0.139456
    47  C    0.257802
    48  C   -0.158785
    49  C   -0.201736
    50  C    0.014554
    51  C    0.038274
    52  C   -0.052938
    53  C    0.000065
    54  C   -0.197182
    55  C    0.023030
    56  C    0.040813
    57  C   -0.030063
    58  C   -0.027638
    59  C   -0.161269
    60  C   -0.000396
    61  C    0.053144
    62  C   -0.049230
    63  C    0.014413
    64  C   -0.220716
    65  C    0.005405
    66  C   -0.005152
    67  H    0.009726
    68  H   -0.012514
    69  H    0.000716
    70  H    0.041579
    71  H    0.057712
    72  H    0.045657
    73  H    0.039664
    74  H    0.045380
    75  H    0.045247
    76  H    0.040021
    77  H    0.081906
    78  H    0.055557
    79  H    0.062583
    80  H    0.036509
    81  H    0.066996
    82  H    0.075269
    83  H    0.041477
    84  H    0.060638
    85  H    0.026776
    86  H    0.022283
    87  H    0.054594
    88  H    0.046775
    89  H    0.034595
    90  H    0.038088
    91  H    0.036635
    92  H    0.026263
    93  H    0.034350
    94  H    0.048942
    95  H    0.035663
    96  H    0.053293
    97  H    0.032877
    98  H    0.063140
    99  H    0.069970
   100  H    0.062602
   101  H    0.067291
   102  H    0.055416
   103  H    0.053987
   104  H    0.028082
   105  H    0.065154
   106  H    0.048202
   107  H    0.034951
   108  H    0.030422
   109  H    0.009756
   110  H    0.025597
   111  H    0.024278
   112  H    0.015311
   113  H    0.016012
   114  H    0.018605
   115  H    0.014740
   116  H    0.026824
   117  H    0.028513
   118  H    0.017635
   119  H    0.022022
   120  H    0.020373
   121  H    0.017559
   122  H    0.007610
   123  H    0.001134
   124  H    0.013784
   125  H    0.041865
   126  H    0.017381
   127  H    0.023687
   128  H    0.015678
   129  H    0.020785
   130  H    0.014421
   131  H    0.015301
   132  H   -0.002837
   133  H    0.009283
   134  H    0.021753
   135  H    0.029868
   136  H    0.020979
   137  H    0.030836
   138  H    0.031483
   139  H    0.031360
   140  H    0.023633
 Sum of Mulliken charges =  -0.00000

 Dipole moment (field-independent basis, Debye):
    X=             -0.1628    Y=              2.4587    Z=             -0.7942  Tot=              2.5889
 Quadrupole moment (field-independent basis, Debye-Ang):
   XX=           -386.8037   YY=           -377.4173   ZZ=           -415.5150
   XY=             18.6391   XZ=            -14.1852   YZ=             45.3501

 Normal termination of Gaussian 16 at Wed May  4 08:44:20 2022.
