 Gaussian 16, Revision A.03,
 Gaussian 16:  ES64L-G16RevA.03 25-Dec-2016

 --------------------
 #p ZINDO=(nstates=5)
 --------------------

 -----------------------------
 step_1501_chromophore_8 ZINDO
 -----------------------------
 Symbolic Z-matrix:
 Charge =  0 Multiplicity = 1

                         Standard orientation:
 ---------------------------------------------------------------------
 Center     Atomic      Atomic             Coordinates (Angstroms)
 Number     Number       Type             X           Y           Z
 ---------------------------------------------------------------------
      1         12           0        4.538586    1.271645    0.109920
      2          6           0        4.222332   -2.237425    0.707996
      3          6           0        4.107267    0.439808   -3.316833
      4          6           0        4.215497    4.290233   -0.368187
      5          6           0        4.280394    1.669740    3.715162
      6          7           0        4.301799   -0.767926   -1.110347
      7          6           0        4.286608   -2.062646   -0.606020
      8          6           0        4.353619   -3.068837   -1.770627
      9          6           0        4.514414   -2.096669   -3.093789
     10          6           0        4.385225   -0.717539   -2.486224
     11          6           0        5.824289   -2.221094   -3.875241
     12          6           0        3.158969   -4.075615   -1.814598
     13          6           0        1.800014   -3.697747   -1.156673
     14          6           0        0.559207   -3.524019   -2.033816
     15          8           0        0.558584   -2.973048   -3.100247
     16          8           0       -0.541428   -4.037470   -1.442045
     17          7           0        4.036822    2.221528   -1.592478
     18          6           0        3.981032    1.785416   -2.887612
     19          6           0        3.675054    2.952836   -3.699770
     20          6           0        3.592030    4.075696   -2.864575
     21          6           0        3.933831    3.588308   -1.547196
     22          6           0        3.267141    2.776071   -5.139658
     23          6           0        3.258145    5.420598   -3.444806
     24          8           0        3.056630    5.581214   -4.661140
     25          6           0        3.273911    6.604709   -2.559582
     26          7           0        4.326760    2.696987    1.472251
     27          6           0        4.331302    3.926609    0.996453
     28          6           0        4.743043    4.984290    2.055687
     29          6           0        4.171452    4.171571    3.387169
     30          6           0        4.277849    2.755596    2.860603
     31          6           0        6.262219    5.181526    2.130861
     32          6           0        2.674940    4.566924    3.798304
     33          6           0        2.416618    5.498903    5.036409
     34          7           0        4.520033    0.036028    1.889665
     35          6           0        4.284930    0.325474    3.246133
     36          6           0        4.183651   -0.796972    4.058117
     37          6           0        4.221308   -1.850296    3.092651
     38          6           0        4.347623   -1.287613    1.788006
     39          6           0        4.015285   -0.845498    5.511729
     40          6           0        4.122382   -3.317568    2.948977
     41          8           0        3.945678   -4.166701    3.840986
     42          6           0        4.133557   -3.607214    1.376076
     43          6           0        5.391439   -4.388428    1.144524
     44          8           0        6.504273   -4.053566    1.404086
     45          8           0        5.083123   -5.695440    0.737916
     46          6           0        6.128803   -6.809103    0.634433
     47          6           0       -1.819418   -4.034685   -2.156049
     48          6           0       -2.641709   -2.859559   -1.541467
     49          6           0       -3.519817   -2.988550   -0.505572
     50          6           0       -3.551698   -4.188658    0.467317
     51          6           0       -4.147967   -1.739142    0.031154
     52          6           0       -5.322498   -1.129695   -0.688489
     53          6           0       -5.340432    0.392216   -0.900129
     54          6           0       -6.289793    0.807113   -2.114229
     55          6           0       -5.555501    1.667713   -3.165693
     56          6           0       -7.676607    1.272419   -1.586617
     57          6           0       -8.454241    0.125128   -0.946657
     58          6           0       -8.585049    0.377736    0.589229
     59          6           0       -9.940490    0.899822    1.086497
     60          6           0       -9.652979    1.846184    2.294584
     61          6           0      -10.920410   -0.202188    1.344406
     62          6           0      -11.927295   -0.488893    0.222797
     63          6           0      -13.300414   -0.768071    0.775558
     64          6           0      -14.097616    0.559773    0.987481
     65          6           0      -14.977221    0.926111   -0.251622
     66          6           0      -14.749066    0.685660    2.384089
     67          1           0        3.975105    0.242814   -4.382306
     68          1           0        4.422646    5.344370   -0.565046
     69          1           0        4.228582    1.916719    4.777579
     70          1           0        5.293111   -3.612682   -1.664698
     71          1           0        3.717004   -2.263821   -3.816383
     72          1           0        6.370263   -3.156950   -3.753132
     73          1           0        6.524242   -1.452789   -3.546462
     74          1           0        5.512260   -2.053853   -4.905745
     75          1           0        3.363392   -5.031147   -1.332880
     76          1           0        2.919433   -4.275919   -2.859000
     77          1           0        1.992402   -2.803014   -0.563478
     78          1           0        1.581401   -4.437413   -0.385849
     79          1           0        2.328976    3.327959   -5.192950
     80          1           0        2.963892    1.759457   -5.393006
     81          1           0        4.043793    3.173538   -5.792325
     82          1           0        4.239079    6.971081   -2.208855
     83          1           0        2.814543    6.159689   -1.676724
     84          1           0        2.771936    7.491269   -2.949300
     85          1           0        4.190790    5.912037    1.907333
     86          1           0        4.858031    4.289746    4.225632
     87          1           0        6.648816    4.647604    2.998716
     88          1           0        6.440755    6.256726    2.105113
     89          1           0        6.662350    4.768331    1.204651
     90          1           0        2.296626    3.571674    4.030872
     91          1           0        2.315732    5.015718    2.872509
     92          1           0        3.345850    5.551577    5.603875
     93          1           0        1.750364    5.018196    5.752586
     94          1           0        1.963053    6.462883    4.802651
     95          1           0        4.835029   -0.453234    6.113363
     96          1           0        3.880261   -1.853250    5.902871
     97          1           0        3.154218   -0.260823    5.836143
     98          1           0        3.239003   -4.179540    1.129203
     99          1           0        7.058419   -6.411796    0.226451
    100          1           0        5.584447   -7.546630    0.045054
    101          1           0        6.267359   -7.206203    1.640100
    102          1           0       -2.486529   -4.890359   -2.055180
    103          1           0       -1.765091   -3.761760   -3.210529
    104          1           0       -2.725950   -1.909445   -2.068437
    105          1           0       -2.571927   -4.662118    0.531003
    106          1           0       -4.320653   -4.889356    0.144368
    107          1           0       -3.842005   -3.765703    1.429240
    108          1           0       -3.381437   -0.966186    0.069302
    109          1           0       -4.419175   -1.907745    1.073778
    110          1           0       -6.151437   -1.345880   -0.015236
    111          1           0       -5.503570   -1.651707   -1.628467
    112          1           0       -4.297945    0.694881   -1.000105
    113          1           0       -5.725717    0.877463   -0.002361
    114          1           0       -6.502962   -0.113491   -2.658682
    115          1           0       -5.636851    1.169943   -4.132065
    116          1           0       -4.477516    1.671338   -3.000212
    117          1           0       -5.988593    2.645752   -3.372838
    118          1           0       -8.293227    1.637928   -2.408333
    119          1           0       -7.475991    1.990765   -0.792599
    120          1           0       -7.979291   -0.825793   -1.187694
    121          1           0       -9.463222    0.072053   -1.355239
    122          1           0       -7.766836    0.979652    0.984599
    123          1           0       -8.413892   -0.556084    1.125425
    124          1           0      -10.263684    1.440450    0.197286
    125          1           0       -8.783578    1.692093    2.934151
    126          1           0      -10.541813    1.926426    2.919918
    127          1           0       -9.545556    2.852354    1.890302
    128          1           0      -11.505835   -0.007802    2.243097
    129          1           0      -10.459008   -1.188852    1.389396
    130          1           0      -11.620333   -1.402230   -0.288611
    131          1           0      -11.919466    0.276139   -0.553750
    132          1           0      -13.196235   -1.305700    1.718752
    133          1           0      -13.897066   -1.527546    0.270283
    134          1           0      -13.384519    1.383934    0.981403
    135          1           0      -14.581174    1.748048   -0.847986
    136          1           0      -15.911090    1.268672    0.195114
    137          1           0      -15.116787    0.099245   -0.947121
    138          1           0      -14.824698    1.731442    2.681613
    139          1           0      -14.218098    0.122759    3.151794
    140          1           0      -15.761151    0.285379    2.334922
 ---------------------------------------------------------------------

 SCF Done:  E(RZINDO/S) =  -474.242442847     A.U. after   18 cycles

 Excitation energies and oscillator strengths:

 Excited State   1:      Singlet-A      1.4130 eV  877.43 nm  f=0.4892  <S**2>=0.000
     175 ->178         0.12721
     176 ->177         0.67906
 This state for optimization and/or second-order correction.
 Total Energy, E(CIS/TDA) =  -474.190514719
 Copying the excited state density for this state as the 1-particle RhoCI density.

 Excited State   2:      Singlet-A      1.9880 eV  623.66 nm  f=0.0623  <S**2>=0.000
     175 ->177         0.55130
     176 ->178        -0.38545

 Excited State   3:      Singlet-A      2.8946 eV  428.32 nm  f=0.0009  <S**2>=0.000
     167 ->177        -0.17181
     167 ->178         0.13943
     167 ->179         0.26899
     168 ->177        -0.22359
     168 ->178         0.17765
     168 ->179         0.33081
     168 ->180         0.11533
     168 ->184         0.11491
     168 ->186        -0.10557
     169 ->177        -0.14596
     169 ->179         0.14513

 Excited State   4:      Singlet-A      2.9925 eV  414.31 nm  f=0.8927  <S**2>=0.000
     170 ->177        -0.11325
     172 ->177         0.10337
     175 ->177         0.36196
     176 ->178         0.53470

 Excited State   5:      Singlet-A      3.1019 eV  399.71 nm  f=0.0122  <S**2>=0.000
     171 ->177         0.24054
     171 ->179         0.24204
     171 ->180        -0.27944
     171 ->181         0.31881
     171 ->186        -0.19294
     171 ->189        -0.20791
     171 ->205        -0.11796
     174 ->177         0.15628

 The electronic state is 1-A.
 Alpha  occ. eigenvalues --   -1.84498  -1.82148  -1.79912  -1.73469  -1.70237
 Alpha  occ. eigenvalues --   -1.68905  -1.67848  -1.61843  -1.59943  -1.54959
 Alpha  occ. eigenvalues --   -1.54571  -1.51060  -1.48157  -1.46751  -1.45323
 Alpha  occ. eigenvalues --   -1.43953  -1.42031  -1.40002  -1.38776  -1.36636
 Alpha  occ. eigenvalues --   -1.35918  -1.33323  -1.33106  -1.31538  -1.29618
 Alpha  occ. eigenvalues --   -1.29378  -1.28262  -1.22968  -1.21638  -1.17694
 Alpha  occ. eigenvalues --   -1.16454  -1.15924  -1.14841  -1.14606  -1.13627
 Alpha  occ. eigenvalues --   -1.13052  -1.09935  -1.09647  -1.05505  -1.03060
 Alpha  occ. eigenvalues --   -1.02867  -1.01927  -0.99353  -0.97490  -0.96308
 Alpha  occ. eigenvalues --   -0.95281  -0.95012  -0.93878  -0.93380  -0.93161
 Alpha  occ. eigenvalues --   -0.91319  -0.90203  -0.88464  -0.88011  -0.87739
 Alpha  occ. eigenvalues --   -0.85835  -0.84486  -0.82948  -0.80540  -0.79144
 Alpha  occ. eigenvalues --   -0.78904  -0.78583  -0.78085  -0.76796  -0.76679
 Alpha  occ. eigenvalues --   -0.76424  -0.75764  -0.75020  -0.74176  -0.73356
 Alpha  occ. eigenvalues --   -0.72810  -0.72406  -0.71696  -0.71262  -0.70247
 Alpha  occ. eigenvalues --   -0.69983  -0.69560  -0.69080  -0.68725  -0.68164
 Alpha  occ. eigenvalues --   -0.66768  -0.66301  -0.65888  -0.65739  -0.65434
 Alpha  occ. eigenvalues --   -0.65202  -0.64727  -0.64219  -0.63580  -0.63348
 Alpha  occ. eigenvalues --   -0.63231  -0.62860  -0.62477  -0.62193  -0.61687
 Alpha  occ. eigenvalues --   -0.61535  -0.61054  -0.60922  -0.60514  -0.59552
 Alpha  occ. eigenvalues --   -0.59231  -0.59040  -0.58668  -0.58385  -0.57713
 Alpha  occ. eigenvalues --   -0.57523  -0.57283  -0.57081  -0.56832  -0.56663
 Alpha  occ. eigenvalues --   -0.56095  -0.55973  -0.55639  -0.55312  -0.54389
 Alpha  occ. eigenvalues --   -0.54291  -0.53857  -0.53030  -0.52983  -0.52944
 Alpha  occ. eigenvalues --   -0.52511  -0.52065  -0.51924  -0.51864  -0.51804
 Alpha  occ. eigenvalues --   -0.51444  -0.51173  -0.50853  -0.50546  -0.50257
 Alpha  occ. eigenvalues --   -0.50057  -0.49830  -0.49560  -0.48897  -0.48870
 Alpha  occ. eigenvalues --   -0.48540  -0.48266  -0.48131  -0.47595  -0.47384
 Alpha  occ. eigenvalues --   -0.47249  -0.46964  -0.46849  -0.46667  -0.46353
 Alpha  occ. eigenvalues --   -0.45916  -0.45585  -0.45427  -0.44910  -0.44804
 Alpha  occ. eigenvalues --   -0.44620  -0.44404  -0.44105  -0.43756  -0.43601
 Alpha  occ. eigenvalues --   -0.43289  -0.43175  -0.42677  -0.42613  -0.41536
 Alpha  occ. eigenvalues --   -0.41431  -0.41254  -0.41091  -0.39108  -0.38901
 Alpha  occ. eigenvalues --   -0.37822  -0.36896  -0.36516  -0.34947  -0.34239
 Alpha  occ. eigenvalues --   -0.33355  -0.32728  -0.31937  -0.30629  -0.27235
 Alpha  occ. eigenvalues --   -0.22299
 Alpha virt. eigenvalues --   -0.08344  -0.02144  -0.00789   0.01482   0.01547
 Alpha virt. eigenvalues --    0.02451   0.02905   0.03752   0.04405   0.04595
 Alpha virt. eigenvalues --    0.06192   0.06682   0.06904   0.07430   0.07892

 Mulliken charges:
               1
     1  Mg   0.443914
     2  C   -0.010768
     3  C   -0.083882
     4  C   -0.116347
     5  C   -0.058192
     6  N   -0.306405
     7  C    0.096074
     8  C    0.004703
     9  C    0.003904
    10  C    0.190598
    11  C   -0.045655
    12  C   -0.022828
    13  C   -0.004900
    14  C    0.479489
    15  O   -0.521115
    16  O   -0.255964
    17  N   -0.339861
    18  C    0.142889
    19  C    0.076946
    20  C   -0.042823
    21  C    0.171473
    22  C   -0.037019
    23  C    0.335906
    24  O   -0.528594
    25  C   -0.030894
    26  N   -0.262591
    27  C    0.196877
    28  C   -0.008475
    29  C   -0.017136
    30  C    0.066468
    31  C   -0.044489
    32  C   -0.038800
    33  C   -0.060040
    34  N   -0.328138
    35  C    0.055690
    36  C    0.011792
    37  C   -0.078700
    38  C    0.101032
    39  C   -0.031365
    40  C    0.319228
    41  O   -0.543347
    42  C    0.050165
    43  C    0.491415
    44  O   -0.506530
    45  O   -0.317599
    46  C    0.075245
    47  C    0.099776
    48  C   -0.092948
    49  C   -0.016465
    50  C   -0.046563
    51  C   -0.019899
    52  C   -0.030917
    53  C   -0.036127
    54  C   -0.017068
    55  C   -0.060203
    56  C   -0.030041
    57  C   -0.039157
    58  C   -0.039802
    59  C   -0.003856
    60  C   -0.059243
    61  C   -0.028597
    62  C   -0.029448
    63  C   -0.029992
    64  C   -0.015386
    65  C   -0.058313
    66  C   -0.053254
    67  H    0.038545
    68  H    0.014875
    69  H    0.030994
    70  H    0.037022
    71  H    0.040871
    72  H    0.028347
    73  H    0.022565
    74  H    0.022780
    75  H    0.028845
    76  H    0.025293
    77  H    0.050802
    78  H    0.029863
    79  H    0.042683
    80  H    0.025869
    81  H    0.050122
    82  H    0.044038
    83  H    0.029216
    84  H    0.042532
    85  H    0.027923
    86  H    0.028891
    87  H    0.038339
    88  H    0.023834
    89  H    0.023034
    90  H    0.032311
    91  H    0.025691
    92  H    0.021369
    93  H    0.017335
    94  H    0.027685
    95  H    0.024333
    96  H    0.027133
    97  H    0.019816
    98  H    0.053909
    99  H    0.055489
   100  H    0.037445
   101  H    0.048066
   102  H    0.050197
   103  H    0.049884
   104  H    0.036136
   105  H    0.031249
   106  H    0.029523
   107  H    0.024931
   108  H    0.019597
   109  H    0.013386
   110  H    0.012832
   111  H    0.022540
   112  H    0.021703
   113  H    0.018711
   114  H    0.014625
   115  H    0.007918
   116  H    0.023508
   117  H    0.023287
   118  H    0.018640
   119  H    0.026168
   120  H    0.023826
   121  H    0.015696
   122  H    0.017982
   123  H    0.003654
   124  H    0.024108
   125  H    0.030385
   126  H    0.010895
   127  H    0.009827
   128  H    0.021407
   129  H    0.021949
   130  H    0.004979
   131  H    0.020842
   132  H    0.008469
   133  H    0.015843
   134  H    0.011062
   135  H    0.018417
   136  H    0.017661
   137  H    0.022901
   138  H    0.017793
   139  H    0.020949
   140  H    0.014808
 Sum of Mulliken charges =  -0.00000

 Dipole moment (field-independent basis, Debye):
    X=             -0.2334    Y=              4.8685    Z=             -3.6102  Tot=              6.0655
 N-N= 4.435354324528D+03 E-N= 0.000000000000D+00  KE=-9.545337489995D+03
 Leave Link  601 at Wed May  4 08:58:25 2022, MaxMem=  6710886400 cpu:               0.8 elap:               0.0
 (Enter /sw/apps/gaussian-16.0/g16/l9999.exe)
 1\1\GINC-BP1-COMPUTE096\SP\RZINDO CIS\STO-3G\C55H74Mg1N4O6\OF15641\04-
 May-2022\0\\#p ZINDO=(nstates=5)\\step_1501_chromophore_8 ZINDO\\0,1\M
 g,0,43.804,3.338,47.107\C,0,41.836,6.311,46.863\C,0,40.713,1.608,46.83
 6\C,0,45.495,0.801,46.721\C,0,46.697,5.502,46.694\N,0,41.512,3.997,46.
 975\C,0,40.998,5.288,46.975\C,0,39.465,5.231,47.116\C,0,39.168,3.619,4
 7.303\C,0,40.545,3.023,47.112\C,0,38.575,3.187,48.646\C,0,38.69,5.929,
 45.952\C,0,39.363,6.091,44.558\C,0,38.781,5.357,43.349\O,0,38.377,4.22

 Normal termination of Gaussian 16 at Wed May  4 08:58:25 2022.
