 Gaussian 16, Revision A.03,
 Gaussian 16:  ES64L-G16RevA.03 25-Dec-2016

 ------------------------------
 #p blyp/Def2SVP td=(nstates=5)
 ------------------------------

 --------------------------------------------------
 step_301_chromophore_11 TDDFT with blyp functional
 --------------------------------------------------
 Symbolic Z-matrix:
 Charge =  0 Multiplicity = 1

                         Standard orientation:
 ---------------------------------------------------------------------
 Center     Atomic      Atomic             Coordinates (Angstroms)
 Number     Number       Type             X           Y           Z
 ---------------------------------------------------------------------
      1         12           0       -4.414243    1.513644    0.561334
      2          6           0       -5.652703   -1.798322    0.014778
      3          6           0       -2.003949    0.148312    2.833971
      4          6           0       -2.930825    4.432039    0.627695
      5          6           0       -6.853861    2.656766   -1.628639
      6          7           0       -3.648805   -0.729392    1.088281
      7          6           0       -4.464638   -1.815524    0.817932
      8          6           0       -3.942459   -3.013043    1.715004
      9          6           0       -3.039728   -2.284388    2.806267
     10          6           0       -2.868670   -0.875883    2.209989
     11          6           0       -3.568746   -2.376567    4.292421
     12          6           0       -3.151711   -4.137388    0.997551
     13          6           0       -2.154820   -3.755852   -0.198299
     14          6           0       -0.806631   -4.542855   -0.162010
     15          8           0       -0.492432   -5.388689   -0.977269
     16          8           0       -0.052880   -4.154373    0.894951
     17          7           0       -2.747117    2.206215    1.562668
     18          6           0       -1.908454    1.536844    2.483388
     19          6           0       -1.040576    2.453546    3.131126
     20          6           0       -1.298437    3.728589    2.563227
     21          6           0       -2.305737    3.496698    1.515307
     22          6           0       -0.025182    2.046009    4.205036
     23          6           0       -0.596003    5.095987    2.917475
     24          8           0        0.354625    5.059939    3.795641
     25          6           0       -0.905059    6.398153    2.323187
     26          7           0       -4.691489    3.267558   -0.451114
     27          6           0       -3.911214    4.371734   -0.307982
     28          6           0       -4.488971    5.507122   -1.198072
     29          6           0       -5.618019    4.836468   -2.090336
     30          6           0       -5.800571    3.524340   -1.368274
     31          6           0       -5.012738    6.709082   -0.368344
     32          6           0       -5.304790    4.505135   -3.630421
     33          6           0       -6.364826    4.945525   -4.567972
     34          7           0       -5.992208    0.680123   -0.501860
     35          6           0       -6.905568    1.297589   -1.326543
     36          6           0       -7.890295    0.323384   -1.720035
     37          6           0       -7.490586   -0.857865   -1.129894
     38          6           0       -6.298396   -0.614961   -0.452795
     39          6           0       -8.910841    0.710028   -2.618267
     40          6           0       -7.826452   -2.284507   -1.012838
     41          8           0       -8.782237   -2.822989   -1.485903
     42          6           0       -6.636506   -2.902587   -0.235696
     43          6           0       -6.055947   -3.979527   -1.126269
     44          8           0       -5.539369   -3.775679   -2.228313
     45          8           0       -6.127911   -5.137519   -0.416109
     46          6           0       -5.496410   -6.383048   -1.054785
     47          6           0        1.222941   -4.856273    0.889751
     48          6           0        2.267402   -4.308196   -0.119413
     49          6           0        3.577971   -4.423347   -0.009379
     50          6           0        4.238716   -5.131678    1.148247
     51          6           0        4.521319   -3.639606   -0.889882
     52          6           0        4.788072   -2.223454   -0.310958
     53          6           0        5.193659   -1.079890   -1.416320
     54          6           0        6.326293   -0.250436   -0.842648
     55          6           0        6.216741    1.258214   -1.161313
     56          6           0        7.754788   -0.710222   -1.126122
     57          6           0        8.766996   -0.708225   -0.011000
     58          6           0        9.494345    0.716456    0.140977
     59          6           0       11.046738    0.641170    0.363477
     60          6           0       11.259085    0.620890    1.890200
     61          6           0       11.831193    1.861355   -0.310244
     62          6           0       12.545830    1.532668   -1.635605
     63          6           0       14.042629    1.988352   -1.717494
     64          6           0       14.905056    0.722977   -1.446558
     65          6           0       15.962354    1.012087   -0.462556
     66          6           0       15.301402   -0.197065   -2.589833
     67          1           0       -1.511642   -0.156153    3.759840
     68          1           0       -2.510308    5.439561    0.655082
     69          1           0       -7.481251    2.997985   -2.454565
     70          1           0       -4.725226   -3.595766    2.199940
     71          1           0       -2.039100   -2.716460    2.843011
     72          1           0       -3.026110   -3.184238    4.784797
     73          1           0       -4.639886   -2.575281    4.249179
     74          1           0       -3.347733   -1.453610    4.829820
     75          1           0       -3.791861   -4.927339    0.605066
     76          1           0       -2.443440   -4.582284    1.697528
     77          1           0       -2.011882   -2.675738   -0.174678
     78          1           0       -2.649032   -3.936454   -1.152040
     79          1           0        0.965708    2.339242    3.858164
     80          1           0        0.034237    0.976266    4.407170
     81          1           0       -0.039476    2.504654    5.193729
     82          1           0       -0.612736    6.524415    1.281262
     83          1           0       -0.397485    7.130598    2.950102
     84          1           0       -1.963865    6.609429    2.475982
     85          1           0       -3.713727    5.922527   -1.842536
     86          1           0       -6.499668    5.470513   -1.987792
     87          1           0       -4.621622    7.687361   -0.647059
     88          1           0       -4.725583    6.541348    0.670269
     89          1           0       -6.091833    6.698002   -0.217975
     90          1           0       -5.134640    3.430652   -3.706332
     91          1           0       -4.346514    4.932366   -3.925189
     92          1           0       -6.063245    5.821943   -5.142594
     93          1           0       -7.314640    5.203148   -4.099173
     94          1           0       -6.579419    4.081801   -5.196471
     95          1           0       -9.386206    1.570101   -2.147455
     96          1           0       -9.672148   -0.070713   -2.636419
     97          1           0       -8.543662    1.147642   -3.546462
     98          1           0       -6.992401   -3.228054    0.742063
     99          1           0       -4.415068   -6.371283   -0.921500
    100          1           0       -5.701033   -6.296227   -2.120939
    101          1           0       -5.816418   -7.375884   -0.738033
    102          1           0        1.144726   -5.941399    0.960506
    103          1           0        1.558450   -4.638403    1.903237
    104          1           0        1.941236   -3.603329   -0.884114
    105          1           0        4.492287   -4.591772    2.060374
    106          1           0        5.163115   -5.633073    0.863176
    107          1           0        3.672867   -6.028877    1.400914
    108          1           0        4.054011   -3.472926   -1.860196
    109          1           0        5.521803   -4.059492   -0.991910
    110          1           0        5.534597   -2.431494    0.455509
    111          1           0        3.853134   -1.941738    0.172271
    112          1           0        4.319571   -0.542466   -1.784857
    113          1           0        5.650485   -1.589629   -2.264098
    114          1           0        6.308981   -0.194436    0.245812
    115          1           0        5.927752    1.803221   -0.263058
    116          1           0        5.530528    1.456181   -1.985338
    117          1           0        7.184447    1.709776   -1.379190
    118          1           0        8.077180   -0.284406   -2.075693
    119          1           0        7.769082   -1.777987   -1.344388
    120          1           0        9.564465   -1.380539   -0.329736
    121          1           0        8.386127   -1.077071    0.941372
    122          1           0        9.058367    1.202972    1.013797
    123          1           0        9.230560    1.359530   -0.698660
    124          1           0       11.540677   -0.288192    0.078186
    125          1           0       11.312030    1.680728    2.141497
    126          1           0       12.210935    0.145018    2.127564
    127          1           0       10.461995    0.111415    2.431709
    128          1           0       12.613336    2.187864    0.374966
    129          1           0       11.132957    2.664999   -0.544273
    130          1           0       11.973759    2.088706   -2.377090
    131          1           0       12.351440    0.492484   -1.899391
    132          1           0       14.205230    2.805513   -1.014613
    133          1           0       14.131625    2.234638   -2.776103
    134          1           0       14.250099    0.033252   -0.914878
    135          1           0       15.817614    2.039794   -0.128232
    136          1           0       16.956854    0.887323   -0.891349
    137          1           0       15.841422    0.247302    0.304163
    138          1           0       15.039948    0.115381   -3.600020
    139          1           0       14.905076   -1.209408   -2.509648
    140          1           0       16.370752   -0.405160   -2.631091
 ---------------------------------------------------------------------

 SCF Done:  E(RB-LYP) =  -3007.33400151     A.U. after   21 cycles

 Excitation energies and oscillator strengths:

 Excited State   1:      Singlet-A      1.7718 eV  699.76 nm  f=0.2565  <S**2>=0.000
     244 -> 247        0.21590
     245 -> 248        0.18642
     246 -> 247        0.65383
     246 <- 247       -0.14141
 This state for optimization and/or second-order correction.
 Total Energy, E(TD-HF/TD-DFT) =  -3007.26888868
 Copying the excited state density for this state as the 1-particle RhoCI density.

 Excited State   2:      Singlet-A      1.8071 eV  686.09 nm  f=0.0317  <S**2>=0.000
     244 -> 247        0.65935
     245 -> 247       -0.11762
     246 -> 247       -0.21554

 Excited State   3:      Singlet-A      2.0008 eV  619.67 nm  f=0.0432  <S**2>=0.000
     243 -> 247        0.46132
     245 -> 247        0.48141
     246 -> 248       -0.18886

 Excited State   4:      Singlet-A      2.0503 eV  604.71 nm  f=0.0311  <S**2>=0.000
     243 -> 247        0.53213
     245 -> 247       -0.40319
     246 -> 248        0.18598

 Excited State   5:      Singlet-A      2.2415 eV  553.13 nm  f=0.0001  <S**2>=0.000
     242 -> 247        0.70697

 The electronic state is 1-A.
 Alpha  occ. eigenvalues --  -46.27202 -18.83315 -18.82953 -18.77348 -18.76604
 Alpha  occ. eigenvalues --  -18.76294 -18.75360 -14.03635 -14.03001 -14.01344
 Alpha  occ. eigenvalues --  -14.00912 -10.04708 -10.03777 -10.00478  -9.99753
 Alpha  occ. eigenvalues --   -9.98488  -9.98238  -9.97590  -9.97415  -9.96950
 Alpha  occ. eigenvalues --   -9.96646  -9.96563  -9.95801  -9.95030  -9.94740
 Alpha  occ. eigenvalues --   -9.94673  -9.94607  -9.94425  -9.94405  -9.94205
 Alpha  occ. eigenvalues --   -9.94140  -9.94100  -9.93856  -9.93409  -9.93188
 Alpha  occ. eigenvalues --   -9.93092  -9.92956  -9.92792  -9.92764  -9.92696
 Alpha  occ. eigenvalues --   -9.92648  -9.92577  -9.92485  -9.92332  -9.92144
 Alpha  occ. eigenvalues --   -9.91949  -9.91948  -9.91920  -9.91863  -9.91750
 Alpha  occ. eigenvalues --   -9.91728  -9.91695  -9.91469  -9.91418  -9.91197
 Alpha  occ. eigenvalues --   -9.91155  -9.90989  -9.90912  -9.90909  -9.90702
 Alpha  occ. eigenvalues --   -9.90612  -9.90471  -9.90446  -9.90365  -9.90138
 Alpha  occ. eigenvalues --   -9.89993  -2.91860  -1.72269  -1.71768  -1.71562
 Alpha  occ. eigenvalues --   -0.98908  -0.97420  -0.93215  -0.90230  -0.89835
 Alpha  occ. eigenvalues --   -0.88000  -0.86916  -0.85211  -0.84540  -0.83944
 Alpha  occ. eigenvalues --   -0.76046  -0.73568  -0.73013  -0.72828  -0.72405
 Alpha  occ. eigenvalues --   -0.71739  -0.71535  -0.71126  -0.70624  -0.70447
 Alpha  occ. eigenvalues --   -0.69149  -0.68500  -0.68349  -0.67751  -0.67015
 Alpha  occ. eigenvalues --   -0.66675  -0.66158  -0.65581  -0.65128  -0.64758
 Alpha  occ. eigenvalues --   -0.63903  -0.62539  -0.62242  -0.61555  -0.61058
 Alpha  occ. eigenvalues --   -0.60592  -0.60391  -0.59892  -0.59035  -0.58962
 Alpha  occ. eigenvalues --   -0.58409  -0.57847  -0.57013  -0.55458  -0.54599
 Alpha  occ. eigenvalues --   -0.54095  -0.53203  -0.52415  -0.51959  -0.51611
 Alpha  occ. eigenvalues --   -0.51035  -0.51019  -0.50572  -0.50097  -0.49343
 Alpha  occ. eigenvalues --   -0.49264  -0.48948  -0.48931  -0.48526  -0.46855
 Alpha  occ. eigenvalues --   -0.46615  -0.45943  -0.45657  -0.45149  -0.44901
 Alpha  occ. eigenvalues --   -0.44585  -0.43476  -0.43364  -0.42828  -0.42380
 Alpha  occ. eigenvalues --   -0.42122  -0.42010  -0.41748  -0.41297  -0.41261
 Alpha  occ. eigenvalues --   -0.40615  -0.40413  -0.40302  -0.40273  -0.39972
 Alpha  occ. eigenvalues --   -0.39782  -0.39651  -0.39489  -0.39345  -0.39299
 Alpha  occ. eigenvalues --   -0.39112  -0.39001  -0.38961  -0.38735  -0.38579
 Alpha  occ. eigenvalues --   -0.38242  -0.37843  -0.37451  -0.37423  -0.37272
 Alpha  occ. eigenvalues --   -0.37108  -0.36941  -0.36570  -0.36492  -0.36459
 Alpha  occ. eigenvalues --   -0.36255  -0.36093  -0.35776  -0.35654  -0.35587
 Alpha  occ. eigenvalues --   -0.35367  -0.35219  -0.35029  -0.34642  -0.34415
 Alpha  occ. eigenvalues --   -0.34286  -0.34201  -0.34145  -0.33881  -0.33591
 Alpha  occ. eigenvalues --   -0.33550  -0.33502  -0.33227  -0.33196  -0.32990
 Alpha  occ. eigenvalues --   -0.32867  -0.32815  -0.32679  -0.32472  -0.32208
 Alpha  occ. eigenvalues --   -0.32144  -0.31995  -0.31744  -0.31656  -0.31447
 Alpha  occ. eigenvalues --   -0.31359  -0.31263  -0.30924  -0.30674  -0.30538
 Alpha  occ. eigenvalues --   -0.30369  -0.30173  -0.29989  -0.29915  -0.29581
 Alpha  occ. eigenvalues --   -0.29453  -0.29416  -0.29249  -0.28930  -0.28874
 Alpha  occ. eigenvalues --   -0.28694  -0.28655  -0.28572  -0.28249  -0.27981
 Alpha  occ. eigenvalues --   -0.27860  -0.27467  -0.26926  -0.26763  -0.26532
 Alpha  occ. eigenvalues --   -0.26021  -0.25945  -0.25800  -0.25402  -0.25285
 Alpha  occ. eigenvalues --   -0.24877  -0.24604  -0.23963  -0.23936  -0.23542
 Alpha  occ. eigenvalues --   -0.23264  -0.22824  -0.21893  -0.21535  -0.20742
 Alpha  occ. eigenvalues --   -0.20454  -0.20053  -0.19171  -0.18359  -0.17603
 Alpha  occ. eigenvalues --   -0.16012
 Alpha virt. eigenvalues --   -0.11817  -0.07347  -0.06545  -0.05156  -0.02882
 Alpha virt. eigenvalues --   -0.02631  -0.02375  -0.01997  -0.01558  -0.00457
 Alpha virt. eigenvalues --    0.00708   0.01443   0.02279   0.02404   0.02851

 Mulliken charges:
               1
     1  Mg   0.695766
     2  C   -0.010672
     3  C   -0.066285
     4  C   -0.039232
     5  C   -0.058477
     6  N   -0.186152
     7  C   -0.044842
     8  C    0.040978
     9  C   -0.015293
    10  C   -0.000953
    11  C    0.120213
    12  C    0.054264
    13  C    0.115720
    14  C    0.060477
    15  O   -0.180343
    16  O   -0.250083
    17  N   -0.308948
    18  C    0.148866
    19  C   -0.107392
    20  C    0.045327
    21  C    0.123426
    22  C    0.172824
    23  C   -0.064315
    24  O   -0.231857
    25  C    0.165902
    26  N   -0.310727
    27  C    0.033702
    28  C    0.023055
    29  C    0.035209
    30  C    0.018334
    31  C    0.127383
    32  C    0.097395
    33  C    0.072300
    34  N   -0.249374
    35  C    0.086020
    36  C   -0.167273
    37  C    0.066277
    38  C    0.079866
    39  C    0.200615
    40  C   -0.068035
    41  O   -0.086994
    42  C    0.096596
    43  C    0.139828
    44  O   -0.186781
    45  O   -0.274088
    46  C    0.194595
    47  C    0.297270
    48  C   -0.044602
    49  C   -0.145253
    50  C    0.122735
    51  C    0.133030
    52  C    0.027541
    53  C    0.165421
    54  C   -0.064536
    55  C    0.106563
    56  C    0.081250
    57  C    0.084575
    58  C    0.090648
    59  C   -0.083563
    60  C    0.086496
    61  C    0.106161
    62  C    0.029203
    63  C    0.148230
    64  C   -0.105731
    65  C    0.136145
    66  C    0.106530
    67  H   -0.041137
    68  H   -0.093721
    69  H   -0.062124
    70  H   -0.033440
    71  H   -0.014574
    72  H   -0.003912
    73  H   -0.001407
    74  H   -0.005793
    75  H   -0.014159
    76  H   -0.017498
    77  H    0.002989
    78  H   -0.004225
    79  H    0.001487
    80  H   -0.031451
    81  H    0.001352
    82  H    0.033881
    83  H   -0.008211
    84  H    0.006908
    85  H   -0.031600
    86  H   -0.022696
    87  H    0.002434
    88  H   -0.024854
    89  H   -0.015811
    90  H   -0.005142
    91  H   -0.025292
    92  H   -0.000328
    93  H   -0.009622
    94  H   -0.005651
    95  H   -0.017545
    96  H    0.002918
    97  H    0.004786
    98  H   -0.001049
    99  H    0.029620
   100  H    0.029440
   101  H    0.028478
   102  H    0.006737
   103  H   -0.019213
   104  H   -0.034500
   105  H    0.014286
   106  H   -0.027939
   107  H   -0.021803
   108  H   -0.027227
   109  H   -0.032480
   110  H   -0.023914
   111  H   -0.025197
   112  H   -0.021386
   113  H   -0.032441
   114  H   -0.043007
   115  H   -0.021433
   116  H   -0.020286
   117  H   -0.032413
   118  H   -0.036144
   119  H   -0.056291
   120  H   -0.034520
   121  H   -0.021731
   122  H   -0.034884
   123  H   -0.029383
   124  H   -0.031633
   125  H   -0.014957
   126  H   -0.022333
   127  H   -0.013545
   128  H   -0.041217
   129  H   -0.025616
   130  H   -0.051280
   131  H   -0.028359
   132  H   -0.020317
   133  H   -0.035525
   134  H   -0.031453
   135  H   -0.023544
   136  H   -0.026108
   137  H   -0.018839
   138  H   -0.022488
   139  H   -0.024162
   140  H   -0.031434
 Sum of Mulliken charges =  -0.00000

 Dipole moment (field-independent basis, Debye):
    X=             -0.1437    Y=              2.0238    Z=              1.4829  Tot=              2.5130
 Quadrupole moment (field-independent basis, Debye-Ang):
   XX=           -417.1574   YY=           -382.5001   ZZ=           -410.7611
   XY=            -41.0053   XZ=            -14.5029   YZ=            -40.6329

 Normal termination of Gaussian 16 at Fri Apr 29 12:49:27 2022.
