 Gaussian 16, Revision A.03,
 Gaussian 16:  ES64L-G16RevA.03 25-Dec-2016

 -----------------------------------
 #p cam-b3lyp/Def2SVP td=(nstates=5)
 -----------------------------------

 -------------------------------------------------------
 step_301_chromophore_11 TDDFT with cam-b3lyp functional
 -------------------------------------------------------
 Symbolic Z-matrix:
 Charge =  0 Multiplicity = 1

                         Standard orientation:
 ---------------------------------------------------------------------
 Center     Atomic      Atomic             Coordinates (Angstroms)
 Number     Number       Type             X           Y           Z
 ---------------------------------------------------------------------
      1         12           0       -4.414243    1.513644    0.561334
      2          6           0       -5.652703   -1.798322    0.014778
      3          6           0       -2.003949    0.148312    2.833971
      4          6           0       -2.930825    4.432039    0.627695
      5          6           0       -6.853861    2.656766   -1.628639
      6          7           0       -3.648805   -0.729392    1.088281
      7          6           0       -4.464638   -1.815524    0.817932
      8          6           0       -3.942459   -3.013043    1.715004
      9          6           0       -3.039728   -2.284388    2.806267
     10          6           0       -2.868670   -0.875883    2.209989
     11          6           0       -3.568746   -2.376567    4.292421
     12          6           0       -3.151711   -4.137388    0.997551
     13          6           0       -2.154820   -3.755852   -0.198299
     14          6           0       -0.806631   -4.542855   -0.162010
     15          8           0       -0.492432   -5.388689   -0.977269
     16          8           0       -0.052880   -4.154373    0.894951
     17          7           0       -2.747117    2.206215    1.562668
     18          6           0       -1.908454    1.536844    2.483388
     19          6           0       -1.040576    2.453546    3.131126
     20          6           0       -1.298437    3.728589    2.563227
     21          6           0       -2.305737    3.496698    1.515307
     22          6           0       -0.025182    2.046009    4.205036
     23          6           0       -0.596003    5.095987    2.917475
     24          8           0        0.354625    5.059939    3.795641
     25          6           0       -0.905059    6.398153    2.323187
     26          7           0       -4.691489    3.267558   -0.451114
     27          6           0       -3.911214    4.371734   -0.307982
     28          6           0       -4.488971    5.507122   -1.198072
     29          6           0       -5.618019    4.836468   -2.090336
     30          6           0       -5.800571    3.524340   -1.368274
     31          6           0       -5.012738    6.709082   -0.368344
     32          6           0       -5.304790    4.505135   -3.630421
     33          6           0       -6.364826    4.945525   -4.567972
     34          7           0       -5.992208    0.680123   -0.501860
     35          6           0       -6.905568    1.297589   -1.326543
     36          6           0       -7.890295    0.323384   -1.720035
     37          6           0       -7.490586   -0.857865   -1.129894
     38          6           0       -6.298396   -0.614961   -0.452795
     39          6           0       -8.910841    0.710028   -2.618267
     40          6           0       -7.826452   -2.284507   -1.012838
     41          8           0       -8.782237   -2.822989   -1.485903
     42          6           0       -6.636506   -2.902587   -0.235696
     43          6           0       -6.055947   -3.979527   -1.126269
     44          8           0       -5.539369   -3.775679   -2.228313
     45          8           0       -6.127911   -5.137519   -0.416109
     46          6           0       -5.496410   -6.383048   -1.054785
     47          6           0        1.222941   -4.856273    0.889751
     48          6           0        2.267402   -4.308196   -0.119413
     49          6           0        3.577971   -4.423347   -0.009379
     50          6           0        4.238716   -5.131678    1.148247
     51          6           0        4.521319   -3.639606   -0.889882
     52          6           0        4.788072   -2.223454   -0.310958
     53          6           0        5.193659   -1.079890   -1.416320
     54          6           0        6.326293   -0.250436   -0.842648
     55          6           0        6.216741    1.258214   -1.161313
     56          6           0        7.754788   -0.710222   -1.126122
     57          6           0        8.766996   -0.708225   -0.011000
     58          6           0        9.494345    0.716456    0.140977
     59          6           0       11.046738    0.641170    0.363477
     60          6           0       11.259085    0.620890    1.890200
     61          6           0       11.831193    1.861355   -0.310244
     62          6           0       12.545830    1.532668   -1.635605
     63          6           0       14.042629    1.988352   -1.717494
     64          6           0       14.905056    0.722977   -1.446558
     65          6           0       15.962354    1.012087   -0.462556
     66          6           0       15.301402   -0.197065   -2.589833
     67          1           0       -1.511642   -0.156153    3.759840
     68          1           0       -2.510308    5.439561    0.655082
     69          1           0       -7.481251    2.997985   -2.454565
     70          1           0       -4.725226   -3.595766    2.199940
     71          1           0       -2.039100   -2.716460    2.843011
     72          1           0       -3.026110   -3.184238    4.784797
     73          1           0       -4.639886   -2.575281    4.249179
     74          1           0       -3.347733   -1.453610    4.829820
     75          1           0       -3.791861   -4.927339    0.605066
     76          1           0       -2.443440   -4.582284    1.697528
     77          1           0       -2.011882   -2.675738   -0.174678
     78          1           0       -2.649032   -3.936454   -1.152040
     79          1           0        0.965708    2.339242    3.858164
     80          1           0        0.034237    0.976266    4.407170
     81          1           0       -0.039476    2.504654    5.193729
     82          1           0       -0.612736    6.524415    1.281262
     83          1           0       -0.397485    7.130598    2.950102
     84          1           0       -1.963865    6.609429    2.475982
     85          1           0       -3.713727    5.922527   -1.842536
     86          1           0       -6.499668    5.470513   -1.987792
     87          1           0       -4.621622    7.687361   -0.647059
     88          1           0       -4.725583    6.541348    0.670269
     89          1           0       -6.091833    6.698002   -0.217975
     90          1           0       -5.134640    3.430652   -3.706332
     91          1           0       -4.346514    4.932366   -3.925189
     92          1           0       -6.063245    5.821943   -5.142594
     93          1           0       -7.314640    5.203148   -4.099173
     94          1           0       -6.579419    4.081801   -5.196471
     95          1           0       -9.386206    1.570101   -2.147455
     96          1           0       -9.672148   -0.070713   -2.636419
     97          1           0       -8.543662    1.147642   -3.546462
     98          1           0       -6.992401   -3.228054    0.742063
     99          1           0       -4.415068   -6.371283   -0.921500
    100          1           0       -5.701033   -6.296227   -2.120939
    101          1           0       -5.816418   -7.375884   -0.738033
    102          1           0        1.144726   -5.941399    0.960506
    103          1           0        1.558450   -4.638403    1.903237
    104          1           0        1.941236   -3.603329   -0.884114
    105          1           0        4.492287   -4.591772    2.060374
    106          1           0        5.163115   -5.633073    0.863176
    107          1           0        3.672867   -6.028877    1.400914
    108          1           0        4.054011   -3.472926   -1.860196
    109          1           0        5.521803   -4.059492   -0.991910
    110          1           0        5.534597   -2.431494    0.455509
    111          1           0        3.853134   -1.941738    0.172271
    112          1           0        4.319571   -0.542466   -1.784857
    113          1           0        5.650485   -1.589629   -2.264098
    114          1           0        6.308981   -0.194436    0.245812
    115          1           0        5.927752    1.803221   -0.263058
    116          1           0        5.530528    1.456181   -1.985338
    117          1           0        7.184447    1.709776   -1.379190
    118          1           0        8.077180   -0.284406   -2.075693
    119          1           0        7.769082   -1.777987   -1.344388
    120          1           0        9.564465   -1.380539   -0.329736
    121          1           0        8.386127   -1.077071    0.941372
    122          1           0        9.058367    1.202972    1.013797
    123          1           0        9.230560    1.359530   -0.698660
    124          1           0       11.540677   -0.288192    0.078186
    125          1           0       11.312030    1.680728    2.141497
    126          1           0       12.210935    0.145018    2.127564
    127          1           0       10.461995    0.111415    2.431709
    128          1           0       12.613336    2.187864    0.374966
    129          1           0       11.132957    2.664999   -0.544273
    130          1           0       11.973759    2.088706   -2.377090
    131          1           0       12.351440    0.492484   -1.899391
    132          1           0       14.205230    2.805513   -1.014613
    133          1           0       14.131625    2.234638   -2.776103
    134          1           0       14.250099    0.033252   -0.914878
    135          1           0       15.817614    2.039794   -0.128232
    136          1           0       16.956854    0.887323   -0.891349
    137          1           0       15.841422    0.247302    0.304163
    138          1           0       15.039948    0.115381   -3.600020
    139          1           0       14.905076   -1.209408   -2.509648
    140          1           0       16.370752   -0.405160   -2.631091
 ---------------------------------------------------------------------

 SCF Done:  E(RCAM-B3LYP) =  -3007.11687330     A.U. after   18 cycles

 Excitation energies and oscillator strengths:

 Excited State   1:      Singlet-A      1.6671 eV  743.72 nm  f=0.3592  <S**2>=0.000
     245 -> 248        0.18526
     246 -> 247        0.68480
     245 <- 248        0.11080
 This state for optimization and/or second-order correction.
 Total Energy, E(TD-HF/TD-DFT) =  -3007.05560896
 Copying the excited state density for this state as the 1-particle RhoCI density.

 Excited State   2:      Singlet-A      2.2454 eV  552.17 nm  f=0.0919  <S**2>=0.000
     245 -> 247        0.62801
     246 -> 248       -0.31277

 Excited State   3:      Singlet-A      3.3155 eV  373.95 nm  f=0.0119  <S**2>=0.000
     242 -> 247        0.50028
     243 -> 247       -0.40626
     246 -> 248        0.16025

 Excited State   4:      Singlet-A      3.4073 eV  363.88 nm  f=0.0759  <S**2>=0.000
     240 -> 247       -0.10548
     240 -> 249        0.15861
     241 -> 247       -0.17390
     242 -> 247        0.20393
     243 -> 247        0.49265
     245 -> 247        0.10201
     246 -> 248        0.27899

 Excited State   5:      Singlet-A      3.4476 eV  359.62 nm  f=0.0887  <S**2>=0.000
     239 -> 247        0.20515
     239 -> 249       -0.18329
     240 -> 247        0.31979
     240 -> 249       -0.22116
     240 -> 250        0.14308
     241 -> 247        0.18731
     241 -> 249       -0.17785
     242 -> 247        0.20940
     243 -> 247        0.10590
     245 -> 247        0.10286
     246 -> 248        0.26379

 The electronic state is 1-A.
 Alpha  occ. eigenvalues --  -46.88739 -19.26343 -19.25885 -19.20423 -19.19603
 Alpha  occ. eigenvalues --  -19.19482 -19.18712 -14.42776 -14.41627 -14.39927
 Alpha  occ. eigenvalues --  -14.39249 -10.40209 -10.39022 -10.35934 -10.34961
 Alpha  occ. eigenvalues --  -10.32751 -10.32319 -10.32076 -10.32044 -10.31369
 Alpha  occ. eigenvalues --  -10.31309 -10.31191 -10.30301 -10.29200 -10.29091
 Alpha  occ. eigenvalues --  -10.28769 -10.28725 -10.28700 -10.28694 -10.28555
 Alpha  occ. eigenvalues --  -10.28480 -10.28287 -10.28177 -10.27951 -10.27159
 Alpha  occ. eigenvalues --  -10.26747 -10.26719 -10.26706 -10.26660 -10.26659
 Alpha  occ. eigenvalues --  -10.26568 -10.26480 -10.26420 -10.26334 -10.25914
 Alpha  occ. eigenvalues --  -10.25745 -10.25631 -10.25628 -10.25627 -10.25536
 Alpha  occ. eigenvalues --  -10.25414 -10.25290 -10.25175 -10.25097 -10.24870
 Alpha  occ. eigenvalues --  -10.24819 -10.24741 -10.24615 -10.24532 -10.24402
 Alpha  occ. eigenvalues --  -10.24285 -10.24222 -10.24129 -10.23970 -10.23720
 Alpha  occ. eigenvalues --  -10.23526  -3.17304  -1.92188  -1.91774  -1.91600
 Alpha  occ. eigenvalues --   -1.17406  -1.15970  -1.11668  -1.08149  -1.07778
 Alpha  occ. eigenvalues --   -1.06371  -1.04463  -1.02939  -1.02202  -1.01420
 Alpha  occ. eigenvalues --   -0.93208  -0.90474  -0.89660  -0.89628  -0.89141
 Alpha  occ. eigenvalues --   -0.88347  -0.88082  -0.87684  -0.87212  -0.87057
 Alpha  occ. eigenvalues --   -0.85785  -0.84917  -0.84466  -0.83995  -0.83195
 Alpha  occ. eigenvalues --   -0.82883  -0.82276  -0.81499  -0.80998  -0.80645
 Alpha  occ. eigenvalues --   -0.79620  -0.78041  -0.77882  -0.77202  -0.76571
 Alpha  occ. eigenvalues --   -0.75987  -0.75756  -0.75162  -0.74300  -0.74221
 Alpha  occ. eigenvalues --   -0.73505  -0.72834  -0.71928  -0.70322  -0.69056
 Alpha  occ. eigenvalues --   -0.68663  -0.67738  -0.66884  -0.66286  -0.65767
 Alpha  occ. eigenvalues --   -0.65290  -0.64891  -0.64689  -0.64174  -0.63286
 Alpha  occ. eigenvalues --   -0.63170  -0.62824  -0.62666  -0.62443  -0.60494
 Alpha  occ. eigenvalues --   -0.60207  -0.59444  -0.59193  -0.58775  -0.58309
 Alpha  occ. eigenvalues --   -0.58035  -0.56891  -0.56593  -0.56131  -0.55501
 Alpha  occ. eigenvalues --   -0.55282  -0.55074  -0.54842  -0.54255  -0.54016
 Alpha  occ. eigenvalues --   -0.53543  -0.53150  -0.53021  -0.52735  -0.52662
 Alpha  occ. eigenvalues --   -0.52622  -0.52342  -0.52116  -0.51950  -0.51862
 Alpha  occ. eigenvalues --   -0.51574  -0.51452  -0.51366  -0.51186  -0.50875
 Alpha  occ. eigenvalues --   -0.50785  -0.50270  -0.50158  -0.49851  -0.49606
 Alpha  occ. eigenvalues --   -0.49541  -0.49475  -0.49126  -0.48786  -0.48519
 Alpha  occ. eigenvalues --   -0.48441  -0.48286  -0.48199  -0.47777  -0.47598
 Alpha  occ. eigenvalues --   -0.47317  -0.47256  -0.46929  -0.46648  -0.46470
 Alpha  occ. eigenvalues --   -0.46273  -0.46215  -0.46010  -0.45813  -0.45594
 Alpha  occ. eigenvalues --   -0.45416  -0.45262  -0.44987  -0.44773  -0.44671
 Alpha  occ. eigenvalues --   -0.44555  -0.44474  -0.44337  -0.44045  -0.43945
 Alpha  occ. eigenvalues --   -0.43688  -0.43443  -0.43389  -0.43331  -0.43165
 Alpha  occ. eigenvalues --   -0.42867  -0.42733  -0.42306  -0.42194  -0.41974
 Alpha  occ. eigenvalues --   -0.41765  -0.41635  -0.41508  -0.41177  -0.41124
 Alpha  occ. eigenvalues --   -0.40646  -0.40555  -0.40361  -0.40184  -0.40014
 Alpha  occ. eigenvalues --   -0.39753  -0.39737  -0.39670  -0.39220  -0.38991
 Alpha  occ. eigenvalues --   -0.38646  -0.38373  -0.38105  -0.37805  -0.37490
 Alpha  occ. eigenvalues --   -0.37028  -0.36981  -0.36722  -0.36427  -0.35974
 Alpha  occ. eigenvalues --   -0.35453  -0.35213  -0.35034  -0.34500  -0.34252
 Alpha  occ. eigenvalues --   -0.33919  -0.33713  -0.33294  -0.31192  -0.31130
 Alpha  occ. eigenvalues --   -0.31065  -0.29991  -0.29777  -0.29763  -0.24415
 Alpha  occ. eigenvalues --   -0.21289
 Alpha virt. eigenvalues --   -0.08936  -0.02248   0.00016   0.01898   0.02402
 Alpha virt. eigenvalues --    0.04922   0.05061   0.05626   0.06044   0.06448
 Alpha virt. eigenvalues --    0.07589   0.08228   0.08483   0.08784   0.09025

 Mulliken charges:
               1
     1  Mg   0.827664
     2  C   -0.024367
     3  C   -0.068900
     4  C   -0.075808
     5  C   -0.067609
     6  N   -0.242930
     7  C   -0.013382
     8  C   -0.005023
     9  C   -0.070791
    10  C    0.016142
    11  C    0.064990
    12  C    0.011152
    13  C    0.053218
    14  C    0.134730
    15  O   -0.221049
    16  O   -0.311757
    17  N   -0.396106
    18  C    0.149487
    19  C   -0.115464
    20  C   -0.023820
    21  C    0.159761
    22  C    0.120224
    23  C    0.017041
    24  O   -0.270711
    25  C    0.075334
    26  N   -0.387798
    27  C    0.064016
    28  C   -0.029049
    29  C   -0.021581
    30  C    0.040749
    31  C    0.064945
    32  C    0.042896
    33  C    0.006780
    34  N   -0.339767
    35  C    0.093304
    36  C   -0.162712
    37  C   -0.008443
    38  C    0.109933
    39  C    0.133077
    40  C    0.035009
    41  O   -0.126311
    42  C    0.011539
    43  C    0.226269
    44  O   -0.224392
    45  O   -0.339262
    46  C    0.160202
    47  C    0.262175
    48  C   -0.062870
    49  C   -0.171975
    50  C    0.057913
    51  C    0.073057
    52  C   -0.018835
    53  C    0.106816
    54  C   -0.122242
    55  C    0.050344
    56  C    0.024411
    57  C    0.033695
    58  C    0.039047
    59  C   -0.138081
    60  C    0.032801
    61  C    0.054200
    62  C   -0.023737
    63  C    0.087987
    64  C   -0.166136
    65  C    0.075731
    66  C    0.046693
    67  H   -0.006474
    68  H   -0.060412
    69  H   -0.030765
    70  H    0.002155
    71  H    0.019673
    72  H    0.020478
    73  H    0.022148
    74  H    0.017694
    75  H    0.009311
    76  H    0.013437
    77  H    0.034326
    78  H    0.028237
    79  H    0.030727
    80  H   -0.004487
    81  H    0.030793
    82  H    0.061670
    83  H    0.029605
    84  H    0.034825
    85  H    0.004306
    86  H    0.012722
    87  H    0.027284
    88  H    0.000761
    89  H    0.010610
    90  H    0.025593
    91  H    0.003437
    92  H    0.023416
    93  H    0.012146
    94  H    0.018005
    95  H    0.009062
    96  H    0.031330
    97  H    0.030473
    98  H    0.043553
    99  H    0.047607
   100  H    0.055382
   101  H    0.052420
   102  H    0.036255
   103  H    0.011284
   104  H   -0.000938
   105  H    0.037940
   106  H   -0.000330
   107  H    0.003331
   108  H    0.003346
   109  H   -0.003733
   110  H    0.000341
   111  H    0.003154
   112  H    0.008743
   113  H   -0.003697
   114  H   -0.010289
   115  H    0.003116
   116  H    0.004175
   117  H   -0.009351
   118  H   -0.005784
   119  H   -0.026476
   120  H   -0.004764
   121  H    0.004442
   122  H   -0.006542
   123  H   -0.004685
   124  H   -0.002979
   125  H    0.008288
   126  H    0.001785
   127  H    0.009746
   128  H   -0.013212
   129  H    0.002668
   130  H   -0.020233
   131  H   -0.001585
   132  H    0.007825
   133  H   -0.005159
   134  H   -0.001397
   135  H    0.000588
   136  H   -0.001530
   137  H    0.005181
   138  H    0.002329
   139  H    0.000584
   140  H   -0.005908
 Sum of Mulliken charges =  -0.00000

 Dipole moment (field-independent basis, Debye):
    X=              0.2645    Y=              2.1224    Z=              2.0006  Tot=              2.9287
 Quadrupole moment (field-independent basis, Debye-Ang):
   XX=           -420.0718   YY=           -377.4001   ZZ=           -409.7700
   XY=            -40.9732   XZ=            -15.8550   YZ=            -41.3389

 Normal termination of Gaussian 16 at Fri Apr 29 11:48:38 2022.
