 Gaussian 16, Revision A.03,
 Gaussian 16:  ES64L-G16RevA.03 25-Dec-2016

 ---------------------------------
 #p PBE1PBE/Def2SVP td=(nstates=5)
 ---------------------------------

 -----------------------------------------------------
 step_301_chromophore_11 TDDFT with PBE1PBE functional
 -----------------------------------------------------
 Symbolic Z-matrix:
 Charge =  0 Multiplicity = 1

                         Standard orientation:
 ---------------------------------------------------------------------
 Center     Atomic      Atomic             Coordinates (Angstroms)
 Number     Number       Type             X           Y           Z
 ---------------------------------------------------------------------
      1         12           0       -4.414243    1.513644    0.561334
      2          6           0       -5.652703   -1.798322    0.014778
      3          6           0       -2.003949    0.148312    2.833971
      4          6           0       -2.930825    4.432039    0.627695
      5          6           0       -6.853861    2.656766   -1.628639
      6          7           0       -3.648805   -0.729392    1.088281
      7          6           0       -4.464638   -1.815524    0.817932
      8          6           0       -3.942459   -3.013043    1.715004
      9          6           0       -3.039728   -2.284388    2.806267
     10          6           0       -2.868670   -0.875883    2.209989
     11          6           0       -3.568746   -2.376567    4.292421
     12          6           0       -3.151711   -4.137388    0.997551
     13          6           0       -2.154820   -3.755852   -0.198299
     14          6           0       -0.806631   -4.542855   -0.162010
     15          8           0       -0.492432   -5.388689   -0.977269
     16          8           0       -0.052880   -4.154373    0.894951
     17          7           0       -2.747117    2.206215    1.562668
     18          6           0       -1.908454    1.536844    2.483388
     19          6           0       -1.040576    2.453546    3.131126
     20          6           0       -1.298437    3.728589    2.563227
     21          6           0       -2.305737    3.496698    1.515307
     22          6           0       -0.025182    2.046009    4.205036
     23          6           0       -0.596003    5.095987    2.917475
     24          8           0        0.354625    5.059939    3.795641
     25          6           0       -0.905059    6.398153    2.323187
     26          7           0       -4.691489    3.267558   -0.451114
     27          6           0       -3.911214    4.371734   -0.307982
     28          6           0       -4.488971    5.507122   -1.198072
     29          6           0       -5.618019    4.836468   -2.090336
     30          6           0       -5.800571    3.524340   -1.368274
     31          6           0       -5.012738    6.709082   -0.368344
     32          6           0       -5.304790    4.505135   -3.630421
     33          6           0       -6.364826    4.945525   -4.567972
     34          7           0       -5.992208    0.680123   -0.501860
     35          6           0       -6.905568    1.297589   -1.326543
     36          6           0       -7.890295    0.323384   -1.720035
     37          6           0       -7.490586   -0.857865   -1.129894
     38          6           0       -6.298396   -0.614961   -0.452795
     39          6           0       -8.910841    0.710028   -2.618267
     40          6           0       -7.826452   -2.284507   -1.012838
     41          8           0       -8.782237   -2.822989   -1.485903
     42          6           0       -6.636506   -2.902587   -0.235696
     43          6           0       -6.055947   -3.979527   -1.126269
     44          8           0       -5.539369   -3.775679   -2.228313
     45          8           0       -6.127911   -5.137519   -0.416109
     46          6           0       -5.496410   -6.383048   -1.054785
     47          6           0        1.222941   -4.856273    0.889751
     48          6           0        2.267402   -4.308196   -0.119413
     49          6           0        3.577971   -4.423347   -0.009379
     50          6           0        4.238716   -5.131678    1.148247
     51          6           0        4.521319   -3.639606   -0.889882
     52          6           0        4.788072   -2.223454   -0.310958
     53          6           0        5.193659   -1.079890   -1.416320
     54          6           0        6.326293   -0.250436   -0.842648
     55          6           0        6.216741    1.258214   -1.161313
     56          6           0        7.754788   -0.710222   -1.126122
     57          6           0        8.766996   -0.708225   -0.011000
     58          6           0        9.494345    0.716456    0.140977
     59          6           0       11.046738    0.641170    0.363477
     60          6           0       11.259085    0.620890    1.890200
     61          6           0       11.831193    1.861355   -0.310244
     62          6           0       12.545830    1.532668   -1.635605
     63          6           0       14.042629    1.988352   -1.717494
     64          6           0       14.905056    0.722977   -1.446558
     65          6           0       15.962354    1.012087   -0.462556
     66          6           0       15.301402   -0.197065   -2.589833
     67          1           0       -1.511642   -0.156153    3.759840
     68          1           0       -2.510308    5.439561    0.655082
     69          1           0       -7.481251    2.997985   -2.454565
     70          1           0       -4.725226   -3.595766    2.199940
     71          1           0       -2.039100   -2.716460    2.843011
     72          1           0       -3.026110   -3.184238    4.784797
     73          1           0       -4.639886   -2.575281    4.249179
     74          1           0       -3.347733   -1.453610    4.829820
     75          1           0       -3.791861   -4.927339    0.605066
     76          1           0       -2.443440   -4.582284    1.697528
     77          1           0       -2.011882   -2.675738   -0.174678
     78          1           0       -2.649032   -3.936454   -1.152040
     79          1           0        0.965708    2.339242    3.858164
     80          1           0        0.034237    0.976266    4.407170
     81          1           0       -0.039476    2.504654    5.193729
     82          1           0       -0.612736    6.524415    1.281262
     83          1           0       -0.397485    7.130598    2.950102
     84          1           0       -1.963865    6.609429    2.475982
     85          1           0       -3.713727    5.922527   -1.842536
     86          1           0       -6.499668    5.470513   -1.987792
     87          1           0       -4.621622    7.687361   -0.647059
     88          1           0       -4.725583    6.541348    0.670269
     89          1           0       -6.091833    6.698002   -0.217975
     90          1           0       -5.134640    3.430652   -3.706332
     91          1           0       -4.346514    4.932366   -3.925189
     92          1           0       -6.063245    5.821943   -5.142594
     93          1           0       -7.314640    5.203148   -4.099173
     94          1           0       -6.579419    4.081801   -5.196471
     95          1           0       -9.386206    1.570101   -2.147455
     96          1           0       -9.672148   -0.070713   -2.636419
     97          1           0       -8.543662    1.147642   -3.546462
     98          1           0       -6.992401   -3.228054    0.742063
     99          1           0       -4.415068   -6.371283   -0.921500
    100          1           0       -5.701033   -6.296227   -2.120939
    101          1           0       -5.816418   -7.375884   -0.738033
    102          1           0        1.144726   -5.941399    0.960506
    103          1           0        1.558450   -4.638403    1.903237
    104          1           0        1.941236   -3.603329   -0.884114
    105          1           0        4.492287   -4.591772    2.060374
    106          1           0        5.163115   -5.633073    0.863176
    107          1           0        3.672867   -6.028877    1.400914
    108          1           0        4.054011   -3.472926   -1.860196
    109          1           0        5.521803   -4.059492   -0.991910
    110          1           0        5.534597   -2.431494    0.455509
    111          1           0        3.853134   -1.941738    0.172271
    112          1           0        4.319571   -0.542466   -1.784857
    113          1           0        5.650485   -1.589629   -2.264098
    114          1           0        6.308981   -0.194436    0.245812
    115          1           0        5.927752    1.803221   -0.263058
    116          1           0        5.530528    1.456181   -1.985338
    117          1           0        7.184447    1.709776   -1.379190
    118          1           0        8.077180   -0.284406   -2.075693
    119          1           0        7.769082   -1.777987   -1.344388
    120          1           0        9.564465   -1.380539   -0.329736
    121          1           0        8.386127   -1.077071    0.941372
    122          1           0        9.058367    1.202972    1.013797
    123          1           0        9.230560    1.359530   -0.698660
    124          1           0       11.540677   -0.288192    0.078186
    125          1           0       11.312030    1.680728    2.141497
    126          1           0       12.210935    0.145018    2.127564
    127          1           0       10.461995    0.111415    2.431709
    128          1           0       12.613336    2.187864    0.374966
    129          1           0       11.132957    2.664999   -0.544273
    130          1           0       11.973759    2.088706   -2.377090
    131          1           0       12.351440    0.492484   -1.899391
    132          1           0       14.205230    2.805513   -1.014613
    133          1           0       14.131625    2.234638   -2.776103
    134          1           0       14.250099    0.033252   -0.914878
    135          1           0       15.817614    2.039794   -0.128232
    136          1           0       16.956854    0.887323   -0.891349
    137          1           0       15.841422    0.247302    0.304163
    138          1           0       15.039948    0.115381   -3.600020
    139          1           0       14.905076   -1.209408   -2.509648
    140          1           0       16.370752   -0.405160   -2.631091
 ---------------------------------------------------------------------

 SCF Done:  E(RPBE1PBE) =  -3005.30515629     A.U. after   15 cycles

 Excitation energies and oscillator strengths:

 Excited State   1:      Singlet-A      1.8241 eV  679.70 nm  f=0.3496  <S**2>=0.000
     245 -> 248       -0.17979
     246 -> 247        0.69218
     246 <- 247       -0.10718
 This state for optimization and/or second-order correction.
 Total Energy, E(TD-HF/TD-DFT) =  -3005.23812206
 Copying the excited state density for this state as the 1-particle RhoCI density.

 Excited State   2:      Singlet-A      2.2433 eV  552.69 nm  f=0.0913  <S**2>=0.000
     245 -> 247        0.63914
     246 -> 248        0.28908

 Excited State   3:      Singlet-A      2.9408 eV  421.60 nm  f=0.0007  <S**2>=0.000
     241 -> 247        0.21730
     241 -> 249        0.14115
     242 -> 247       -0.10770
     243 -> 247        0.62290

 Excited State   4:      Singlet-A      3.0107 eV  411.81 nm  f=0.0000  <S**2>=0.000
     240 -> 247        0.18017
     241 -> 247       -0.20631
     242 -> 247        0.59100
     243 -> 247        0.21638

 Excited State   5:      Singlet-A      3.0725 eV  403.53 nm  f=0.0001  <S**2>=0.000
     240 -> 247        0.20550
     241 -> 247        0.57513
     242 -> 247        0.21026
     243 -> 247       -0.19675
     246 -> 248       -0.10985

 The electronic state is 1-A.
 Alpha  occ. eigenvalues --  -46.92143 -19.26997 -19.26533 -19.20658 -19.19871
 Alpha  occ. eigenvalues --  -19.19722 -19.18894 -14.42128 -14.41366 -14.39523
 Alpha  occ. eigenvalues --  -14.38932 -10.37222 -10.36056 -10.33047 -10.32158
 Alpha  occ. eigenvalues --  -10.29963 -10.29926 -10.29764 -10.29710 -10.29234
 Alpha  occ. eigenvalues --  -10.28810 -10.28801 -10.27884 -10.26922 -10.26895
 Alpha  occ. eigenvalues --  -10.26558 -10.26538 -10.26305 -10.26212 -10.26210
 Alpha  occ. eigenvalues --  -10.26168 -10.26157 -10.25964 -10.25604 -10.24810
 Alpha  occ. eigenvalues --  -10.24569 -10.24400 -10.24367 -10.24192 -10.24149
 Alpha  occ. eigenvalues --  -10.24105 -10.24021 -10.23987 -10.23924 -10.23248
 Alpha  occ. eigenvalues --  -10.23247 -10.23242 -10.23180 -10.23107 -10.22981
 Alpha  occ. eigenvalues --  -10.22972 -10.22856 -10.22700 -10.22615 -10.22479
 Alpha  occ. eigenvalues --  -10.22448 -10.22306 -10.22200 -10.22175 -10.22173
 Alpha  occ. eigenvalues --  -10.21755 -10.21678 -10.21655 -10.21346 -10.21098
 Alpha  occ. eigenvalues --  -10.20880  -3.14287  -1.87112  -1.86677  -1.86504
 Alpha  occ. eigenvalues --   -1.12215  -1.10713  -1.06474  -1.03003  -1.02586
 Alpha  occ. eigenvalues --   -1.00984  -0.99245  -0.97487  -0.96743  -0.96037
 Alpha  occ. eigenvalues --   -0.87581  -0.84570  -0.84019  -0.83707  -0.83236
 Alpha  occ. eigenvalues --   -0.82641  -0.82437  -0.82002  -0.81345  -0.81302
 Alpha  occ. eigenvalues --   -0.80002  -0.79110  -0.78788  -0.78163  -0.77370
 Alpha  occ. eigenvalues --   -0.77111  -0.76425  -0.75798  -0.75278  -0.74866
 Alpha  occ. eigenvalues --   -0.73822  -0.72424  -0.72168  -0.71396  -0.70864
 Alpha  occ. eigenvalues --   -0.70076  -0.69906  -0.69506  -0.68424  -0.68380
 Alpha  occ. eigenvalues --   -0.67771  -0.67289  -0.66346  -0.64632  -0.63436
 Alpha  occ. eigenvalues --   -0.63182  -0.61950  -0.61321  -0.60522  -0.60200
 Alpha  occ. eigenvalues --   -0.59491  -0.59473  -0.59165  -0.58666  -0.57587
 Alpha  occ. eigenvalues --   -0.57371  -0.57275  -0.57031  -0.56620  -0.55036
 Alpha  occ. eigenvalues --   -0.54503  -0.54098  -0.53764  -0.53208  -0.52884
 Alpha  occ. eigenvalues --   -0.52618  -0.51304  -0.51136  -0.50617  -0.50067
 Alpha  occ. eigenvalues --   -0.49840  -0.49541  -0.49324  -0.48872  -0.48368
 Alpha  occ. eigenvalues --   -0.48103  -0.47846  -0.47483  -0.47291  -0.47264
 Alpha  occ. eigenvalues --   -0.47128  -0.46772  -0.46533  -0.46489  -0.46418
 Alpha  occ. eigenvalues --   -0.46114  -0.45993  -0.45853  -0.45720  -0.45587
 Alpha  occ. eigenvalues --   -0.45410  -0.44793  -0.44732  -0.44440  -0.44073
 Alpha  occ. eigenvalues --   -0.44016  -0.44006  -0.43660  -0.43408  -0.43151
 Alpha  occ. eigenvalues --   -0.43096  -0.42846  -0.42799  -0.42335  -0.42280
 Alpha  occ. eigenvalues --   -0.42067  -0.41944  -0.41638  -0.41311  -0.41152
 Alpha  occ. eigenvalues --   -0.40959  -0.40892  -0.40617  -0.40543  -0.40292
 Alpha  occ. eigenvalues --   -0.40139  -0.39832  -0.39784  -0.39499  -0.39422
 Alpha  occ. eigenvalues --   -0.39311  -0.39201  -0.39003  -0.38874  -0.38754
 Alpha  occ. eigenvalues --   -0.38343  -0.38167  -0.38107  -0.38099  -0.37942
 Alpha  occ. eigenvalues --   -0.37580  -0.37494  -0.37056  -0.36964  -0.36875
 Alpha  occ. eigenvalues --   -0.36556  -0.36519  -0.36341  -0.36035  -0.35897
 Alpha  occ. eigenvalues --   -0.35551  -0.35286  -0.35189  -0.35138  -0.34835
 Alpha  occ. eigenvalues --   -0.34539  -0.34468  -0.34418  -0.33996  -0.33908
 Alpha  occ. eigenvalues --   -0.33673  -0.33144  -0.33100  -0.32645  -0.32438
 Alpha  occ. eigenvalues --   -0.32133  -0.31904  -0.31588  -0.31500  -0.30882
 Alpha  occ. eigenvalues --   -0.30270  -0.30047  -0.29831  -0.29411  -0.29316
 Alpha  occ. eigenvalues --   -0.28907  -0.28845  -0.28519  -0.26805  -0.26137
 Alpha  occ. eigenvalues --   -0.25841  -0.25482  -0.25316  -0.24995  -0.21323
 Alpha  occ. eigenvalues --   -0.18932
 Alpha virt. eigenvalues --   -0.11406  -0.05726  -0.04220  -0.02559  -0.00322
 Alpha virt. eigenvalues --    0.00306   0.00514   0.01107   0.01526   0.02509
 Alpha virt. eigenvalues --    0.03758   0.04162   0.05222   0.05228   0.05727

 Mulliken charges:
               1
     1  Mg   0.975886
     2  C   -0.023709
     3  C   -0.062761
     4  C   -0.088658
     5  C   -0.058224
     6  N   -0.337971
     7  C    0.065467
     8  C   -0.071407
     9  C   -0.143944
    10  C    0.054873
    11  C    0.005105
    12  C   -0.047228
    13  C   -0.017005
    14  C    0.193502
    15  O   -0.252384
    16  O   -0.340565
    17  N   -0.507714
    18  C    0.167098
    19  C   -0.147390
    20  C   -0.068186
    21  C    0.187100
    22  C    0.068024
    23  C    0.063314
    24  O   -0.301101
    25  C   -0.001058
    26  N   -0.482639
    27  C    0.108544
    28  C   -0.106936
    29  C   -0.094309
    30  C    0.066707
    31  C    0.008467
    32  C   -0.013950
    33  C   -0.065380
    34  N   -0.470721
    35  C    0.119975
    36  C   -0.190516
    37  C   -0.058176
    38  C    0.156582
    39  C    0.073217
    40  C    0.145392
    41  O   -0.175374
    42  C   -0.112173
    43  C    0.319508
    44  O   -0.258794
    45  O   -0.370134
    46  C    0.103325
    47  C    0.218257
    48  C   -0.067676
    49  C   -0.221210
    50  C   -0.001830
    51  C    0.004745
    52  C   -0.077761
    53  C    0.047753
    54  C   -0.205474
    55  C   -0.008080
    56  C   -0.032907
    57  C   -0.031242
    58  C   -0.013929
    59  C   -0.221545
    60  C   -0.029462
    61  C    0.003477
    62  C   -0.086927
    63  C    0.025620
    64  C   -0.259893
    65  C    0.015259
    66  C   -0.008554
    67  H    0.022150
    68  H   -0.020723
    69  H    0.001993
    70  H    0.039084
    71  H    0.056679
    72  H    0.047717
    73  H    0.049228
    74  H    0.045884
    75  H    0.049725
    76  H    0.048447
    77  H    0.069070
    78  H    0.061620
    79  H    0.057793
    80  H    0.021580
    81  H    0.056723
    82  H    0.086065
    83  H    0.057443
    84  H    0.061450
    85  H    0.041327
    86  H    0.048893
    87  H    0.054073
    88  H    0.029369
    89  H    0.037738
    90  H    0.058262
    91  H    0.036378
    92  H    0.051493
    93  H    0.038152
    94  H    0.045539
    95  H    0.039295
    96  H    0.061182
    97  H    0.058937
    98  H    0.080039
    99  H    0.067573
   100  H    0.075922
   101  H    0.073490
   102  H    0.062498
   103  H    0.038389
   104  H    0.027956
   105  H    0.063438
   106  H    0.027458
   107  H    0.031159
   108  H    0.036581
   109  H    0.029217
   110  H    0.032603
   111  H    0.038051
   112  H    0.039302
   113  H    0.029639
   114  H    0.029932
   115  H    0.030693
   116  H    0.031584
   117  H    0.019488
   118  H    0.027201
   119  H    0.008152
   120  H    0.029029
   121  H    0.034781
   122  H    0.026630
   123  H    0.028050
   124  H    0.032615
   125  H    0.036760
   126  H    0.030227
   127  H    0.038185
   128  H    0.019782
   129  H    0.034271
   130  H    0.013667
   131  H    0.030471
   132  H    0.037609
   133  H    0.029212
   134  H    0.040494
   135  H    0.027765
   136  H    0.025978
   137  H    0.032187
   138  H    0.028933
   139  H    0.027182
   140  H    0.020945
 Sum of Mulliken charges =  -0.00000

 Dipole moment (field-independent basis, Debye):
    X=              0.0099    Y=              2.2354    Z=              1.7932  Tot=              2.8658
 Quadrupole moment (field-independent basis, Debye-Ang):
   XX=           -414.8798   YY=           -373.9593   ZZ=           -406.4181
   XY=            -42.7390   XZ=            -14.1595   YZ=            -42.9285

 Normal termination of Gaussian 16 at Fri Apr 29 12:07:48 2022.
