 Gaussian 16, Revision A.03,
 Gaussian 16:  ES64L-G16RevA.03 25-Dec-2016

 --------------------------------
 #p wB97XD/Def2SVP td=(nstates=5)
 --------------------------------

 ----------------------------------------------------
 step_301_chromophore_11 TDDFT with wB97XD functional
 ----------------------------------------------------
 Symbolic Z-matrix:
 Charge =  0 Multiplicity = 1

                         Standard orientation:
 ---------------------------------------------------------------------
 Center     Atomic      Atomic             Coordinates (Angstroms)
 Number     Number       Type             X           Y           Z
 ---------------------------------------------------------------------
      1         12           0       -4.414243    1.513644    0.561334
      2          6           0       -5.652703   -1.798322    0.014778
      3          6           0       -2.003949    0.148312    2.833971
      4          6           0       -2.930825    4.432039    0.627695
      5          6           0       -6.853861    2.656766   -1.628639
      6          7           0       -3.648805   -0.729392    1.088281
      7          6           0       -4.464638   -1.815524    0.817932
      8          6           0       -3.942459   -3.013043    1.715004
      9          6           0       -3.039728   -2.284388    2.806267
     10          6           0       -2.868670   -0.875883    2.209989
     11          6           0       -3.568746   -2.376567    4.292421
     12          6           0       -3.151711   -4.137388    0.997551
     13          6           0       -2.154820   -3.755852   -0.198299
     14          6           0       -0.806631   -4.542855   -0.162010
     15          8           0       -0.492432   -5.388689   -0.977269
     16          8           0       -0.052880   -4.154373    0.894951
     17          7           0       -2.747117    2.206215    1.562668
     18          6           0       -1.908454    1.536844    2.483388
     19          6           0       -1.040576    2.453546    3.131126
     20          6           0       -1.298437    3.728589    2.563227
     21          6           0       -2.305737    3.496698    1.515307
     22          6           0       -0.025182    2.046009    4.205036
     23          6           0       -0.596003    5.095987    2.917475
     24          8           0        0.354625    5.059939    3.795641
     25          6           0       -0.905059    6.398153    2.323187
     26          7           0       -4.691489    3.267558   -0.451114
     27          6           0       -3.911214    4.371734   -0.307982
     28          6           0       -4.488971    5.507122   -1.198072
     29          6           0       -5.618019    4.836468   -2.090336
     30          6           0       -5.800571    3.524340   -1.368274
     31          6           0       -5.012738    6.709082   -0.368344
     32          6           0       -5.304790    4.505135   -3.630421
     33          6           0       -6.364826    4.945525   -4.567972
     34          7           0       -5.992208    0.680123   -0.501860
     35          6           0       -6.905568    1.297589   -1.326543
     36          6           0       -7.890295    0.323384   -1.720035
     37          6           0       -7.490586   -0.857865   -1.129894
     38          6           0       -6.298396   -0.614961   -0.452795
     39          6           0       -8.910841    0.710028   -2.618267
     40          6           0       -7.826452   -2.284507   -1.012838
     41          8           0       -8.782237   -2.822989   -1.485903
     42          6           0       -6.636506   -2.902587   -0.235696
     43          6           0       -6.055947   -3.979527   -1.126269
     44          8           0       -5.539369   -3.775679   -2.228313
     45          8           0       -6.127911   -5.137519   -0.416109
     46          6           0       -5.496410   -6.383048   -1.054785
     47          6           0        1.222941   -4.856273    0.889751
     48          6           0        2.267402   -4.308196   -0.119413
     49          6           0        3.577971   -4.423347   -0.009379
     50          6           0        4.238716   -5.131678    1.148247
     51          6           0        4.521319   -3.639606   -0.889882
     52          6           0        4.788072   -2.223454   -0.310958
     53          6           0        5.193659   -1.079890   -1.416320
     54          6           0        6.326293   -0.250436   -0.842648
     55          6           0        6.216741    1.258214   -1.161313
     56          6           0        7.754788   -0.710222   -1.126122
     57          6           0        8.766996   -0.708225   -0.011000
     58          6           0        9.494345    0.716456    0.140977
     59          6           0       11.046738    0.641170    0.363477
     60          6           0       11.259085    0.620890    1.890200
     61          6           0       11.831193    1.861355   -0.310244
     62          6           0       12.545830    1.532668   -1.635605
     63          6           0       14.042629    1.988352   -1.717494
     64          6           0       14.905056    0.722977   -1.446558
     65          6           0       15.962354    1.012087   -0.462556
     66          6           0       15.301402   -0.197065   -2.589833
     67          1           0       -1.511642   -0.156153    3.759840
     68          1           0       -2.510308    5.439561    0.655082
     69          1           0       -7.481251    2.997985   -2.454565
     70          1           0       -4.725226   -3.595766    2.199940
     71          1           0       -2.039100   -2.716460    2.843011
     72          1           0       -3.026110   -3.184238    4.784797
     73          1           0       -4.639886   -2.575281    4.249179
     74          1           0       -3.347733   -1.453610    4.829820
     75          1           0       -3.791861   -4.927339    0.605066
     76          1           0       -2.443440   -4.582284    1.697528
     77          1           0       -2.011882   -2.675738   -0.174678
     78          1           0       -2.649032   -3.936454   -1.152040
     79          1           0        0.965708    2.339242    3.858164
     80          1           0        0.034237    0.976266    4.407170
     81          1           0       -0.039476    2.504654    5.193729
     82          1           0       -0.612736    6.524415    1.281262
     83          1           0       -0.397485    7.130598    2.950102
     84          1           0       -1.963865    6.609429    2.475982
     85          1           0       -3.713727    5.922527   -1.842536
     86          1           0       -6.499668    5.470513   -1.987792
     87          1           0       -4.621622    7.687361   -0.647059
     88          1           0       -4.725583    6.541348    0.670269
     89          1           0       -6.091833    6.698002   -0.217975
     90          1           0       -5.134640    3.430652   -3.706332
     91          1           0       -4.346514    4.932366   -3.925189
     92          1           0       -6.063245    5.821943   -5.142594
     93          1           0       -7.314640    5.203148   -4.099173
     94          1           0       -6.579419    4.081801   -5.196471
     95          1           0       -9.386206    1.570101   -2.147455
     96          1           0       -9.672148   -0.070713   -2.636419
     97          1           0       -8.543662    1.147642   -3.546462
     98          1           0       -6.992401   -3.228054    0.742063
     99          1           0       -4.415068   -6.371283   -0.921500
    100          1           0       -5.701033   -6.296227   -2.120939
    101          1           0       -5.816418   -7.375884   -0.738033
    102          1           0        1.144726   -5.941399    0.960506
    103          1           0        1.558450   -4.638403    1.903237
    104          1           0        1.941236   -3.603329   -0.884114
    105          1           0        4.492287   -4.591772    2.060374
    106          1           0        5.163115   -5.633073    0.863176
    107          1           0        3.672867   -6.028877    1.400914
    108          1           0        4.054011   -3.472926   -1.860196
    109          1           0        5.521803   -4.059492   -0.991910
    110          1           0        5.534597   -2.431494    0.455509
    111          1           0        3.853134   -1.941738    0.172271
    112          1           0        4.319571   -0.542466   -1.784857
    113          1           0        5.650485   -1.589629   -2.264098
    114          1           0        6.308981   -0.194436    0.245812
    115          1           0        5.927752    1.803221   -0.263058
    116          1           0        5.530528    1.456181   -1.985338
    117          1           0        7.184447    1.709776   -1.379190
    118          1           0        8.077180   -0.284406   -2.075693
    119          1           0        7.769082   -1.777987   -1.344388
    120          1           0        9.564465   -1.380539   -0.329736
    121          1           0        8.386127   -1.077071    0.941372
    122          1           0        9.058367    1.202972    1.013797
    123          1           0        9.230560    1.359530   -0.698660
    124          1           0       11.540677   -0.288192    0.078186
    125          1           0       11.312030    1.680728    2.141497
    126          1           0       12.210935    0.145018    2.127564
    127          1           0       10.461995    0.111415    2.431709
    128          1           0       12.613336    2.187864    0.374966
    129          1           0       11.132957    2.664999   -0.544273
    130          1           0       11.973759    2.088706   -2.377090
    131          1           0       12.351440    0.492484   -1.899391
    132          1           0       14.205230    2.805513   -1.014613
    133          1           0       14.131625    2.234638   -2.776103
    134          1           0       14.250099    0.033252   -0.914878
    135          1           0       15.817614    2.039794   -0.128232
    136          1           0       16.956854    0.887323   -0.891349
    137          1           0       15.841422    0.247302    0.304163
    138          1           0       15.039948    0.115381   -3.600020
    139          1           0       14.905076   -1.209408   -2.509648
    140          1           0       16.370752   -0.405160   -2.631091
 ---------------------------------------------------------------------

 SCF Done:  E(RwB97XD) =  -3007.81508208     A.U. after   19 cycles

 Excitation energies and oscillator strengths:

 Excited State   1:      Singlet-A      1.6102 eV  770.00 nm  f=0.3580  <S**2>=0.000
     245 -> 248        0.19062
     246 -> 247        0.68249
     245 <- 248        0.12001
 This state for optimization and/or second-order correction.
 Total Energy, E(TD-HF/TD-DFT) =  -3007.75590906
 Copying the excited state density for this state as the 1-particle RhoCI density.

 Excited State   2:      Singlet-A      2.1957 eV  564.66 nm  f=0.0894  <S**2>=0.000
     245 -> 247        0.62604
     246 -> 248       -0.31438

 Excited State   3:      Singlet-A      3.3259 eV  372.78 nm  f=0.0181  <S**2>=0.000
     241 -> 249        0.14426
     242 -> 247        0.54652
     242 -> 249       -0.11450
     243 -> 247       -0.32192
     246 -> 248        0.18527

 Excited State   4:      Singlet-A      3.4281 eV  361.67 nm  f=0.0846  <S**2>=0.000
     241 -> 247       -0.25371
     241 -> 249        0.21439
     241 -> 250       -0.10941
     243 -> 247        0.50021
     245 -> 247        0.10629
     246 -> 248        0.26770

 Excited State   5:      Singlet-A      3.4574 eV  358.60 nm  f=0.1399  <S**2>=0.000
     241 -> 247        0.37790
     241 -> 249       -0.32170
     241 -> 250        0.16711
     242 -> 247        0.16078
     243 -> 247        0.17030
     245 -> 247        0.12663
     246 -> 248        0.31666

 The electronic state is 1-A.
 Alpha  occ. eigenvalues --  -46.95080 -19.31578 -19.31121 -19.25377 -19.24545
 Alpha  occ. eigenvalues --  -19.24501 -19.23800 -14.47420 -14.46230 -14.44575
 Alpha  occ. eigenvalues --  -14.43817 -10.44074 -10.42838 -10.39968 -10.38952
 Alpha  occ. eigenvalues --  -10.36536 -10.36220 -10.36158 -10.36091 -10.35412
 Alpha  occ. eigenvalues --  -10.35391 -10.35235 -10.34407 -10.33383 -10.33062
 Alpha  occ. eigenvalues --  -10.32938 -10.32892 -10.32811 -10.32747 -10.32593
 Alpha  occ. eigenvalues --  -10.32433 -10.32341 -10.32251 -10.32101 -10.31162
 Alpha  occ. eigenvalues --  -10.30734 -10.30632 -10.30614 -10.30577 -10.30550
 Alpha  occ. eigenvalues --  -10.30537 -10.30390 -10.30369 -10.30349 -10.29885
 Alpha  occ. eigenvalues --  -10.29673 -10.29564 -10.29529 -10.29465 -10.29420
 Alpha  occ. eigenvalues --  -10.29353 -10.29118 -10.29096 -10.29013 -10.28796
 Alpha  occ. eigenvalues --  -10.28784 -10.28690 -10.28544 -10.28452 -10.28410
 Alpha  occ. eigenvalues --  -10.28137 -10.28084 -10.28032 -10.27795 -10.27544
 Alpha  occ. eigenvalues --  -10.27314  -3.21093  -1.94665  -1.94228  -1.94057
 Alpha  occ. eigenvalues --   -1.19600  -1.18144  -1.13891  -1.10351  -1.09978
 Alpha  occ. eigenvalues --   -1.08612  -1.06468  -1.05002  -1.04214  -1.03434
 Alpha  occ. eigenvalues --   -0.95187  -0.92266  -0.91545  -0.91379  -0.90903
 Alpha  occ. eigenvalues --   -0.90208  -0.89974  -0.89613  -0.88998  -0.88975
 Alpha  occ. eigenvalues --   -0.87775  -0.86822  -0.86332  -0.85856  -0.85067
 Alpha  occ. eigenvalues --   -0.84823  -0.84126  -0.83421  -0.82938  -0.82519
 Alpha  occ. eigenvalues --   -0.81481  -0.79976  -0.79816  -0.79136  -0.78515
 Alpha  occ. eigenvalues --   -0.77762  -0.77593  -0.77107  -0.76119  -0.76055
 Alpha  occ. eigenvalues --   -0.75403  -0.74817  -0.73904  -0.72269  -0.70946
 Alpha  occ. eigenvalues --   -0.70672  -0.69606  -0.68910  -0.68160  -0.67716
 Alpha  occ. eigenvalues --   -0.67139  -0.66888  -0.66668  -0.66195  -0.65131
 Alpha  occ. eigenvalues --   -0.65040  -0.64681  -0.64667  -0.64268  -0.62494
 Alpha  occ. eigenvalues --   -0.62076  -0.61465  -0.61185  -0.60725  -0.60289
 Alpha  occ. eigenvalues --   -0.60039  -0.58793  -0.58580  -0.58049  -0.57468
 Alpha  occ. eigenvalues --   -0.57244  -0.56985  -0.56753  -0.56192  -0.55847
 Alpha  occ. eigenvalues --   -0.55484  -0.55111  -0.54897  -0.54663  -0.54553
 Alpha  occ. eigenvalues --   -0.54539  -0.54272  -0.54026  -0.53842  -0.53790
 Alpha  occ. eigenvalues --   -0.53456  -0.53328  -0.53231  -0.53079  -0.52804
 Alpha  occ. eigenvalues --   -0.52716  -0.52149  -0.52058  -0.51808  -0.51533
 Alpha  occ. eigenvalues --   -0.51441  -0.51356  -0.51014  -0.50762  -0.50449
 Alpha  occ. eigenvalues --   -0.50350  -0.50159  -0.50125  -0.49627  -0.49508
 Alpha  occ. eigenvalues --   -0.49233  -0.49202  -0.48855  -0.48560  -0.48399
 Alpha  occ. eigenvalues --   -0.48203  -0.48141  -0.47879  -0.47763  -0.47546
 Alpha  occ. eigenvalues --   -0.47330  -0.47087  -0.46917  -0.46663  -0.46589
 Alpha  occ. eigenvalues --   -0.46488  -0.46389  -0.46194  -0.45985  -0.45903
 Alpha  occ. eigenvalues --   -0.45558  -0.45359  -0.45258  -0.45241  -0.45088
 Alpha  occ. eigenvalues --   -0.44697  -0.44655  -0.44169  -0.44116  -0.43917
 Alpha  occ. eigenvalues --   -0.43671  -0.43588  -0.43424  -0.43087  -0.43018
 Alpha  occ. eigenvalues --   -0.42590  -0.42441  -0.42400  -0.42100  -0.41887
 Alpha  occ. eigenvalues --   -0.41603  -0.41575  -0.41518  -0.41087  -0.40896
 Alpha  occ. eigenvalues --   -0.40544  -0.40223  -0.40028  -0.39694  -0.39509
 Alpha  occ. eigenvalues --   -0.39159  -0.38931  -0.38566  -0.38360  -0.37827
 Alpha  occ. eigenvalues --   -0.37299  -0.37044  -0.36980  -0.36330  -0.36251
 Alpha  occ. eigenvalues --   -0.35755  -0.35636  -0.35553  -0.33368  -0.33101
 Alpha  occ. eigenvalues --   -0.33077  -0.32176  -0.31915  -0.31758  -0.26345
 Alpha  occ. eigenvalues --   -0.23095
 Alpha virt. eigenvalues --   -0.07285  -0.00352   0.02069   0.04006   0.05505
 Alpha virt. eigenvalues --    0.07111   0.07288   0.07871   0.08285   0.09094
 Alpha virt. eigenvalues --    0.10266   0.10903   0.11901   0.11972   0.12509

 Mulliken charges:
               1
     1  Mg   0.966758
     2  C   -0.025793
     3  C   -0.074105
     4  C   -0.097904
     5  C   -0.075995
     6  N   -0.301967
     7  C    0.022510
     8  C   -0.046557
     9  C   -0.120798
    10  C    0.038233
    11  C    0.017776
    12  C   -0.023836
    13  C   -0.001605
    14  C    0.188031
    15  O   -0.250898
    16  O   -0.341233
    17  N   -0.479682
    18  C    0.161436
    19  C   -0.134700
    20  C   -0.065155
    21  C    0.186233
    22  C    0.075292
    23  C    0.060403
    24  O   -0.296767
    25  C    0.010095
    26  N   -0.459500
    27  C    0.097790
    28  C   -0.083681
    29  C   -0.068914
    30  C    0.063847
    31  C    0.019118
    32  C   -0.000627
    33  C   -0.051055
    34  N   -0.431764
    35  C    0.109641
    36  C   -0.179635
    37  C   -0.052622
    38  C    0.138212
    39  C    0.081981
    40  C    0.120258
    41  O   -0.165492
    42  C   -0.065508
    43  C    0.290338
    44  O   -0.252459
    45  O   -0.368313
    46  C    0.120952
    47  C    0.236721
    48  C   -0.084826
    49  C   -0.202094
    50  C    0.008373
    51  C    0.024095
    52  C   -0.061046
    53  C    0.061965
    54  C   -0.176802
    55  C    0.004580
    56  C   -0.015803
    57  C   -0.014142
    58  C    0.003107
    59  C   -0.192443
    60  C   -0.014780
    61  C    0.015852
    62  C   -0.067230
    63  C    0.040917
    64  C   -0.225232
    65  C    0.027639
    66  C   -0.000570
    67  H    0.016535
    68  H   -0.037264
    69  H   -0.007425
    70  H    0.029005
    71  H    0.046422
    72  H    0.042850
    73  H    0.043448
    74  H    0.038567
    75  H    0.029822
    76  H    0.037033
    77  H    0.058299
    78  H    0.056572
    79  H    0.054340
    80  H    0.017568
    81  H    0.054889
    82  H    0.083682
    83  H    0.056443
    84  H    0.055878
    85  H    0.032528
    86  H    0.036603
    87  H    0.050077
    88  H    0.020460
    89  H    0.032354
    90  H    0.049089
    91  H    0.028861
    92  H    0.046281
    93  H    0.031467
    94  H    0.040135
    95  H    0.031264
    96  H    0.057657
    97  H    0.053380
    98  H    0.074338
    99  H    0.063404
   100  H    0.072265
   101  H    0.071019
   102  H    0.058024
   103  H    0.033025
   104  H    0.025542
   105  H    0.059337
   106  H    0.022235
   107  H    0.024940
   108  H    0.028408
   109  H    0.021218
   110  H    0.022012
   111  H    0.027513
   112  H    0.034290
   113  H    0.019197
   114  H    0.013964
   115  H    0.025514
   116  H    0.026277
   117  H    0.010447
   118  H    0.018469
   119  H   -0.002318
   120  H    0.019932
   121  H    0.027668
   122  H    0.016593
   123  H    0.013934
   124  H    0.019025
   125  H    0.028714
   126  H    0.024726
   127  H    0.031561
   128  H    0.007804
   129  H    0.027031
   130  H    0.006375
   131  H    0.019103
   132  H    0.029386
   133  H    0.020959
   134  H    0.022475
   135  H    0.021249
   136  H    0.019532
   137  H    0.027200
   138  H    0.023398
   139  H    0.022143
   140  H    0.014625
 Sum of Mulliken charges =  -0.00000

 Dipole moment (field-independent basis, Debye):
    X=              0.3444    Y=              2.2112    Z=              2.1385  Tot=              3.0954
 Quadrupole moment (field-independent basis, Debye-Ang):
   XX=           -416.9664   YY=           -372.9974   ZZ=           -405.8989
   XY=            -41.3494   XZ=            -15.3735   YZ=            -42.0240

 Normal termination of Gaussian 16 at Fri Apr 29 12:35:46 2022.
