 Gaussian 16, Revision A.03,
 Gaussian 16:  ES64L-G16RevA.03 25-Dec-2016

 --------------------
 #p ZINDO=(nstates=5)
 --------------------

 -----------------------------
 step_301_chromophore_11 ZINDO
 -----------------------------
 Symbolic Z-matrix:
 Charge =  0 Multiplicity = 1

                         Standard orientation:
 ---------------------------------------------------------------------
 Center     Atomic      Atomic             Coordinates (Angstroms)
 Number     Number       Type             X           Y           Z
 ---------------------------------------------------------------------
      1         12           0       -4.414243    1.513644    0.561334
      2          6           0       -5.652703   -1.798322    0.014778
      3          6           0       -2.003949    0.148312    2.833971
      4          6           0       -2.930825    4.432039    0.627695
      5          6           0       -6.853861    2.656766   -1.628639
      6          7           0       -3.648805   -0.729392    1.088281
      7          6           0       -4.464638   -1.815524    0.817932
      8          6           0       -3.942459   -3.013043    1.715004
      9          6           0       -3.039728   -2.284388    2.806267
     10          6           0       -2.868670   -0.875883    2.209989
     11          6           0       -3.568746   -2.376567    4.292421
     12          6           0       -3.151711   -4.137388    0.997551
     13          6           0       -2.154820   -3.755852   -0.198299
     14          6           0       -0.806631   -4.542855   -0.162010
     15          8           0       -0.492432   -5.388689   -0.977269
     16          8           0       -0.052880   -4.154373    0.894951
     17          7           0       -2.747117    2.206215    1.562668
     18          6           0       -1.908454    1.536844    2.483388
     19          6           0       -1.040576    2.453546    3.131126
     20          6           0       -1.298437    3.728589    2.563227
     21          6           0       -2.305737    3.496698    1.515307
     22          6           0       -0.025182    2.046009    4.205036
     23          6           0       -0.596003    5.095987    2.917475
     24          8           0        0.354625    5.059939    3.795641
     25          6           0       -0.905059    6.398153    2.323187
     26          7           0       -4.691489    3.267558   -0.451114
     27          6           0       -3.911214    4.371734   -0.307982
     28          6           0       -4.488971    5.507122   -1.198072
     29          6           0       -5.618019    4.836468   -2.090336
     30          6           0       -5.800571    3.524340   -1.368274
     31          6           0       -5.012738    6.709082   -0.368344
     32          6           0       -5.304790    4.505135   -3.630421
     33          6           0       -6.364826    4.945525   -4.567972
     34          7           0       -5.992208    0.680123   -0.501860
     35          6           0       -6.905568    1.297589   -1.326543
     36          6           0       -7.890295    0.323384   -1.720035
     37          6           0       -7.490586   -0.857865   -1.129894
     38          6           0       -6.298396   -0.614961   -0.452795
     39          6           0       -8.910841    0.710028   -2.618267
     40          6           0       -7.826452   -2.284507   -1.012838
     41          8           0       -8.782237   -2.822989   -1.485903
     42          6           0       -6.636506   -2.902587   -0.235696
     43          6           0       -6.055947   -3.979527   -1.126269
     44          8           0       -5.539369   -3.775679   -2.228313
     45          8           0       -6.127911   -5.137519   -0.416109
     46          6           0       -5.496410   -6.383048   -1.054785
     47          6           0        1.222941   -4.856273    0.889751
     48          6           0        2.267402   -4.308196   -0.119413
     49          6           0        3.577971   -4.423347   -0.009379
     50          6           0        4.238716   -5.131678    1.148247
     51          6           0        4.521319   -3.639606   -0.889882
     52          6           0        4.788072   -2.223454   -0.310958
     53          6           0        5.193659   -1.079890   -1.416320
     54          6           0        6.326293   -0.250436   -0.842648
     55          6           0        6.216741    1.258214   -1.161313
     56          6           0        7.754788   -0.710222   -1.126122
     57          6           0        8.766996   -0.708225   -0.011000
     58          6           0        9.494345    0.716456    0.140977
     59          6           0       11.046738    0.641170    0.363477
     60          6           0       11.259085    0.620890    1.890200
     61          6           0       11.831193    1.861355   -0.310244
     62          6           0       12.545830    1.532668   -1.635605
     63          6           0       14.042629    1.988352   -1.717494
     64          6           0       14.905056    0.722977   -1.446558
     65          6           0       15.962354    1.012087   -0.462556
     66          6           0       15.301402   -0.197065   -2.589833
     67          1           0       -1.511642   -0.156153    3.759840
     68          1           0       -2.510308    5.439561    0.655082
     69          1           0       -7.481251    2.997985   -2.454565
     70          1           0       -4.725226   -3.595766    2.199940
     71          1           0       -2.039100   -2.716460    2.843011
     72          1           0       -3.026110   -3.184238    4.784797
     73          1           0       -4.639886   -2.575281    4.249179
     74          1           0       -3.347733   -1.453610    4.829820
     75          1           0       -3.791861   -4.927339    0.605066
     76          1           0       -2.443440   -4.582284    1.697528
     77          1           0       -2.011882   -2.675738   -0.174678
     78          1           0       -2.649032   -3.936454   -1.152040
     79          1           0        0.965708    2.339242    3.858164
     80          1           0        0.034237    0.976266    4.407170
     81          1           0       -0.039476    2.504654    5.193729
     82          1           0       -0.612736    6.524415    1.281262
     83          1           0       -0.397485    7.130598    2.950102
     84          1           0       -1.963865    6.609429    2.475982
     85          1           0       -3.713727    5.922527   -1.842536
     86          1           0       -6.499668    5.470513   -1.987792
     87          1           0       -4.621622    7.687361   -0.647059
     88          1           0       -4.725583    6.541348    0.670269
     89          1           0       -6.091833    6.698002   -0.217975
     90          1           0       -5.134640    3.430652   -3.706332
     91          1           0       -4.346514    4.932366   -3.925189
     92          1           0       -6.063245    5.821943   -5.142594
     93          1           0       -7.314640    5.203148   -4.099173
     94          1           0       -6.579419    4.081801   -5.196471
     95          1           0       -9.386206    1.570101   -2.147455
     96          1           0       -9.672148   -0.070713   -2.636419
     97          1           0       -8.543662    1.147642   -3.546462
     98          1           0       -6.992401   -3.228054    0.742063
     99          1           0       -4.415068   -6.371283   -0.921500
    100          1           0       -5.701033   -6.296227   -2.120939
    101          1           0       -5.816418   -7.375884   -0.738033
    102          1           0        1.144726   -5.941399    0.960506
    103          1           0        1.558450   -4.638403    1.903237
    104          1           0        1.941236   -3.603329   -0.884114
    105          1           0        4.492287   -4.591772    2.060374
    106          1           0        5.163115   -5.633073    0.863176
    107          1           0        3.672867   -6.028877    1.400914
    108          1           0        4.054011   -3.472926   -1.860196
    109          1           0        5.521803   -4.059492   -0.991910
    110          1           0        5.534597   -2.431494    0.455509
    111          1           0        3.853134   -1.941738    0.172271
    112          1           0        4.319571   -0.542466   -1.784857
    113          1           0        5.650485   -1.589629   -2.264098
    114          1           0        6.308981   -0.194436    0.245812
    115          1           0        5.927752    1.803221   -0.263058
    116          1           0        5.530528    1.456181   -1.985338
    117          1           0        7.184447    1.709776   -1.379190
    118          1           0        8.077180   -0.284406   -2.075693
    119          1           0        7.769082   -1.777987   -1.344388
    120          1           0        9.564465   -1.380539   -0.329736
    121          1           0        8.386127   -1.077071    0.941372
    122          1           0        9.058367    1.202972    1.013797
    123          1           0        9.230560    1.359530   -0.698660
    124          1           0       11.540677   -0.288192    0.078186
    125          1           0       11.312030    1.680728    2.141497
    126          1           0       12.210935    0.145018    2.127564
    127          1           0       10.461995    0.111415    2.431709
    128          1           0       12.613336    2.187864    0.374966
    129          1           0       11.132957    2.664999   -0.544273
    130          1           0       11.973759    2.088706   -2.377090
    131          1           0       12.351440    0.492484   -1.899391
    132          1           0       14.205230    2.805513   -1.014613
    133          1           0       14.131625    2.234638   -2.776103
    134          1           0       14.250099    0.033252   -0.914878
    135          1           0       15.817614    2.039794   -0.128232
    136          1           0       16.956854    0.887323   -0.891349
    137          1           0       15.841422    0.247302    0.304163
    138          1           0       15.039948    0.115381   -3.600020
    139          1           0       14.905076   -1.209408   -2.509648
    140          1           0       16.370752   -0.405160   -2.631091
 ---------------------------------------------------------------------

 SCF Done:  E(RZINDO/S) =  -474.013596255     A.U. after   19 cycles

 Excitation energies and oscillator strengths:

 Excited State   1:      Singlet-A      1.1927 eV 1039.50 nm  f=0.5842  <S**2>=0.000
     175 ->178         0.19122
     176 ->177         0.66300
 This state for optimization and/or second-order correction.
 Total Energy, E(CIS/TDA) =  -473.969764202
 Copying the excited state density for this state as the 1-particle RhoCI density.

 Excited State   2:      Singlet-A      1.9136 eV  647.91 nm  f=0.0223  <S**2>=0.000
     175 ->177         0.52630
     176 ->178        -0.44847

 Excited State   3:      Singlet-A      2.9106 eV  425.98 nm  f=0.8582  <S**2>=0.000
     168 ->179         0.11868
     175 ->177         0.35483
     176 ->178         0.44894
     176 ->179         0.27150
     176 ->180         0.11795

 Excited State   4:      Singlet-A      2.9274 eV  423.53 nm  f=0.0420  <S**2>=0.000
     168 ->177         0.24727
     168 ->179        -0.44214
     168 ->180         0.28349
     168 ->185        -0.20761
     176 ->179         0.16376

 Excited State   5:      Singlet-A      3.0136 eV  411.41 nm  f=0.0032  <S**2>=0.000
     169 ->177         0.13633
     169 ->179         0.12288
     169 ->180         0.14567
     170 ->177         0.28864
     170 ->178         0.15139
     170 ->179         0.25353
     170 ->180         0.29550
     170 ->181        -0.10569
     170 ->185         0.19035
     170 ->187         0.16486
     172 ->177        -0.11934

 The electronic state is 1-A.
 Alpha  occ. eigenvalues --   -1.85666  -1.79693  -1.77089  -1.74336  -1.70813
 Alpha  occ. eigenvalues --   -1.69285  -1.64649  -1.61740  -1.59670  -1.55643
 Alpha  occ. eigenvalues --   -1.54988  -1.51481  -1.49746  -1.48073  -1.46563
 Alpha  occ. eigenvalues --   -1.44433  -1.42783  -1.39302  -1.38273  -1.37827
 Alpha  occ. eigenvalues --   -1.37421  -1.35420  -1.32857  -1.29794  -1.28658
 Alpha  occ. eigenvalues --   -1.27885  -1.26151  -1.22627  -1.19002  -1.17693
 Alpha  occ. eigenvalues --   -1.17212  -1.16912  -1.15372  -1.13923  -1.12452
 Alpha  occ. eigenvalues --   -1.12039  -1.10462  -1.09584  -1.04754  -1.04284
 Alpha  occ. eigenvalues --   -1.02213  -1.01203  -0.98972  -0.97436  -0.96052
 Alpha  occ. eigenvalues --   -0.95815  -0.93889  -0.93401  -0.92231  -0.92064
 Alpha  occ. eigenvalues --   -0.91227  -0.90626  -0.88983  -0.87898  -0.86877
 Alpha  occ. eigenvalues --   -0.85728  -0.84359  -0.83336  -0.82077  -0.81137
 Alpha  occ. eigenvalues --   -0.79687  -0.78538  -0.77358  -0.76918  -0.76806
 Alpha  occ. eigenvalues --   -0.76580  -0.75699  -0.75180  -0.73937  -0.73214
 Alpha  occ. eigenvalues --   -0.72960  -0.72531  -0.71925  -0.71622  -0.70979
 Alpha  occ. eigenvalues --   -0.70607  -0.69958  -0.69854  -0.69141  -0.68361
 Alpha  occ. eigenvalues --   -0.67401  -0.66904  -0.66573  -0.66470  -0.65348
 Alpha  occ. eigenvalues --   -0.65108  -0.64930  -0.64597  -0.64220  -0.63948
 Alpha  occ. eigenvalues --   -0.63233  -0.63003  -0.62592  -0.62394  -0.61854
 Alpha  occ. eigenvalues --   -0.61269  -0.60884  -0.60332  -0.59972  -0.59887
 Alpha  occ. eigenvalues --   -0.59207  -0.58474  -0.58250  -0.57989  -0.57817
 Alpha  occ. eigenvalues --   -0.57582  -0.57151  -0.57135  -0.56826  -0.56383
 Alpha  occ. eigenvalues --   -0.55818  -0.55670  -0.55138  -0.54863  -0.54415
 Alpha  occ. eigenvalues --   -0.54169  -0.54045  -0.53209  -0.52900  -0.52431
 Alpha  occ. eigenvalues --   -0.52268  -0.52230  -0.51970  -0.51760  -0.51411
 Alpha  occ. eigenvalues --   -0.51075  -0.50924  -0.50755  -0.50316  -0.50122
 Alpha  occ. eigenvalues --   -0.50078  -0.49796  -0.49691  -0.49325  -0.49116
 Alpha  occ. eigenvalues --   -0.48843  -0.48604  -0.48334  -0.48031  -0.47827
 Alpha  occ. eigenvalues --   -0.47748  -0.47135  -0.46969  -0.46863  -0.46525
 Alpha  occ. eigenvalues --   -0.46453  -0.45992  -0.45776  -0.45581  -0.45209
 Alpha  occ. eigenvalues --   -0.45117  -0.44750  -0.44451  -0.44100  -0.43396
 Alpha  occ. eigenvalues --   -0.43147  -0.42943  -0.42706  -0.42509  -0.42148
 Alpha  occ. eigenvalues --   -0.42084  -0.41517  -0.41106  -0.39362  -0.38710
 Alpha  occ. eigenvalues --   -0.38526  -0.37599  -0.35992  -0.35231  -0.34911
 Alpha  occ. eigenvalues --   -0.33506  -0.32824  -0.32449  -0.32264  -0.27143
 Alpha  occ. eigenvalues --   -0.21838
 Alpha virt. eigenvalues --   -0.08877  -0.02596  -0.00789   0.00853   0.02035
 Alpha virt. eigenvalues --    0.02226   0.02330   0.02502   0.04191   0.04895
 Alpha virt. eigenvalues --    0.05293   0.06491   0.06782   0.07170   0.07519

 Mulliken charges:
               1
     1  Mg   0.428068
     2  C   -0.022035
     3  C   -0.064225
     4  C   -0.096523
     5  C   -0.080971
     6  N   -0.275333
     7  C    0.096235
     8  C    0.006610
     9  C   -0.002252
    10  C    0.126940
    11  C   -0.050498
    12  C   -0.029071
    13  C   -0.008625
    14  C    0.470578
    15  O   -0.510194
    16  O   -0.262100
    17  N   -0.330561
    18  C    0.097625
    19  C    0.057974
    20  C   -0.053199
    21  C    0.153000
    22  C   -0.039928
    23  C    0.325244
    24  O   -0.550159
    25  C   -0.018052
    26  N   -0.313316
    27  C    0.162659
    28  C    0.009327
    29  C   -0.002488
    30  C    0.120334
    31  C   -0.056917
    32  C   -0.019485
    33  C   -0.050127
    34  N   -0.313533
    35  C    0.095248
    36  C    0.038006
    37  C   -0.051632
    38  C    0.101746
    39  C   -0.034025
    40  C    0.337194
    41  O   -0.500859
    42  C    0.064957
    43  C    0.497329
    44  O   -0.517593
    45  O   -0.269673
    46  C    0.064699
    47  C    0.107939
    48  C   -0.073601
    49  C    0.007839
    50  C   -0.049567
    51  C   -0.023162
    52  C   -0.045932
    53  C   -0.028666
    54  C   -0.007043
    55  C   -0.063869
    56  C   -0.025703
    57  C   -0.032050
    58  C   -0.039610
    59  C   -0.020823
    60  C   -0.061112
    61  C   -0.040607
    62  C   -0.045810
    63  C   -0.032952
    64  C   -0.008073
    65  C   -0.055177
    66  C   -0.052156
    67  H    0.041055
    68  H    0.006850
    69  H    0.022451
    70  H    0.024554
    71  H    0.031214
    72  H    0.022640
    73  H    0.026520
    74  H    0.025898
    75  H    0.030912
    76  H    0.021601
    77  H    0.041923
    78  H    0.040400
    79  H    0.034722
    80  H    0.017675
    81  H    0.042441
    82  H    0.050404
    83  H    0.036319
    84  H    0.034332
    85  H    0.026021
    86  H    0.033874
    87  H    0.028372
    88  H    0.012836
    89  H    0.024646
    90  H    0.027459
    91  H    0.018004
    92  H    0.021668
    93  H    0.017519
    94  H    0.019644
    95  H    0.019159
    96  H    0.033718
    97  H    0.042784
    98  H    0.054759
    99  H    0.041737
   100  H    0.048876
   101  H    0.046839
   102  H    0.057343
   103  H    0.014864
   104  H    0.038689
   105  H    0.037650
   106  H    0.012014
   107  H    0.014342
   108  H    0.021113
   109  H    0.023173
   110  H    0.024777
   111  H    0.019539
   112  H    0.033359
   113  H    0.018490
   114  H    0.014396
   115  H    0.013957
   116  H    0.019672
   117  H    0.015702
   118  H    0.022431
   119  H   -0.003409
   120  H    0.012333
   121  H    0.029158
   122  H    0.016234
   123  H    0.020932
   124  H    0.025997
   125  H    0.018156
   126  H    0.011398
   127  H    0.020928
   128  H    0.019319
   129  H    0.023150
   130  H    0.001708
   131  H    0.023771
   132  H    0.037766
   133  H    0.020412
   134  H    0.010355
   135  H    0.022806
   136  H    0.015691
   137  H    0.019009
   138  H    0.016460
   139  H    0.014133
   140  H    0.012098
 Sum of Mulliken charges =  -0.00000

 Dipole moment (field-independent basis, Debye):
    X=             -0.2759    Y=              3.5072    Z=              4.0972  Tot=              5.4004
 N-N= 4.363559008387D+03 E-N= 0.000000000000D+00  KE=-9.401117540795D+03
 Leave Link  601 at Fri Apr 29 12:49:33 2022, MaxMem=  6710886400 cpu:               0.8 elap:               0.0
 (Enter /sw/apps/gaussian-16.0/g16/l9999.exe)
 1\1\GINC-BP1-COMPUTE082\SP\RZINDO CIS\STO-3G\C55H74Mg1N4O6\OF15641\29-
 Apr-2022\0\\#p ZINDO=(nstates=5)\\step_301_chromophore_11 ZINDO\\0,1\M
 g,0,53.356,24.257,43.946\C,0,50.564,26.451,43.507\C,0,51.23,21.51,43.0
 67\C,0,56.01,22.345,43.796\C,0,55.245,27.034,44.826\N,0,51.135,24.061,
 42.985\C,0,50.244,25.116,43.092\C,0,48.796,24.516,42.858\C,0,49.013,22
 .951,43.059\C,0,50.546,22.82,43.021\C,0,48.268,22.319,44.301\C,0,48.12
 2,24.815,41.494\C,0,49.019,24.85,40.166\C,0,48.343,24.162,38.938\O,0,4

 Normal termination of Gaussian 16 at Fri Apr 29 12:49:34 2022.
