 Gaussian 16, Revision A.03,
 Gaussian 16:  ES64L-G16RevA.03 25-Dec-2016

 ------------------------------
 #p blyp/Def2SVP td=(nstates=5)
 ------------------------------

 --------------------------------------------------
 step_751_chromophore_23 TDDFT with blyp functional
 --------------------------------------------------
 Symbolic Z-matrix:
 Charge =  0 Multiplicity = 1

                         Standard orientation:
 ---------------------------------------------------------------------
 Center     Atomic      Atomic             Coordinates (Angstroms)
 Number     Number       Type             X           Y           Z
 ---------------------------------------------------------------------
      1         12           0        5.055734    0.239821   -0.107515
      2          6           0        2.837853   -2.429736   -0.416362
      3          6           0        2.980594    2.171901   -2.171765
      4          6           0        7.029587    2.872244    0.378510
      5          6           0        6.753347   -1.591766    2.427645
      6          7           0        2.947048    0.033669   -0.909559
      7          6           0        2.423019   -1.257290   -1.115064
      8          6           0        1.198104   -1.134944   -1.945193
      9          6           0        1.339034    0.165181   -2.685767
     10          6           0        2.519766    0.852692   -1.909423
     11          6           0        1.546706   -0.087605   -4.206155
     12          6           0       -0.081012   -1.212622   -1.024303
     13          6           0       -1.131281   -2.268406   -1.321401
     14          6           0       -2.521718   -1.963414   -1.795280
     15          8           0       -2.802749   -1.264773   -2.637256
     16          8           0       -3.328999   -2.882741   -1.182090
     17          7           0        5.037402    2.238955   -0.887604
     18          6           0        4.089088    2.827906   -1.735935
     19          6           0        4.485832    4.184023   -2.038885
     20          6           0        5.754037    4.335749   -1.403564
     21          6           0        6.008238    3.138039   -0.568419
     22          6           0        3.563869    5.100641   -2.911843
     23          6           0        6.578391    5.639850   -1.583479
     24          8           0        6.345862    6.593981   -2.326224
     25          6           0        7.773187    5.793245   -0.762232
     26          7           0        6.384671    0.669613    1.393775
     27          6           0        7.182202    1.765142    1.288940
     28          6           0        8.297672    1.714301    2.341784
     29          6           0        8.082795    0.444316    3.089110
     30          6           0        7.039568   -0.207064    2.182561
     31          6           0        9.711766    1.872019    1.665825
     32          6           0        7.637346    0.463834    4.590837
     33          6           0        8.641364    0.231376    5.749796
     34          7           0        4.906003   -1.585399    0.803164
     35          6           0        5.696864   -2.253566    1.763238
     36          6           0        5.300534   -3.580560    1.909920
     37          6           0        4.232672   -3.692796    0.999322
     38          6           0        3.935937   -2.439991    0.417017
     39          6           0        5.873375   -4.583550    2.964604
     40          6           0        3.254281   -4.611020    0.438305
     41          8           0        3.078181   -5.791296    0.691933
     42          6           0        2.332344   -3.868869   -0.595141
     43          6           0        2.496122   -4.433345   -2.000082
     44          8           0        3.123929   -3.988809   -2.919577
     45          8           0        1.710535   -5.625588   -2.002740
     46          6           0        1.695853   -6.330629   -3.317590
     47          6           0       -4.677495   -3.131146   -1.758800
     48          6           0       -5.828652   -2.767102   -0.836481
     49          6           0       -6.644924   -1.732558   -0.818418
     50          6           0       -6.730485   -0.573787   -1.748823
     51          6           0       -7.673211   -1.703078    0.287902
     52          6           0       -9.059539   -2.187855    0.038160
     53          6           0      -10.046265   -1.898967    1.177180
     54          6           0      -10.934822   -0.595891    0.968546
     55          6           0      -12.117442   -0.744543   -0.031246
     56          6           0      -11.495211   -0.082547    2.314886
     57          6           0      -11.250404    1.491969    2.534509
     58          6           0      -10.173206    1.710739    3.572391
     59          6           0       -8.687875    1.660194    2.977385
     60          6           0       -7.745376    0.794466    3.846162
     61          6           0       -8.118920    3.058407    2.678219
     62          6           0       -7.388993    3.068420    1.270229
     63          6           0       -8.319660    3.643636    0.216323
     64          6           0       -7.520795    4.359427   -0.847368
     65          6           0       -8.163842    5.736838   -1.263642
     66          6           0       -7.407887    3.469169   -2.152282
     67          1           0        2.386961    2.762810   -2.871953
     68          1           0        7.794238    3.633317    0.547832
     69          1           0        7.261580   -2.060990    3.272459
     70          1           0        1.185619   -1.998114   -2.610981
     71          1           0        0.460773    0.811275   -2.673480
     72          1           0        2.435096   -0.703363   -4.348823
     73          1           0        1.852263    0.813226   -4.738474
     74          1           0        0.672210   -0.512292   -4.698377
     75          1           0       -0.578584   -0.248048   -1.125533
     76          1           0        0.154141   -1.155009    0.038521
     77          1           0       -1.346056   -2.865869   -0.434738
     78          1           0       -0.708276   -2.953878   -2.056227
     79          1           0        4.200042    5.897608   -3.298988
     80          1           0        2.723215    5.526986   -2.365461
     81          1           0        3.271869    4.483131   -3.761453
     82          1           0        8.299101    4.841173   -0.833848
     83          1           0        7.460849    5.955283    0.269186
     84          1           0        8.409436    6.603990   -1.117641
     85          1           0        8.193641    2.589959    2.983109
     86          1           0        8.973181   -0.183909    3.043197
     87          1           0       10.154400    2.864158    1.761209
     88          1           0        9.722035    1.636949    0.601885
     89          1           0       10.512032    1.252041    2.069030
     90          1           0        6.820713   -0.224538    4.806134
     91          1           0        7.162542    1.423532    4.791521
     92          1           0        8.888577    1.117226    6.335860
     93          1           0        9.474597   -0.277930    5.265288
     94          1           0        8.212888   -0.512096    6.422655
     95          1           0        5.308511   -5.456860    3.291328
     96          1           0        6.109752   -4.128572    3.926722
     97          1           0        6.807001   -4.974939    2.560314
     98          1           0        1.329193   -4.169983   -0.292770
     99          1           0        1.938817   -7.377523   -3.132408
    100          1           0        2.292538   -5.889031   -4.116218
    101          1           0        0.636461   -6.297859   -3.571658
    102          1           0       -4.696309   -4.201637   -1.961232
    103          1           0       -4.837247   -2.708665   -2.750739
    104          1           0       -5.947236   -3.492067   -0.031161
    105          1           0       -6.820764    0.357204   -1.188492
    106          1           0       -7.647775   -0.769349   -2.303867
    107          1           0       -5.915448   -0.512386   -2.469495
    108          1           0       -7.723646   -0.676006    0.649694
    109          1           0       -7.321311   -2.318302    1.115869
    110          1           0       -9.151359   -3.273767    0.025354
    111          1           0       -9.406468   -1.801992   -0.920644
    112          1           0       -9.474926   -1.638528    2.068722
    113          1           0      -10.731213   -2.730883    1.338276
    114          1           0      -10.282338    0.201683    0.614847
    115          1           0      -12.245422   -1.715362   -0.509080
    116          1           0      -11.948474    0.053224   -0.754162
    117          1           0      -13.078787   -0.549132    0.443698
    118          1           0      -10.921971   -0.659307    3.040489
    119          1           0      -12.549295   -0.347320    2.395901
    120          1           0      -12.113046    2.031018    2.926139
    121          1           0      -10.950127    1.928412    1.581742
    122          1           0      -10.276889    0.940956    4.336634
    123          1           0      -10.321259    2.633398    4.134050
    124          1           0       -8.648106    1.128073    2.026080
    125          1           0       -6.725884    1.175427    3.899656
    126          1           0       -7.660094   -0.177523    3.360203
    127          1           0       -8.098348    0.580652    4.854973
    128          1           0       -7.391534    3.455162    3.386030
    129          1           0       -8.990113    3.712236    2.712215
    130          1           0       -6.969759    2.110819    0.961820
    131          1           0       -6.525244    3.674289    1.540666
    132          1           0       -9.191576    4.200803    0.558357
    133          1           0       -8.591026    2.694366   -0.245256
    134          1           0       -6.507407    4.492917   -0.466512
    135          1           0       -8.860776    6.213837   -0.574666
    136          1           0       -8.644805    5.610181   -2.234308
    137          1           0       -7.301281    6.401515   -1.216742
    138          1           0       -8.272337    2.894563   -2.485226
    139          1           0       -6.557539    2.792810   -2.069470
    140          1           0       -7.216952    4.158448   -2.974389
 ---------------------------------------------------------------------

 SCF Done:  E(RB-LYP) =  -3007.34392658     A.U. after   21 cycles

 Excitation energies and oscillator strengths:

 Excited State   1:      Singlet-A      1.7241 eV  719.13 nm  f=0.1520  <S**2>=0.000
     243 -> 247        0.14419
     244 -> 247       -0.38169
     245 -> 247        0.20864
     245 -> 248        0.13055
     246 -> 247        0.53025
     246 <- 247       -0.11577
 This state for optimization and/or second-order correction.
 Total Energy, E(TD-HF/TD-DFT) =  -3007.28056779
 Copying the excited state density for this state as the 1-particle RhoCI density.

 Excited State   2:      Singlet-A      1.7784 eV  697.16 nm  f=0.0234  <S**2>=0.000
     243 -> 247        0.62991
     244 -> 247        0.11825
     245 -> 247        0.23685
     246 -> 247       -0.17414

 Excited State   3:      Singlet-A      1.7857 eV  694.33 nm  f=0.1240  <S**2>=0.000
     244 -> 247        0.54308
     245 -> 247       -0.14295
     245 -> 248        0.11625
     246 -> 247        0.41307

 Excited State   4:      Singlet-A      2.0343 eV  609.48 nm  f=0.0495  <S**2>=0.000
     241 -> 247        0.11376
     243 -> 247       -0.25755
     244 -> 247        0.19458
     245 -> 247        0.53958
     246 -> 248       -0.29771

 Excited State   5:      Singlet-A      2.4601 eV  503.98 nm  f=0.0005  <S**2>=0.000
     242 -> 247        0.69720

 The electronic state is 1-A.
 Alpha  occ. eigenvalues --  -46.27199 -18.81436 -18.80992 -18.78071 -18.77080
 Alpha  occ. eigenvalues --  -18.75329 -18.75021 -14.03717 -14.03610 -14.01021
 Alpha  occ. eigenvalues --  -14.00565 -10.04351 -10.03087  -9.99443  -9.99099
 Alpha  occ. eigenvalues --   -9.97638  -9.97452  -9.97261  -9.97099  -9.96821
 Alpha  occ. eigenvalues --   -9.96671  -9.96656  -9.95242  -9.95108  -9.94378
 Alpha  occ. eigenvalues --   -9.94376  -9.94342  -9.94014  -9.93960  -9.93793
 Alpha  occ. eigenvalues --   -9.93756  -9.93643  -9.93404  -9.93299  -9.93262
 Alpha  occ. eigenvalues --   -9.92983  -9.92978  -9.92944  -9.92911  -9.92822
 Alpha  occ. eigenvalues --   -9.92803  -9.92766  -9.92424  -9.92415  -9.92366
 Alpha  occ. eigenvalues --   -9.92305  -9.91992  -9.91984  -9.91765  -9.91763
 Alpha  occ. eigenvalues --   -9.91610  -9.91591  -9.91562  -9.91434  -9.91389
 Alpha  occ. eigenvalues --   -9.91174  -9.91073  -9.91034  -9.90920  -9.90915
 Alpha  occ. eigenvalues --   -9.90873  -9.90863  -9.90768  -9.90716  -9.90448
 Alpha  occ. eigenvalues --   -9.90396  -2.91879  -1.72258  -1.71822  -1.71560
 Alpha  occ. eigenvalues --   -1.00119  -0.96981  -0.91886  -0.90969  -0.90940
 Alpha  occ. eigenvalues --   -0.90064  -0.87562  -0.86006  -0.85347  -0.84598
 Alpha  occ. eigenvalues --   -0.75403  -0.74453  -0.72956  -0.72936  -0.72786
 Alpha  occ. eigenvalues --   -0.72042  -0.71850  -0.70582  -0.70494  -0.69848
 Alpha  occ. eigenvalues --   -0.69388  -0.68974  -0.68215  -0.67679  -0.67326
 Alpha  occ. eigenvalues --   -0.66367  -0.66083  -0.65543  -0.64927  -0.64676
 Alpha  occ. eigenvalues --   -0.64079  -0.62418  -0.62314  -0.61343  -0.60931
 Alpha  occ. eigenvalues --   -0.60397  -0.60165  -0.59765  -0.59352  -0.59002
 Alpha  occ. eigenvalues --   -0.58357  -0.57922  -0.57178  -0.55877  -0.54966
 Alpha  occ. eigenvalues --   -0.54024  -0.53699  -0.52521  -0.52367  -0.51706
 Alpha  occ. eigenvalues --   -0.50901  -0.50729  -0.50660  -0.50327  -0.49711
 Alpha  occ. eigenvalues --   -0.49277  -0.48983  -0.48601  -0.47993  -0.46632
 Alpha  occ. eigenvalues --   -0.46340  -0.45976  -0.45684  -0.45517  -0.44310
 Alpha  occ. eigenvalues --   -0.44230  -0.44059  -0.43243  -0.42663  -0.42189
 Alpha  occ. eigenvalues --   -0.42005  -0.41945  -0.41471  -0.41351  -0.41048
 Alpha  occ. eigenvalues --   -0.40981  -0.40769  -0.40356  -0.40210  -0.39945
 Alpha  occ. eigenvalues --   -0.39743  -0.39606  -0.39351  -0.39202  -0.39142
 Alpha  occ. eigenvalues --   -0.39051  -0.38842  -0.38732  -0.38511  -0.38271
 Alpha  occ. eigenvalues --   -0.38102  -0.37645  -0.37616  -0.37437  -0.37306
 Alpha  occ. eigenvalues --   -0.37007  -0.36965  -0.36871  -0.36415  -0.36205
 Alpha  occ. eigenvalues --   -0.36130  -0.35883  -0.35620  -0.35577  -0.35462
 Alpha  occ. eigenvalues --   -0.35320  -0.35159  -0.35064  -0.34977  -0.34833
 Alpha  occ. eigenvalues --   -0.34588  -0.34498  -0.34363  -0.34051  -0.33914
 Alpha  occ. eigenvalues --   -0.33886  -0.33599  -0.33419  -0.33388  -0.33249
 Alpha  occ. eigenvalues --   -0.33023  -0.32878  -0.32751  -0.32578  -0.32394
 Alpha  occ. eigenvalues --   -0.32261  -0.31977  -0.31900  -0.31834  -0.31745
 Alpha  occ. eigenvalues --   -0.31409  -0.31281  -0.30946  -0.30741  -0.30558
 Alpha  occ. eigenvalues --   -0.30487  -0.30165  -0.30126  -0.29984  -0.29762
 Alpha  occ. eigenvalues --   -0.29622  -0.29290  -0.29269  -0.29254  -0.29222
 Alpha  occ. eigenvalues --   -0.29016  -0.28672  -0.28371  -0.28279  -0.28153
 Alpha  occ. eigenvalues --   -0.28015  -0.27842  -0.27465  -0.26605  -0.26406
 Alpha  occ. eigenvalues --   -0.26304  -0.25789  -0.25658  -0.25455  -0.25117
 Alpha  occ. eigenvalues --   -0.24669  -0.24543  -0.24377  -0.24356  -0.23635
 Alpha  occ. eigenvalues --   -0.23129  -0.22993  -0.22416  -0.21922  -0.21346
 Alpha  occ. eigenvalues --   -0.20621  -0.20233  -0.18200  -0.18108  -0.17674
 Alpha  occ. eigenvalues --   -0.15764
 Alpha virt. eigenvalues --   -0.11699  -0.07367  -0.06072  -0.04660  -0.03014
 Alpha virt. eigenvalues --   -0.02914  -0.02446  -0.02300  -0.00954   0.00096
 Alpha virt. eigenvalues --    0.00577   0.00873   0.02041   0.02848   0.03353

 Mulliken charges:
               1
     1  Mg   0.688429
     2  C    0.018230
     3  C   -0.069399
     4  C   -0.060050
     5  C   -0.094745
     6  N   -0.228934
     7  C   -0.085931
     8  C    0.039207
     9  C    0.021411
    10  C    0.054452
    11  C    0.105445
    12  C    0.161620
    13  C    0.088911
    14  C    0.017715
    15  O   -0.088699
    16  O   -0.281834
    17  N   -0.289303
    18  C    0.131814
    19  C   -0.129449
    20  C   -0.028398
    21  C    0.161032
    22  C    0.169289
    23  C   -0.069762
    24  O   -0.161980
    25  C    0.142572
    26  N   -0.231296
    27  C    0.011573
    28  C    0.048433
    29  C    0.083933
    30  C   -0.000269
    31  C    0.097611
    32  C    0.061976
    33  C    0.078515
    34  N   -0.297860
    35  C    0.142688
    36  C   -0.148490
    37  C    0.097141
    38  C    0.114249
    39  C    0.153489
    40  C   -0.100222
    41  O   -0.121227
    42  C    0.048257
    43  C    0.136148
    44  O   -0.146123
    45  O   -0.309730
    46  C    0.202255
    47  C    0.340367
    48  C   -0.122291
    49  C   -0.113770
    50  C    0.160549
    51  C    0.093755
    52  C    0.130102
    53  C    0.081203
    54  C   -0.133659
    55  C    0.126016
    56  C    0.112607
    57  C    0.084014
    58  C    0.096087
    59  C   -0.092901
    60  C    0.095696
    61  C    0.117642
    62  C   -0.001750
    63  C    0.151650
    64  C   -0.096978
    65  C    0.098326
    66  C    0.067660
    67  H   -0.062995
    68  H   -0.074103
    69  H   -0.052924
    70  H   -0.027519
    71  H   -0.016495
    72  H   -0.008822
    73  H   -0.023812
    74  H    0.009307
    75  H   -0.038556
    76  H   -0.018363
    77  H   -0.006401
    78  H    0.005546
    79  H    0.003327
    80  H    0.015797
    81  H    0.002904
    82  H    0.010741
    83  H    0.015019
    84  H   -0.009027
    85  H   -0.021727
    86  H   -0.039139
    87  H   -0.009229
    88  H   -0.007369
    89  H   -0.014676
    90  H   -0.017939
    91  H   -0.034862
    92  H    0.008342
    93  H   -0.017024
    94  H   -0.012515
    95  H    0.004235
    96  H   -0.009318
    97  H   -0.002596
    98  H    0.009515
    99  H    0.022697
   100  H    0.031992
   101  H    0.007006
   102  H   -0.023297
   103  H   -0.016897
   104  H   -0.043705
   105  H    0.001879
   106  H   -0.001832
   107  H    0.000739
   108  H   -0.030802
   109  H   -0.028550
   110  H   -0.038848
   111  H   -0.039395
   112  H   -0.026338
   113  H   -0.027823
   114  H   -0.034064
   115  H   -0.016121
   116  H   -0.017781
   117  H   -0.023039
   118  H   -0.041461
   119  H   -0.030265
   120  H   -0.036675
   121  H   -0.020413
   122  H   -0.042399
   123  H   -0.038319
   124  H   -0.017339
   125  H   -0.026015
   126  H   -0.024082
   127  H   -0.015919
   128  H   -0.035686
   129  H   -0.039974
   130  H   -0.017588
   131  H   -0.035323
   132  H   -0.018153
   133  H   -0.036454
   134  H   -0.028902
   135  H   -0.021482
   136  H   -0.004704
   137  H   -0.012188
   138  H   -0.007948
   139  H   -0.006966
   140  H   -0.023910
 Sum of Mulliken charges =  -0.00000

 Dipole moment (field-independent basis, Debye):
    X=             -0.3669    Y=             -0.5197    Z=              2.0182  Tot=              2.1161
 Quadrupole moment (field-independent basis, Debye-Ang):
   XX=           -358.4522   YY=           -441.6383   ZZ=           -397.4886
   XY=             -2.6600   XZ=             28.9492   YZ=             22.7482

 Normal termination of Gaussian 16 at Thu May  5 09:35:33 2022.
