 Gaussian 16, Revision A.03,
 Gaussian 16:  ES64L-G16RevA.03 25-Dec-2016

 -----------------------------------
 #p cam-b3lyp/Def2SVP td=(nstates=5)
 -----------------------------------

 -------------------------------------------------------
 step_751_chromophore_23 TDDFT with cam-b3lyp functional
 -------------------------------------------------------
 Symbolic Z-matrix:
 Charge =  0 Multiplicity = 1

                         Standard orientation:
 ---------------------------------------------------------------------
 Center     Atomic      Atomic             Coordinates (Angstroms)
 Number     Number       Type             X           Y           Z
 ---------------------------------------------------------------------
      1         12           0        5.055734    0.239821   -0.107515
      2          6           0        2.837853   -2.429736   -0.416362
      3          6           0        2.980594    2.171901   -2.171765
      4          6           0        7.029587    2.872244    0.378510
      5          6           0        6.753347   -1.591766    2.427645
      6          7           0        2.947048    0.033669   -0.909559
      7          6           0        2.423019   -1.257290   -1.115064
      8          6           0        1.198104   -1.134944   -1.945193
      9          6           0        1.339034    0.165181   -2.685767
     10          6           0        2.519766    0.852692   -1.909423
     11          6           0        1.546706   -0.087605   -4.206155
     12          6           0       -0.081012   -1.212622   -1.024303
     13          6           0       -1.131281   -2.268406   -1.321401
     14          6           0       -2.521718   -1.963414   -1.795280
     15          8           0       -2.802749   -1.264773   -2.637256
     16          8           0       -3.328999   -2.882741   -1.182090
     17          7           0        5.037402    2.238955   -0.887604
     18          6           0        4.089088    2.827906   -1.735935
     19          6           0        4.485832    4.184023   -2.038885
     20          6           0        5.754037    4.335749   -1.403564
     21          6           0        6.008238    3.138039   -0.568419
     22          6           0        3.563869    5.100641   -2.911843
     23          6           0        6.578391    5.639850   -1.583479
     24          8           0        6.345862    6.593981   -2.326224
     25          6           0        7.773187    5.793245   -0.762232
     26          7           0        6.384671    0.669613    1.393775
     27          6           0        7.182202    1.765142    1.288940
     28          6           0        8.297672    1.714301    2.341784
     29          6           0        8.082795    0.444316    3.089110
     30          6           0        7.039568   -0.207064    2.182561
     31          6           0        9.711766    1.872019    1.665825
     32          6           0        7.637346    0.463834    4.590837
     33          6           0        8.641364    0.231376    5.749796
     34          7           0        4.906003   -1.585399    0.803164
     35          6           0        5.696864   -2.253566    1.763238
     36          6           0        5.300534   -3.580560    1.909920
     37          6           0        4.232672   -3.692796    0.999322
     38          6           0        3.935937   -2.439991    0.417017
     39          6           0        5.873375   -4.583550    2.964604
     40          6           0        3.254281   -4.611020    0.438305
     41          8           0        3.078181   -5.791296    0.691933
     42          6           0        2.332344   -3.868869   -0.595141
     43          6           0        2.496122   -4.433345   -2.000082
     44          8           0        3.123929   -3.988809   -2.919577
     45          8           0        1.710535   -5.625588   -2.002740
     46          6           0        1.695853   -6.330629   -3.317590
     47          6           0       -4.677495   -3.131146   -1.758800
     48          6           0       -5.828652   -2.767102   -0.836481
     49          6           0       -6.644924   -1.732558   -0.818418
     50          6           0       -6.730485   -0.573787   -1.748823
     51          6           0       -7.673211   -1.703078    0.287902
     52          6           0       -9.059539   -2.187855    0.038160
     53          6           0      -10.046265   -1.898967    1.177180
     54          6           0      -10.934822   -0.595891    0.968546
     55          6           0      -12.117442   -0.744543   -0.031246
     56          6           0      -11.495211   -0.082547    2.314886
     57          6           0      -11.250404    1.491969    2.534509
     58          6           0      -10.173206    1.710739    3.572391
     59          6           0       -8.687875    1.660194    2.977385
     60          6           0       -7.745376    0.794466    3.846162
     61          6           0       -8.118920    3.058407    2.678219
     62          6           0       -7.388993    3.068420    1.270229
     63          6           0       -8.319660    3.643636    0.216323
     64          6           0       -7.520795    4.359427   -0.847368
     65          6           0       -8.163842    5.736838   -1.263642
     66          6           0       -7.407887    3.469169   -2.152282
     67          1           0        2.386961    2.762810   -2.871953
     68          1           0        7.794238    3.633317    0.547832
     69          1           0        7.261580   -2.060990    3.272459
     70          1           0        1.185619   -1.998114   -2.610981
     71          1           0        0.460773    0.811275   -2.673480
     72          1           0        2.435096   -0.703363   -4.348823
     73          1           0        1.852263    0.813226   -4.738474
     74          1           0        0.672210   -0.512292   -4.698377
     75          1           0       -0.578584   -0.248048   -1.125533
     76          1           0        0.154141   -1.155009    0.038521
     77          1           0       -1.346056   -2.865869   -0.434738
     78          1           0       -0.708276   -2.953878   -2.056227
     79          1           0        4.200042    5.897608   -3.298988
     80          1           0        2.723215    5.526986   -2.365461
     81          1           0        3.271869    4.483131   -3.761453
     82          1           0        8.299101    4.841173   -0.833848
     83          1           0        7.460849    5.955283    0.269186
     84          1           0        8.409436    6.603990   -1.117641
     85          1           0        8.193641    2.589959    2.983109
     86          1           0        8.973181   -0.183909    3.043197
     87          1           0       10.154400    2.864158    1.761209
     88          1           0        9.722035    1.636949    0.601885
     89          1           0       10.512032    1.252041    2.069030
     90          1           0        6.820713   -0.224538    4.806134
     91          1           0        7.162542    1.423532    4.791521
     92          1           0        8.888577    1.117226    6.335860
     93          1           0        9.474597   -0.277930    5.265288
     94          1           0        8.212888   -0.512096    6.422655
     95          1           0        5.308511   -5.456860    3.291328
     96          1           0        6.109752   -4.128572    3.926722
     97          1           0        6.807001   -4.974939    2.560314
     98          1           0        1.329193   -4.169983   -0.292770
     99          1           0        1.938817   -7.377523   -3.132408
    100          1           0        2.292538   -5.889031   -4.116218
    101          1           0        0.636461   -6.297859   -3.571658
    102          1           0       -4.696309   -4.201637   -1.961232
    103          1           0       -4.837247   -2.708665   -2.750739
    104          1           0       -5.947236   -3.492067   -0.031161
    105          1           0       -6.820764    0.357204   -1.188492
    106          1           0       -7.647775   -0.769349   -2.303867
    107          1           0       -5.915448   -0.512386   -2.469495
    108          1           0       -7.723646   -0.676006    0.649694
    109          1           0       -7.321311   -2.318302    1.115869
    110          1           0       -9.151359   -3.273767    0.025354
    111          1           0       -9.406468   -1.801992   -0.920644
    112          1           0       -9.474926   -1.638528    2.068722
    113          1           0      -10.731213   -2.730883    1.338276
    114          1           0      -10.282338    0.201683    0.614847
    115          1           0      -12.245422   -1.715362   -0.509080
    116          1           0      -11.948474    0.053224   -0.754162
    117          1           0      -13.078787   -0.549132    0.443698
    118          1           0      -10.921971   -0.659307    3.040489
    119          1           0      -12.549295   -0.347320    2.395901
    120          1           0      -12.113046    2.031018    2.926139
    121          1           0      -10.950127    1.928412    1.581742
    122          1           0      -10.276889    0.940956    4.336634
    123          1           0      -10.321259    2.633398    4.134050
    124          1           0       -8.648106    1.128073    2.026080
    125          1           0       -6.725884    1.175427    3.899656
    126          1           0       -7.660094   -0.177523    3.360203
    127          1           0       -8.098348    0.580652    4.854973
    128          1           0       -7.391534    3.455162    3.386030
    129          1           0       -8.990113    3.712236    2.712215
    130          1           0       -6.969759    2.110819    0.961820
    131          1           0       -6.525244    3.674289    1.540666
    132          1           0       -9.191576    4.200803    0.558357
    133          1           0       -8.591026    2.694366   -0.245256
    134          1           0       -6.507407    4.492917   -0.466512
    135          1           0       -8.860776    6.213837   -0.574666
    136          1           0       -8.644805    5.610181   -2.234308
    137          1           0       -7.301281    6.401515   -1.216742
    138          1           0       -8.272337    2.894563   -2.485226
    139          1           0       -6.557539    2.792810   -2.069470
    140          1           0       -7.216952    4.158448   -2.974389
 ---------------------------------------------------------------------

 SCF Done:  E(RCAM-B3LYP) =  -3007.14111077     A.U. after   17 cycles

 Excitation energies and oscillator strengths:

 Excited State   1:      Singlet-A      1.6476 eV  752.50 nm  f=0.3522  <S**2>=0.000
     245 -> 248        0.17508
     246 -> 247        0.68754
     245 <- 248        0.10938
 This state for optimization and/or second-order correction.
 Total Energy, E(TD-HF/TD-DFT) =  -3007.08056135
 Copying the excited state density for this state as the 1-particle RhoCI density.

 Excited State   2:      Singlet-A      2.2544 eV  549.98 nm  f=0.0591  <S**2>=0.000
     245 -> 247        0.60581
     246 -> 248       -0.34903

 Excited State   3:      Singlet-A      3.2858 eV  377.34 nm  f=0.0021  <S**2>=0.000
     242 -> 247        0.20834
     243 -> 247       -0.16306
     244 -> 247        0.61683
     244 -> 249       -0.10553

 Excited State   4:      Singlet-A      3.3058 eV  375.05 nm  f=0.1919  <S**2>=0.000
     242 -> 247       -0.18628
     243 -> 247        0.44399
     244 -> 247        0.15349
     245 -> 247       -0.17187
     246 -> 248       -0.41154

 Excited State   5:      Singlet-A      3.4533 eV  359.03 nm  f=0.2456  <S**2>=0.000
     242 -> 247        0.30435
     242 -> 249       -0.13293
     242 -> 251       -0.10255
     243 -> 247        0.42693
     243 -> 249       -0.13844
     245 -> 247        0.18728
     246 -> 248        0.32144

 The electronic state is 1-A.
 Alpha  occ. eigenvalues --  -46.88755 -19.24310 -19.23797 -19.21294 -19.20048
 Alpha  occ. eigenvalues --  -19.18729 -19.17874 -14.42731 -14.42438 -14.39655
 Alpha  occ. eigenvalues --  -14.38736 -10.39975 -10.38120 -10.34858 -10.34142
 Alpha  occ. eigenvalues --  -10.32289 -10.31941 -10.31769 -10.31757 -10.31208
 Alpha  occ. eigenvalues --  -10.31004 -10.30817 -10.29817 -10.29096 -10.29052
 Alpha  occ. eigenvalues --  -10.28680 -10.28336 -10.28316 -10.28260 -10.28132
 Alpha  occ. eigenvalues --  -10.27843 -10.27575 -10.27553 -10.27512 -10.27225
 Alpha  occ. eigenvalues --  -10.27193 -10.27045 -10.26789 -10.26609 -10.26571
 Alpha  occ. eigenvalues --  -10.26550 -10.26543 -10.26391 -10.26233 -10.25963
 Alpha  occ. eigenvalues --  -10.25922 -10.25784 -10.25713 -10.25519 -10.25426
 Alpha  occ. eigenvalues --  -10.25383 -10.25301 -10.25298 -10.25291 -10.25159
 Alpha  occ. eigenvalues --  -10.25056 -10.24813 -10.24708 -10.24619 -10.24556
 Alpha  occ. eigenvalues --  -10.24539 -10.24464 -10.24410 -10.24342 -10.24045
 Alpha  occ. eigenvalues --  -10.24002  -3.17338  -1.92193  -1.91851  -1.91607
 Alpha  occ. eigenvalues --   -1.18751  -1.15612  -1.09753  -1.09537  -1.09089
 Alpha  occ. eigenvalues --   -1.07933  -1.05240  -1.03698  -1.02900  -1.02290
 Alpha  occ. eigenvalues --   -0.92391  -0.91358  -0.89763  -0.89590  -0.89517
 Alpha  occ. eigenvalues --   -0.88756  -0.88690  -0.87132  -0.87031  -0.86195
 Alpha  occ. eigenvalues --   -0.85885  -0.85643  -0.84502  -0.83861  -0.83509
 Alpha  occ. eigenvalues --   -0.82425  -0.82288  -0.81551  -0.80718  -0.80512
 Alpha  occ. eigenvalues --   -0.79893  -0.77957  -0.77737  -0.77192  -0.76320
 Alpha  occ. eigenvalues --   -0.75710  -0.75459  -0.75070  -0.74640  -0.74205
 Alpha  occ. eigenvalues --   -0.73439  -0.72915  -0.72162  -0.70692  -0.69511
 Alpha  occ. eigenvalues --   -0.68637  -0.68257  -0.66985  -0.66760  -0.65687
 Alpha  occ. eigenvalues --   -0.65105  -0.64905  -0.64839  -0.64286  -0.63727
 Alpha  occ. eigenvalues --   -0.63216  -0.62666  -0.62427  -0.61720  -0.60290
 Alpha  occ. eigenvalues --   -0.59890  -0.59607  -0.59091  -0.59041  -0.57852
 Alpha  occ. eigenvalues --   -0.57603  -0.57560  -0.56454  -0.55893  -0.55466
 Alpha  occ. eigenvalues --   -0.55232  -0.55119  -0.54527  -0.54368  -0.54112
 Alpha  occ. eigenvalues --   -0.53916  -0.53497  -0.53182  -0.52937  -0.52669
 Alpha  occ. eigenvalues --   -0.52547  -0.52159  -0.52048  -0.51940  -0.51696
 Alpha  occ. eigenvalues --   -0.51507  -0.51493  -0.51150  -0.51113  -0.50624
 Alpha  occ. eigenvalues --   -0.50519  -0.50216  -0.49890  -0.49704  -0.49500
 Alpha  occ. eigenvalues --   -0.49277  -0.49162  -0.48993  -0.48939  -0.48488
 Alpha  occ. eigenvalues --   -0.48276  -0.48188  -0.47730  -0.47582  -0.47480
 Alpha  occ. eigenvalues --   -0.47450  -0.47393  -0.47158  -0.46937  -0.46835
 Alpha  occ. eigenvalues --   -0.46610  -0.46361  -0.46347  -0.46081  -0.45787
 Alpha  occ. eigenvalues --   -0.45518  -0.45356  -0.45259  -0.45089  -0.45013
 Alpha  occ. eigenvalues --   -0.44887  -0.44450  -0.44397  -0.44326  -0.44023
 Alpha  occ. eigenvalues --   -0.43886  -0.43575  -0.43375  -0.43327  -0.43261
 Alpha  occ. eigenvalues --   -0.43055  -0.42719  -0.42661  -0.42370  -0.42279
 Alpha  occ. eigenvalues --   -0.41716  -0.41649  -0.41512  -0.41264  -0.41245
 Alpha  occ. eigenvalues --   -0.40953  -0.40471  -0.40383  -0.40335  -0.40268
 Alpha  occ. eigenvalues --   -0.40134  -0.39689  -0.39587  -0.39266  -0.39086
 Alpha  occ. eigenvalues --   -0.39054  -0.38781  -0.38364  -0.37773  -0.37278
 Alpha  occ. eigenvalues --   -0.37164  -0.36762  -0.36439  -0.36349  -0.36113
 Alpha  occ. eigenvalues --   -0.36083  -0.35342  -0.35103  -0.34807  -0.34611
 Alpha  occ. eigenvalues --   -0.34033  -0.33866  -0.33365  -0.31282  -0.31103
 Alpha  occ. eigenvalues --   -0.30703  -0.30109  -0.29828  -0.29230  -0.24669
 Alpha  occ. eigenvalues --   -0.20944
 Alpha virt. eigenvalues --   -0.08715  -0.02352   0.00396   0.02004   0.02428
 Alpha virt. eigenvalues --    0.04216   0.04932   0.05286   0.06630   0.07024
 Alpha virt. eigenvalues --    0.07223   0.08003   0.08569   0.09084   0.09647

 Mulliken charges:
               1
     1  Mg   0.819791
     2  C   -0.006479
     3  C   -0.081113
     4  C   -0.091225
     5  C   -0.096156
     6  N   -0.286927
     7  C   -0.045265
     8  C   -0.017186
     9  C   -0.036727
    10  C    0.071306
    11  C    0.052592
    12  C    0.106579
    13  C    0.014145
    14  C    0.106042
    15  O   -0.129180
    16  O   -0.349226
    17  N   -0.377777
    18  C    0.139284
    19  C   -0.130111
    20  C   -0.098300
    21  C    0.194071
    22  C    0.117172
    23  C    0.016925
    24  O   -0.202886
    25  C    0.052585
    26  N   -0.304763
    27  C    0.043726
    28  C   -0.017378
    29  C    0.025362
    30  C    0.015416
    31  C    0.039567
    32  C    0.006744
    33  C    0.018610
    34  N   -0.388335
    35  C    0.141522
    36  C   -0.147115
    37  C    0.016026
    38  C    0.141396
    39  C    0.104445
    40  C   -0.000885
    41  O   -0.162135
    42  C   -0.020248
    43  C    0.223200
    44  O   -0.183357
    45  O   -0.373257
    46  C    0.164555
    47  C    0.307622
    48  C   -0.147201
    49  C   -0.134075
    50  C    0.106989
    51  C    0.039479
    52  C    0.076089
    53  C    0.032209
    54  C   -0.180392
    55  C    0.066282
    56  C    0.057555
    57  C    0.031754
    58  C    0.041074
    59  C   -0.140048
    60  C    0.043357
    61  C    0.063289
    62  C   -0.047854
    63  C    0.095587
    64  C   -0.156016
    65  C    0.038123
    66  C    0.012220
    67  H   -0.025621
    68  H   -0.038221
    69  H   -0.019002
    70  H    0.005599
    71  H    0.019275
    72  H    0.015647
    73  H    0.001166
    74  H    0.034643
    75  H   -0.005711
    76  H    0.015503
    77  H    0.029849
    78  H    0.032305
    79  H    0.037503
    80  H    0.044396
    81  H    0.027554
    82  H    0.035109
    83  H    0.043411
    84  H    0.028188
    85  H    0.015273
    86  H   -0.002770
    87  H    0.014517
    88  H    0.018659
    89  H    0.011979
    90  H    0.013505
    91  H   -0.006423
    92  H    0.030365
    93  H    0.004450
    94  H    0.011541
    95  H    0.031373
    96  H    0.013107
    97  H    0.021974
    98  H    0.051311
    99  H    0.044644
   100  H    0.056662
   101  H    0.028293
   102  H    0.006920
   103  H    0.014894
   104  H   -0.009874
   105  H    0.018920
   106  H    0.021114
   107  H    0.025967
   108  H   -0.010039
   109  H    0.001446
   110  H   -0.008357
   111  H   -0.013145
   112  H   -0.002564
   113  H    0.001322
   114  H   -0.007979
   115  H    0.007945
   116  H    0.005953
   117  H    0.001409
   118  H   -0.012969
   119  H   -0.001223
   120  H   -0.005489
   121  H    0.003068
   122  H   -0.012607
   123  H   -0.008169
   124  H    0.003174
   125  H   -0.000638
   126  H   -0.004131
   127  H    0.008284
   128  H   -0.005682
   129  H   -0.010696
   130  H    0.004628
   131  H   -0.006719
   132  H    0.009232
   133  H   -0.012134
   134  H    0.003168
   135  H    0.003365
   136  H    0.018329
   137  H    0.011322
   138  H    0.015062
   139  H    0.014382
   140  H    0.001380
 Sum of Mulliken charges =  -0.00000

 Dipole moment (field-independent basis, Debye):
    X=             -0.2268    Y=              0.3306    Z=              1.5853  Tot=              1.6352
 Quadrupole moment (field-independent basis, Debye-Ang):
   XX=           -355.2780   YY=           -439.9180   ZZ=           -395.6483
   XY=              2.6802   XZ=             27.8830   YZ=             23.1604

 Normal termination of Gaussian 16 at Thu May  5 08:06:05 2022.
