 Gaussian 16, Revision A.03,
 Gaussian 16:  ES64L-G16RevA.03 25-Dec-2016

 ---------------------------------
 #p PBE1PBE/Def2SVP td=(nstates=5)
 ---------------------------------

 -----------------------------------------------------
 step_751_chromophore_23 TDDFT with PBE1PBE functional
 -----------------------------------------------------
 Symbolic Z-matrix:
 Charge =  0 Multiplicity = 1

                         Standard orientation:
 ---------------------------------------------------------------------
 Center     Atomic      Atomic             Coordinates (Angstroms)
 Number     Number       Type             X           Y           Z
 ---------------------------------------------------------------------
      1         12           0        5.055734    0.239821   -0.107515
      2          6           0        2.837853   -2.429736   -0.416362
      3          6           0        2.980594    2.171901   -2.171765
      4          6           0        7.029587    2.872244    0.378510
      5          6           0        6.753347   -1.591766    2.427645
      6          7           0        2.947048    0.033669   -0.909559
      7          6           0        2.423019   -1.257290   -1.115064
      8          6           0        1.198104   -1.134944   -1.945193
      9          6           0        1.339034    0.165181   -2.685767
     10          6           0        2.519766    0.852692   -1.909423
     11          6           0        1.546706   -0.087605   -4.206155
     12          6           0       -0.081012   -1.212622   -1.024303
     13          6           0       -1.131281   -2.268406   -1.321401
     14          6           0       -2.521718   -1.963414   -1.795280
     15          8           0       -2.802749   -1.264773   -2.637256
     16          8           0       -3.328999   -2.882741   -1.182090
     17          7           0        5.037402    2.238955   -0.887604
     18          6           0        4.089088    2.827906   -1.735935
     19          6           0        4.485832    4.184023   -2.038885
     20          6           0        5.754037    4.335749   -1.403564
     21          6           0        6.008238    3.138039   -0.568419
     22          6           0        3.563869    5.100641   -2.911843
     23          6           0        6.578391    5.639850   -1.583479
     24          8           0        6.345862    6.593981   -2.326224
     25          6           0        7.773187    5.793245   -0.762232
     26          7           0        6.384671    0.669613    1.393775
     27          6           0        7.182202    1.765142    1.288940
     28          6           0        8.297672    1.714301    2.341784
     29          6           0        8.082795    0.444316    3.089110
     30          6           0        7.039568   -0.207064    2.182561
     31          6           0        9.711766    1.872019    1.665825
     32          6           0        7.637346    0.463834    4.590837
     33          6           0        8.641364    0.231376    5.749796
     34          7           0        4.906003   -1.585399    0.803164
     35          6           0        5.696864   -2.253566    1.763238
     36          6           0        5.300534   -3.580560    1.909920
     37          6           0        4.232672   -3.692796    0.999322
     38          6           0        3.935937   -2.439991    0.417017
     39          6           0        5.873375   -4.583550    2.964604
     40          6           0        3.254281   -4.611020    0.438305
     41          8           0        3.078181   -5.791296    0.691933
     42          6           0        2.332344   -3.868869   -0.595141
     43          6           0        2.496122   -4.433345   -2.000082
     44          8           0        3.123929   -3.988809   -2.919577
     45          8           0        1.710535   -5.625588   -2.002740
     46          6           0        1.695853   -6.330629   -3.317590
     47          6           0       -4.677495   -3.131146   -1.758800
     48          6           0       -5.828652   -2.767102   -0.836481
     49          6           0       -6.644924   -1.732558   -0.818418
     50          6           0       -6.730485   -0.573787   -1.748823
     51          6           0       -7.673211   -1.703078    0.287902
     52          6           0       -9.059539   -2.187855    0.038160
     53          6           0      -10.046265   -1.898967    1.177180
     54          6           0      -10.934822   -0.595891    0.968546
     55          6           0      -12.117442   -0.744543   -0.031246
     56          6           0      -11.495211   -0.082547    2.314886
     57          6           0      -11.250404    1.491969    2.534509
     58          6           0      -10.173206    1.710739    3.572391
     59          6           0       -8.687875    1.660194    2.977385
     60          6           0       -7.745376    0.794466    3.846162
     61          6           0       -8.118920    3.058407    2.678219
     62          6           0       -7.388993    3.068420    1.270229
     63          6           0       -8.319660    3.643636    0.216323
     64          6           0       -7.520795    4.359427   -0.847368
     65          6           0       -8.163842    5.736838   -1.263642
     66          6           0       -7.407887    3.469169   -2.152282
     67          1           0        2.386961    2.762810   -2.871953
     68          1           0        7.794238    3.633317    0.547832
     69          1           0        7.261580   -2.060990    3.272459
     70          1           0        1.185619   -1.998114   -2.610981
     71          1           0        0.460773    0.811275   -2.673480
     72          1           0        2.435096   -0.703363   -4.348823
     73          1           0        1.852263    0.813226   -4.738474
     74          1           0        0.672210   -0.512292   -4.698377
     75          1           0       -0.578584   -0.248048   -1.125533
     76          1           0        0.154141   -1.155009    0.038521
     77          1           0       -1.346056   -2.865869   -0.434738
     78          1           0       -0.708276   -2.953878   -2.056227
     79          1           0        4.200042    5.897608   -3.298988
     80          1           0        2.723215    5.526986   -2.365461
     81          1           0        3.271869    4.483131   -3.761453
     82          1           0        8.299101    4.841173   -0.833848
     83          1           0        7.460849    5.955283    0.269186
     84          1           0        8.409436    6.603990   -1.117641
     85          1           0        8.193641    2.589959    2.983109
     86          1           0        8.973181   -0.183909    3.043197
     87          1           0       10.154400    2.864158    1.761209
     88          1           0        9.722035    1.636949    0.601885
     89          1           0       10.512032    1.252041    2.069030
     90          1           0        6.820713   -0.224538    4.806134
     91          1           0        7.162542    1.423532    4.791521
     92          1           0        8.888577    1.117226    6.335860
     93          1           0        9.474597   -0.277930    5.265288
     94          1           0        8.212888   -0.512096    6.422655
     95          1           0        5.308511   -5.456860    3.291328
     96          1           0        6.109752   -4.128572    3.926722
     97          1           0        6.807001   -4.974939    2.560314
     98          1           0        1.329193   -4.169983   -0.292770
     99          1           0        1.938817   -7.377523   -3.132408
    100          1           0        2.292538   -5.889031   -4.116218
    101          1           0        0.636461   -6.297859   -3.571658
    102          1           0       -4.696309   -4.201637   -1.961232
    103          1           0       -4.837247   -2.708665   -2.750739
    104          1           0       -5.947236   -3.492067   -0.031161
    105          1           0       -6.820764    0.357204   -1.188492
    106          1           0       -7.647775   -0.769349   -2.303867
    107          1           0       -5.915448   -0.512386   -2.469495
    108          1           0       -7.723646   -0.676006    0.649694
    109          1           0       -7.321311   -2.318302    1.115869
    110          1           0       -9.151359   -3.273767    0.025354
    111          1           0       -9.406468   -1.801992   -0.920644
    112          1           0       -9.474926   -1.638528    2.068722
    113          1           0      -10.731213   -2.730883    1.338276
    114          1           0      -10.282338    0.201683    0.614847
    115          1           0      -12.245422   -1.715362   -0.509080
    116          1           0      -11.948474    0.053224   -0.754162
    117          1           0      -13.078787   -0.549132    0.443698
    118          1           0      -10.921971   -0.659307    3.040489
    119          1           0      -12.549295   -0.347320    2.395901
    120          1           0      -12.113046    2.031018    2.926139
    121          1           0      -10.950127    1.928412    1.581742
    122          1           0      -10.276889    0.940956    4.336634
    123          1           0      -10.321259    2.633398    4.134050
    124          1           0       -8.648106    1.128073    2.026080
    125          1           0       -6.725884    1.175427    3.899656
    126          1           0       -7.660094   -0.177523    3.360203
    127          1           0       -8.098348    0.580652    4.854973
    128          1           0       -7.391534    3.455162    3.386030
    129          1           0       -8.990113    3.712236    2.712215
    130          1           0       -6.969759    2.110819    0.961820
    131          1           0       -6.525244    3.674289    1.540666
    132          1           0       -9.191576    4.200803    0.558357
    133          1           0       -8.591026    2.694366   -0.245256
    134          1           0       -6.507407    4.492917   -0.466512
    135          1           0       -8.860776    6.213837   -0.574666
    136          1           0       -8.644805    5.610181   -2.234308
    137          1           0       -7.301281    6.401515   -1.216742
    138          1           0       -8.272337    2.894563   -2.485226
    139          1           0       -6.557539    2.792810   -2.069470
    140          1           0       -7.216952    4.158448   -2.974389
 ---------------------------------------------------------------------

 SCF Done:  E(RPBE1PBE) =  -3005.33007567     A.U. after   15 cycles

 Excitation energies and oscillator strengths:

 Excited State   1:      Singlet-A      1.7922 eV  691.80 nm  f=0.3412  <S**2>=0.000
     245 -> 248        0.16989
     246 -> 247        0.69507
     246 <- 247       -0.11169
 This state for optimization and/or second-order correction.
 Total Energy, E(TD-HF/TD-DFT) =  -3005.26421391
 Copying the excited state density for this state as the 1-particle RhoCI density.

 Excited State   2:      Singlet-A      2.2533 eV  550.23 nm  f=0.0645  <S**2>=0.000
     245 -> 247        0.62230
     246 -> 248       -0.31823

 Excited State   3:      Singlet-A      2.7886 eV  444.61 nm  f=0.0008  <S**2>=0.000
     244 -> 247        0.67526
     244 -> 249       -0.12135

 Excited State   4:      Singlet-A      2.9162 eV  425.16 nm  f=0.0004  <S**2>=0.000
     243 -> 247        0.67427
     243 -> 249        0.10394

 Excited State   5:      Singlet-A      3.0230 eV  410.14 nm  f=0.0002  <S**2>=0.000
     241 -> 247       -0.10298
     242 -> 247        0.67586

 The electronic state is 1-A.
 Alpha  occ. eigenvalues --  -46.92141 -19.25066 -19.24530 -19.21511 -19.20216
 Alpha  occ. eigenvalues --  -19.18777 -19.18303 -14.42126 -14.42041 -14.39200
 Alpha  occ. eigenvalues --  -14.38568 -10.37003 -10.35081 -10.31812 -10.31467
 Alpha  occ. eigenvalues --  -10.29845 -10.29465 -10.29152 -10.29124 -10.28930
 Alpha  occ. eigenvalues --  -10.28774 -10.28490 -10.27193 -10.27040 -10.26449
 Alpha  occ. eigenvalues --  -10.26393 -10.26193 -10.26100 -10.26093 -10.25606
 Alpha  occ. eigenvalues --  -10.25571 -10.25553 -10.25474 -10.25224 -10.25011
 Alpha  occ. eigenvalues --  -10.24679 -10.24648 -10.24623 -10.24284 -10.24224
 Alpha  occ. eigenvalues --  -10.24085 -10.24025 -10.23808 -10.23757 -10.23464
 Alpha  occ. eigenvalues --  -10.23398 -10.23302 -10.23250 -10.23185 -10.23091
 Alpha  occ. eigenvalues --  -10.22980 -10.22887 -10.22840 -10.22789 -10.22691
 Alpha  occ. eigenvalues --  -10.22606 -10.22482 -10.22277 -10.22225 -10.22124
 Alpha  occ. eigenvalues --  -10.21987 -10.21957 -10.21872 -10.21741 -10.21587
 Alpha  occ. eigenvalues --  -10.21379  -3.14302  -1.87098  -1.86735  -1.86494
 Alpha  occ. eigenvalues --   -1.13567  -1.10368  -1.04658  -1.04092  -1.04010
 Alpha  occ. eigenvalues --   -1.02830  -0.99910  -0.98301  -0.97586  -0.96847
 Alpha  occ. eigenvalues --   -0.86848  -0.85509  -0.83913  -0.83865  -0.83774
 Alpha  occ. eigenvalues --   -0.82932  -0.82842  -0.81352  -0.81255  -0.80622
 Alpha  occ. eigenvalues --   -0.80003  -0.79932  -0.78669  -0.78093  -0.77832
 Alpha  occ. eigenvalues --   -0.76609  -0.76471  -0.75752  -0.75072  -0.74830
 Alpha  occ. eigenvalues --   -0.74033  -0.72264  -0.72098  -0.71303  -0.70524
 Alpha  occ. eigenvalues --   -0.70050  -0.69790  -0.69162  -0.68763  -0.68401
 Alpha  occ. eigenvalues --   -0.67770  -0.67334  -0.66581  -0.64989  -0.63908
 Alpha  occ. eigenvalues --   -0.62858  -0.62706  -0.61414  -0.60982  -0.60171
 Alpha  occ. eigenvalues --   -0.59478  -0.59381  -0.59110  -0.58891  -0.57852
 Alpha  occ. eigenvalues --   -0.57399  -0.57148  -0.56668  -0.56340  -0.54817
 Alpha  occ. eigenvalues --   -0.54273  -0.54149  -0.53707  -0.53658  -0.52356
 Alpha  occ. eigenvalues --   -0.52203  -0.52016  -0.51030  -0.50299  -0.49967
 Alpha  occ. eigenvalues --   -0.49765  -0.49643  -0.48992  -0.48926  -0.48627
 Alpha  occ. eigenvalues --   -0.48488  -0.47955  -0.47812  -0.47405  -0.47114
 Alpha  occ. eigenvalues --   -0.47014  -0.46775  -0.46542  -0.46336  -0.46251
 Alpha  occ. eigenvalues --   -0.46115  -0.45988  -0.45666  -0.45607  -0.45276
 Alpha  occ. eigenvalues --   -0.45098  -0.44569  -0.44464  -0.44381  -0.44222
 Alpha  occ. eigenvalues --   -0.43908  -0.43734  -0.43568  -0.43511  -0.43187
 Alpha  occ. eigenvalues --   -0.42929  -0.42724  -0.42380  -0.42242  -0.42134
 Alpha  occ. eigenvalues --   -0.42078  -0.42003  -0.41785  -0.41607  -0.41467
 Alpha  occ. eigenvalues --   -0.41308  -0.41156  -0.40928  -0.40650  -0.40351
 Alpha  occ. eigenvalues --   -0.40187  -0.40130  -0.40091  -0.39890  -0.39637
 Alpha  occ. eigenvalues --   -0.39579  -0.39329  -0.39117  -0.39062  -0.38816
 Alpha  occ. eigenvalues --   -0.38747  -0.38395  -0.38185  -0.38084  -0.37953
 Alpha  occ. eigenvalues --   -0.37929  -0.37580  -0.37497  -0.37200  -0.37134
 Alpha  occ. eigenvalues --   -0.36509  -0.36457  -0.36313  -0.36112  -0.35977
 Alpha  occ. eigenvalues --   -0.35673  -0.35292  -0.35265  -0.35187  -0.35059
 Alpha  occ. eigenvalues --   -0.35018  -0.34482  -0.34454  -0.34080  -0.33996
 Alpha  occ. eigenvalues --   -0.33818  -0.33598  -0.33160  -0.32739  -0.32338
 Alpha  occ. eigenvalues --   -0.32022  -0.31824  -0.31329  -0.31249  -0.31069
 Alpha  occ. eigenvalues --   -0.30917  -0.30332  -0.29946  -0.29783  -0.29764
 Alpha  occ. eigenvalues --   -0.29433  -0.28884  -0.28333  -0.26842  -0.26423
 Alpha  occ. eigenvalues --   -0.25759  -0.25349  -0.25043  -0.24673  -0.21517
 Alpha  occ. eigenvalues --   -0.18630
 Alpha virt. eigenvalues --   -0.11245  -0.05798  -0.03753  -0.02029  -0.00758
 Alpha virt. eigenvalues --   -0.00131   0.00527   0.00691   0.02281   0.03191
 Alpha virt. eigenvalues --    0.03557   0.03757   0.04831   0.05613   0.06299

 Mulliken charges:
               1
     1  Mg   0.965511
     2  C   -0.012560
     3  C   -0.074803
     4  C   -0.085312
     5  C   -0.076999
     6  N   -0.378772
     7  C    0.022734
     8  C   -0.095336
     9  C   -0.115951
    10  C    0.110384
    11  C   -0.005108
    12  C    0.065070
    13  C   -0.070078
    14  C    0.187526
    15  O   -0.167261
    16  O   -0.382276
    17  N   -0.488705
    18  C    0.155266
    19  C   -0.145531
    20  C   -0.148366
    21  C    0.222404
    22  C    0.056362
    23  C    0.071984
    24  O   -0.241918
    25  C   -0.027920
    26  N   -0.407034
    27  C    0.075527
    28  C   -0.100889
    29  C   -0.047417
    30  C    0.046339
    31  C   -0.014880
    32  C   -0.048385
    33  C   -0.054808
    34  N   -0.516340
    35  C    0.151906
    36  C   -0.151659
    37  C   -0.047927
    38  C    0.191937
    39  C    0.053794
    40  C    0.102142
    41  O   -0.205311
    42  C   -0.122992
    43  C    0.304553
    44  O   -0.218972
    45  O   -0.401656
    46  C    0.110276
    47  C    0.264360
    48  C   -0.156269
    49  C   -0.173553
    50  C    0.036931
    51  C   -0.042126
    52  C    0.015753
    53  C   -0.030233
    54  C   -0.264377
    55  C    0.010850
    56  C    0.005668
    57  C   -0.036641
    58  C   -0.016654
    59  C   -0.235802
    60  C   -0.015097
    61  C    0.014868
    62  C   -0.118296
    63  C    0.038706
    64  C   -0.244875
    65  C   -0.023464
    66  C   -0.051341
    67  H    0.004388
    68  H   -0.005729
    69  H    0.012029
    70  H    0.048401
    71  H    0.054238
    72  H    0.043559
    73  H    0.030126
    74  H    0.061629
    75  H    0.028504
    76  H    0.047720
    77  H    0.062223
    78  H    0.064999
    79  H    0.065095
    80  H    0.070554
    81  H    0.052947
    82  H    0.060942
    83  H    0.070755
    84  H    0.055797
    85  H    0.052270
    86  H    0.034976
    87  H    0.041403
    88  H    0.046358
    89  H    0.038699
    90  H    0.045535
    91  H    0.028078
    92  H    0.057613
    93  H    0.032568
    94  H    0.039488
    95  H    0.058877
    96  H    0.039816
    97  H    0.051160
    98  H    0.087912
    99  H    0.066557
   100  H    0.077263
   101  H    0.050990
   102  H    0.034644
   103  H    0.040989
   104  H    0.019561
   105  H    0.051281
   106  H    0.049843
   107  H    0.053352
   108  H    0.032953
   109  H    0.033660
   110  H    0.025244
   111  H    0.020885
   112  H    0.033303
   113  H    0.033575
   114  H    0.032098
   115  H    0.034374
   116  H    0.033180
   117  H    0.028122
   118  H    0.019258
   119  H    0.030651
   120  H    0.027722
   121  H    0.037818
   122  H    0.020283
   123  H    0.023833
   124  H    0.054494
   125  H    0.026894
   126  H    0.025170
   127  H    0.034862
   128  H    0.026052
   129  H    0.022549
   130  H    0.040312
   131  H    0.025775
   132  H    0.038198
   133  H    0.024689
   134  H    0.039654
   135  H    0.030618
   136  H    0.045030
   137  H    0.039401
   138  H    0.041472
   139  H    0.043334
   140  H    0.030169
 Sum of Mulliken charges =  -0.00000

 Dipole moment (field-independent basis, Debye):
    X=             -0.2026    Y=             -0.1707    Z=              1.9264  Tot=              1.9446
 Quadrupole moment (field-independent basis, Debye-Ang):
   XX=           -350.3791   YY=           -437.3824   ZZ=           -391.8874
   XY=              0.1284   XZ=             30.8098   YZ=             22.9616

 Normal termination of Gaussian 16 at Thu May  5 08:30:53 2022.
