 Gaussian 16, Revision A.03,
 Gaussian 16:  ES64L-G16RevA.03 25-Dec-2016

 --------------------------------
 #p wB97XD/Def2SVP td=(nstates=5)
 --------------------------------

 ----------------------------------------------------
 step_751_chromophore_23 TDDFT with wB97XD functional
 ----------------------------------------------------
 Symbolic Z-matrix:
 Charge =  0 Multiplicity = 1

                         Standard orientation:
 ---------------------------------------------------------------------
 Center     Atomic      Atomic             Coordinates (Angstroms)
 Number     Number       Type             X           Y           Z
 ---------------------------------------------------------------------
      1         12           0        5.055734    0.239821   -0.107515
      2          6           0        2.837853   -2.429736   -0.416362
      3          6           0        2.980594    2.171901   -2.171765
      4          6           0        7.029587    2.872244    0.378510
      5          6           0        6.753347   -1.591766    2.427645
      6          7           0        2.947048    0.033669   -0.909559
      7          6           0        2.423019   -1.257290   -1.115064
      8          6           0        1.198104   -1.134944   -1.945193
      9          6           0        1.339034    0.165181   -2.685767
     10          6           0        2.519766    0.852692   -1.909423
     11          6           0        1.546706   -0.087605   -4.206155
     12          6           0       -0.081012   -1.212622   -1.024303
     13          6           0       -1.131281   -2.268406   -1.321401
     14          6           0       -2.521718   -1.963414   -1.795280
     15          8           0       -2.802749   -1.264773   -2.637256
     16          8           0       -3.328999   -2.882741   -1.182090
     17          7           0        5.037402    2.238955   -0.887604
     18          6           0        4.089088    2.827906   -1.735935
     19          6           0        4.485832    4.184023   -2.038885
     20          6           0        5.754037    4.335749   -1.403564
     21          6           0        6.008238    3.138039   -0.568419
     22          6           0        3.563869    5.100641   -2.911843
     23          6           0        6.578391    5.639850   -1.583479
     24          8           0        6.345862    6.593981   -2.326224
     25          6           0        7.773187    5.793245   -0.762232
     26          7           0        6.384671    0.669613    1.393775
     27          6           0        7.182202    1.765142    1.288940
     28          6           0        8.297672    1.714301    2.341784
     29          6           0        8.082795    0.444316    3.089110
     30          6           0        7.039568   -0.207064    2.182561
     31          6           0        9.711766    1.872019    1.665825
     32          6           0        7.637346    0.463834    4.590837
     33          6           0        8.641364    0.231376    5.749796
     34          7           0        4.906003   -1.585399    0.803164
     35          6           0        5.696864   -2.253566    1.763238
     36          6           0        5.300534   -3.580560    1.909920
     37          6           0        4.232672   -3.692796    0.999322
     38          6           0        3.935937   -2.439991    0.417017
     39          6           0        5.873375   -4.583550    2.964604
     40          6           0        3.254281   -4.611020    0.438305
     41          8           0        3.078181   -5.791296    0.691933
     42          6           0        2.332344   -3.868869   -0.595141
     43          6           0        2.496122   -4.433345   -2.000082
     44          8           0        3.123929   -3.988809   -2.919577
     45          8           0        1.710535   -5.625588   -2.002740
     46          6           0        1.695853   -6.330629   -3.317590
     47          6           0       -4.677495   -3.131146   -1.758800
     48          6           0       -5.828652   -2.767102   -0.836481
     49          6           0       -6.644924   -1.732558   -0.818418
     50          6           0       -6.730485   -0.573787   -1.748823
     51          6           0       -7.673211   -1.703078    0.287902
     52          6           0       -9.059539   -2.187855    0.038160
     53          6           0      -10.046265   -1.898967    1.177180
     54          6           0      -10.934822   -0.595891    0.968546
     55          6           0      -12.117442   -0.744543   -0.031246
     56          6           0      -11.495211   -0.082547    2.314886
     57          6           0      -11.250404    1.491969    2.534509
     58          6           0      -10.173206    1.710739    3.572391
     59          6           0       -8.687875    1.660194    2.977385
     60          6           0       -7.745376    0.794466    3.846162
     61          6           0       -8.118920    3.058407    2.678219
     62          6           0       -7.388993    3.068420    1.270229
     63          6           0       -8.319660    3.643636    0.216323
     64          6           0       -7.520795    4.359427   -0.847368
     65          6           0       -8.163842    5.736838   -1.263642
     66          6           0       -7.407887    3.469169   -2.152282
     67          1           0        2.386961    2.762810   -2.871953
     68          1           0        7.794238    3.633317    0.547832
     69          1           0        7.261580   -2.060990    3.272459
     70          1           0        1.185619   -1.998114   -2.610981
     71          1           0        0.460773    0.811275   -2.673480
     72          1           0        2.435096   -0.703363   -4.348823
     73          1           0        1.852263    0.813226   -4.738474
     74          1           0        0.672210   -0.512292   -4.698377
     75          1           0       -0.578584   -0.248048   -1.125533
     76          1           0        0.154141   -1.155009    0.038521
     77          1           0       -1.346056   -2.865869   -0.434738
     78          1           0       -0.708276   -2.953878   -2.056227
     79          1           0        4.200042    5.897608   -3.298988
     80          1           0        2.723215    5.526986   -2.365461
     81          1           0        3.271869    4.483131   -3.761453
     82          1           0        8.299101    4.841173   -0.833848
     83          1           0        7.460849    5.955283    0.269186
     84          1           0        8.409436    6.603990   -1.117641
     85          1           0        8.193641    2.589959    2.983109
     86          1           0        8.973181   -0.183909    3.043197
     87          1           0       10.154400    2.864158    1.761209
     88          1           0        9.722035    1.636949    0.601885
     89          1           0       10.512032    1.252041    2.069030
     90          1           0        6.820713   -0.224538    4.806134
     91          1           0        7.162542    1.423532    4.791521
     92          1           0        8.888577    1.117226    6.335860
     93          1           0        9.474597   -0.277930    5.265288
     94          1           0        8.212888   -0.512096    6.422655
     95          1           0        5.308511   -5.456860    3.291328
     96          1           0        6.109752   -4.128572    3.926722
     97          1           0        6.807001   -4.974939    2.560314
     98          1           0        1.329193   -4.169983   -0.292770
     99          1           0        1.938817   -7.377523   -3.132408
    100          1           0        2.292538   -5.889031   -4.116218
    101          1           0        0.636461   -6.297859   -3.571658
    102          1           0       -4.696309   -4.201637   -1.961232
    103          1           0       -4.837247   -2.708665   -2.750739
    104          1           0       -5.947236   -3.492067   -0.031161
    105          1           0       -6.820764    0.357204   -1.188492
    106          1           0       -7.647775   -0.769349   -2.303867
    107          1           0       -5.915448   -0.512386   -2.469495
    108          1           0       -7.723646   -0.676006    0.649694
    109          1           0       -7.321311   -2.318302    1.115869
    110          1           0       -9.151359   -3.273767    0.025354
    111          1           0       -9.406468   -1.801992   -0.920644
    112          1           0       -9.474926   -1.638528    2.068722
    113          1           0      -10.731213   -2.730883    1.338276
    114          1           0      -10.282338    0.201683    0.614847
    115          1           0      -12.245422   -1.715362   -0.509080
    116          1           0      -11.948474    0.053224   -0.754162
    117          1           0      -13.078787   -0.549132    0.443698
    118          1           0      -10.921971   -0.659307    3.040489
    119          1           0      -12.549295   -0.347320    2.395901
    120          1           0      -12.113046    2.031018    2.926139
    121          1           0      -10.950127    1.928412    1.581742
    122          1           0      -10.276889    0.940956    4.336634
    123          1           0      -10.321259    2.633398    4.134050
    124          1           0       -8.648106    1.128073    2.026080
    125          1           0       -6.725884    1.175427    3.899656
    126          1           0       -7.660094   -0.177523    3.360203
    127          1           0       -8.098348    0.580652    4.854973
    128          1           0       -7.391534    3.455162    3.386030
    129          1           0       -8.990113    3.712236    2.712215
    130          1           0       -6.969759    2.110819    0.961820
    131          1           0       -6.525244    3.674289    1.540666
    132          1           0       -9.191576    4.200803    0.558357
    133          1           0       -8.591026    2.694366   -0.245256
    134          1           0       -6.507407    4.492917   -0.466512
    135          1           0       -8.860776    6.213837   -0.574666
    136          1           0       -8.644805    5.610181   -2.234308
    137          1           0       -7.301281    6.401515   -1.216742
    138          1           0       -8.272337    2.894563   -2.485226
    139          1           0       -6.557539    2.792810   -2.069470
    140          1           0       -7.216952    4.158448   -2.974389
 ---------------------------------------------------------------------

 SCF Done:  E(RwB97XD) =  -3007.84124786     A.U. after   17 cycles

 Excitation energies and oscillator strengths:

 Excited State   1:      Singlet-A      1.5997 eV  775.04 nm  f=0.3517  <S**2>=0.000
     245 -> 248        0.17891
     246 -> 247        0.68551
     245 <- 248        0.11769
 This state for optimization and/or second-order correction.
 Total Energy, E(TD-HF/TD-DFT) =  -3007.78245952
 Copying the excited state density for this state as the 1-particle RhoCI density.

 Excited State   2:      Singlet-A      2.1988 eV  563.87 nm  f=0.0582  <S**2>=0.000
     245 -> 247        0.60489
     246 -> 248       -0.34790

 Excited State   3:      Singlet-A      3.3015 eV  375.54 nm  f=0.0921  <S**2>=0.000
     242 -> 247        0.39258
     243 -> 247       -0.32872
     244 -> 247        0.33421
     245 -> 247        0.10610
     246 -> 248        0.26246

 Excited State   4:      Singlet-A      3.3199 eV  373.45 nm  f=0.1347  <S**2>=0.000
     242 -> 247       -0.11297
     244 -> 247        0.52104
     244 -> 249       -0.15780
     245 -> 247       -0.14545
     246 -> 248       -0.34821

 Excited State   5:      Singlet-A      3.4917 eV  355.08 nm  f=0.2612  <S**2>=0.000
     243 -> 247        0.50270
     243 -> 249       -0.18420
     243 -> 250        0.12346
     244 -> 249       -0.10390
     244 -> 250        0.11044
     245 -> 247        0.18866
     246 -> 248        0.30940

 The electronic state is 1-A.
 Alpha  occ. eigenvalues --  -46.95112 -19.29554 -19.29052 -19.26189 -19.24908
 Alpha  occ. eigenvalues --  -19.23813 -19.22866 -14.47371 -14.46998 -14.44307
 Alpha  occ. eigenvalues --  -14.43314 -10.43809 -10.41846 -10.38872 -10.38104
 Alpha  occ. eigenvalues --  -10.36385 -10.36046 -10.35906 -10.35664 -10.34998
 Alpha  occ. eigenvalues --  -10.34941 -10.34774 -10.33939 -10.33354 -10.32982
 Alpha  occ. eigenvalues --  -10.32715 -10.32435 -10.32370 -10.32329 -10.32190
 Alpha  occ. eigenvalues --  -10.31904 -10.31606 -10.31590 -10.31581 -10.31332
 Alpha  occ. eigenvalues --  -10.31235 -10.31024 -10.30769 -10.30578 -10.30505
 Alpha  occ. eigenvalues --  -10.30499 -10.30465 -10.30221 -10.30125 -10.29757
 Alpha  occ. eigenvalues --  -10.29741 -10.29667 -10.29664 -10.29511 -10.29378
 Alpha  occ. eigenvalues --  -10.29362 -10.29241 -10.29214 -10.29199 -10.29071
 Alpha  occ. eigenvalues --  -10.28962 -10.28786 -10.28620 -10.28563 -10.28483
 Alpha  occ. eigenvalues --  -10.28377 -10.28340 -10.28285 -10.28163 -10.27940
 Alpha  occ. eigenvalues --  -10.27817  -3.21129  -1.94674  -1.94313  -1.94068
 Alpha  occ. eigenvalues --   -1.20876  -1.17733  -1.11961  -1.11803  -1.11268
 Alpha  occ. eigenvalues --   -1.10139  -1.07229  -1.05708  -1.04946  -1.04350
 Alpha  occ. eigenvalues --   -0.94341  -0.93163  -0.91527  -0.91446  -0.91365
 Alpha  occ. eigenvalues --   -0.90691  -0.90502  -0.88955  -0.88913  -0.88138
 Alpha  occ. eigenvalues --   -0.87856  -0.87530  -0.86334  -0.85742  -0.85404
 Alpha  occ. eigenvalues --   -0.84259  -0.84230  -0.83446  -0.82665  -0.82431
 Alpha  occ. eigenvalues --   -0.81698  -0.79836  -0.79619  -0.79201  -0.78173
 Alpha  occ. eigenvalues --   -0.77633  -0.77388  -0.76861  -0.76445  -0.76049
 Alpha  occ. eigenvalues --   -0.75356  -0.74869  -0.74147  -0.72596  -0.71418
 Alpha  occ. eigenvalues --   -0.70494  -0.70223  -0.69002  -0.68617  -0.67597
 Alpha  occ. eigenvalues --   -0.67112  -0.66843  -0.66752  -0.66287  -0.65529
 Alpha  occ. eigenvalues --   -0.65028  -0.64608  -0.64284  -0.63712  -0.62287
 Alpha  occ. eigenvalues --   -0.61778  -0.61601  -0.61086  -0.61036  -0.59790
 Alpha  occ. eigenvalues --   -0.59587  -0.59461  -0.58457  -0.57806  -0.57407
 Alpha  occ. eigenvalues --   -0.57141  -0.57068  -0.56417  -0.56292  -0.56014
 Alpha  occ. eigenvalues --   -0.55833  -0.55368  -0.55113  -0.54805  -0.54623
 Alpha  occ. eigenvalues --   -0.54430  -0.54074  -0.53981  -0.53836  -0.53585
 Alpha  occ. eigenvalues --   -0.53460  -0.53361  -0.53021  -0.52982  -0.52506
 Alpha  occ. eigenvalues --   -0.52406  -0.52227  -0.51775  -0.51636  -0.51418
 Alpha  occ. eigenvalues --   -0.51188  -0.51039  -0.50912  -0.50837  -0.50390
 Alpha  occ. eigenvalues --   -0.50197  -0.50037  -0.49655  -0.49508  -0.49420
 Alpha  occ. eigenvalues --   -0.49343  -0.49304  -0.49093  -0.48854  -0.48723
 Alpha  occ. eigenvalues --   -0.48523  -0.48244  -0.48203  -0.48063  -0.47617
 Alpha  occ. eigenvalues --   -0.47389  -0.47264  -0.47141  -0.47031  -0.46863
 Alpha  occ. eigenvalues --   -0.46841  -0.46346  -0.46296  -0.46257  -0.45944
 Alpha  occ. eigenvalues --   -0.45800  -0.45534  -0.45309  -0.45215  -0.45123
 Alpha  occ. eigenvalues --   -0.44934  -0.44664  -0.44629  -0.44264  -0.44199
 Alpha  occ. eigenvalues --   -0.43590  -0.43543  -0.43493  -0.43238  -0.43167
 Alpha  occ. eigenvalues --   -0.42807  -0.42356  -0.42273  -0.42206  -0.42135
 Alpha  occ. eigenvalues --   -0.42017  -0.41541  -0.41479  -0.41121  -0.40972
 Alpha  occ. eigenvalues --   -0.40901  -0.40632  -0.40201  -0.39711  -0.39363
 Alpha  occ. eigenvalues --   -0.39045  -0.38740  -0.38304  -0.38226  -0.38107
 Alpha  occ. eigenvalues --   -0.37927  -0.37318  -0.36931  -0.36661  -0.36597
 Alpha  occ. eigenvalues --   -0.36129  -0.35912  -0.35192  -0.33493  -0.33139
 Alpha  occ. eigenvalues --   -0.32749  -0.32216  -0.31891  -0.31274  -0.26613
 Alpha  occ. eigenvalues --   -0.22754
 Alpha virt. eigenvalues --   -0.07061  -0.00444   0.02511   0.04547   0.05121
 Alpha virt. eigenvalues --    0.06600   0.07184   0.07495   0.09157   0.09796
 Alpha virt. eigenvalues --    0.10011   0.10626   0.11320   0.12281   0.12843

 Mulliken charges:
               1
     1  Mg   0.957398
     2  C   -0.015596
     3  C   -0.089493
     4  C   -0.104828
     5  C   -0.099551
     6  N   -0.348572
     7  C   -0.007234
     8  C   -0.060715
     9  C   -0.090405
    10  C    0.094501
    11  C    0.005128
    12  C    0.070617
    13  C   -0.050071
    14  C    0.174843
    15  O   -0.164935
    16  O   -0.380865
    17  N   -0.458997
    18  C    0.153426
    19  C   -0.142113
    20  C   -0.142512
    21  C    0.220783
    22  C    0.072397
    23  C    0.067591
    24  O   -0.234869
    25  C   -0.012284
    26  N   -0.377871
    27  C    0.071637
    28  C   -0.076902
    29  C   -0.020096
    30  C    0.036619
    31  C   -0.005501
    32  C   -0.038069
    33  C   -0.036757
    34  N   -0.479120
    35  C    0.148122
    36  C   -0.155253
    37  C   -0.037672
    38  C    0.172450
    39  C    0.063334
    40  C    0.079250
    41  O   -0.198224
    42  C   -0.085865
    43  C    0.285481
    44  O   -0.214108
    45  O   -0.402576
    46  C    0.126179
    47  C    0.278748
    48  C   -0.168828
    49  C   -0.161559
    50  C    0.058414
    51  C   -0.003253
    52  C    0.029027
    53  C   -0.005350
    54  C   -0.230191
    55  C    0.019134
    56  C    0.020951
    57  C   -0.013573
    58  C    0.000724
    59  C   -0.186191
    60  C   -0.001132
    61  C    0.025583
    62  C   -0.092145
    63  C    0.057526
    64  C   -0.217490
    65  C   -0.011027
    66  C   -0.036112
    67  H   -0.000639
    68  H   -0.016689
    69  H    0.005847
    70  H    0.027970
    71  H    0.046233
    72  H    0.037458
    73  H    0.023574
    74  H    0.057792
    75  H    0.018784
    76  H    0.040998
    77  H    0.056321
    78  H    0.057045
    79  H    0.061716
    80  H    0.068438
    81  H    0.047931
    82  H    0.053342
    83  H    0.066033
    84  H    0.055712
    85  H    0.043263
    86  H    0.021673
    87  H    0.035904
    88  H    0.039638
    89  H    0.034146
    90  H    0.037244
    91  H    0.018899
    92  H    0.052079
    93  H    0.024580
    94  H    0.033676
    95  H    0.055028
    96  H    0.033092
    97  H    0.044567
    98  H    0.080971
    99  H    0.062688
   100  H    0.073407
   101  H    0.046190
   102  H    0.031240
   103  H    0.035613
   104  H    0.016643
   105  H    0.038820
   106  H    0.042667
   107  H    0.048940
   108  H    0.010209
   109  H    0.024860
   110  H    0.018049
   111  H    0.009931
   112  H    0.015076
   113  H    0.026762
   114  H    0.011336
   115  H    0.029332
   116  H    0.027912
   117  H    0.021773
   118  H    0.006166
   119  H    0.022899
   120  H    0.021886
   121  H    0.023437
   122  H    0.009570
   123  H    0.016690
   124  H    0.013602
   125  H    0.021491
   126  H    0.015890
   127  H    0.029427
   128  H    0.019445
   129  H    0.010694
   130  H    0.027484
   131  H    0.016544
   132  H    0.030238
   133  H    0.008052
   134  H    0.028465
   135  H    0.025303
   136  H    0.038719
   137  H    0.033291
   138  H    0.035556
   139  H    0.036039
   140  H    0.023075
 Sum of Mulliken charges =  -0.00000

 Dipole moment (field-independent basis, Debye):
    X=             -0.2174    Y=              0.5004    Z=              1.4920  Tot=              1.5886
 Quadrupole moment (field-independent basis, Debye-Ang):
   XX=           -350.5642   YY=           -435.7527   ZZ=           -391.7487
   XY=              3.8485   XZ=             28.2716   YZ=             22.8614

 Normal termination of Gaussian 16 at Thu May  5 09:11:39 2022.
