 Gaussian 16, Revision A.03,
 Gaussian 16:  ES64L-G16RevA.03 25-Dec-2016

 --------------------
 #p ZINDO=(nstates=5)
 --------------------

 -----------------------------
 step_751_chromophore_23 ZINDO
 -----------------------------
 Symbolic Z-matrix:
 Charge =  0 Multiplicity = 1

                         Standard orientation:
 ---------------------------------------------------------------------
 Center     Atomic      Atomic             Coordinates (Angstroms)
 Number     Number       Type             X           Y           Z
 ---------------------------------------------------------------------
      1         12           0        5.055734    0.239821   -0.107515
      2          6           0        2.837853   -2.429736   -0.416362
      3          6           0        2.980594    2.171901   -2.171765
      4          6           0        7.029587    2.872244    0.378510
      5          6           0        6.753347   -1.591766    2.427645
      6          7           0        2.947048    0.033669   -0.909559
      7          6           0        2.423019   -1.257290   -1.115064
      8          6           0        1.198104   -1.134944   -1.945193
      9          6           0        1.339034    0.165181   -2.685767
     10          6           0        2.519766    0.852692   -1.909423
     11          6           0        1.546706   -0.087605   -4.206155
     12          6           0       -0.081012   -1.212622   -1.024303
     13          6           0       -1.131281   -2.268406   -1.321401
     14          6           0       -2.521718   -1.963414   -1.795280
     15          8           0       -2.802749   -1.264773   -2.637256
     16          8           0       -3.328999   -2.882741   -1.182090
     17          7           0        5.037402    2.238955   -0.887604
     18          6           0        4.089088    2.827906   -1.735935
     19          6           0        4.485832    4.184023   -2.038885
     20          6           0        5.754037    4.335749   -1.403564
     21          6           0        6.008238    3.138039   -0.568419
     22          6           0        3.563869    5.100641   -2.911843
     23          6           0        6.578391    5.639850   -1.583479
     24          8           0        6.345862    6.593981   -2.326224
     25          6           0        7.773187    5.793245   -0.762232
     26          7           0        6.384671    0.669613    1.393775
     27          6           0        7.182202    1.765142    1.288940
     28          6           0        8.297672    1.714301    2.341784
     29          6           0        8.082795    0.444316    3.089110
     30          6           0        7.039568   -0.207064    2.182561
     31          6           0        9.711766    1.872019    1.665825
     32          6           0        7.637346    0.463834    4.590837
     33          6           0        8.641364    0.231376    5.749796
     34          7           0        4.906003   -1.585399    0.803164
     35          6           0        5.696864   -2.253566    1.763238
     36          6           0        5.300534   -3.580560    1.909920
     37          6           0        4.232672   -3.692796    0.999322
     38          6           0        3.935937   -2.439991    0.417017
     39          6           0        5.873375   -4.583550    2.964604
     40          6           0        3.254281   -4.611020    0.438305
     41          8           0        3.078181   -5.791296    0.691933
     42          6           0        2.332344   -3.868869   -0.595141
     43          6           0        2.496122   -4.433345   -2.000082
     44          8           0        3.123929   -3.988809   -2.919577
     45          8           0        1.710535   -5.625588   -2.002740
     46          6           0        1.695853   -6.330629   -3.317590
     47          6           0       -4.677495   -3.131146   -1.758800
     48          6           0       -5.828652   -2.767102   -0.836481
     49          6           0       -6.644924   -1.732558   -0.818418
     50          6           0       -6.730485   -0.573787   -1.748823
     51          6           0       -7.673211   -1.703078    0.287902
     52          6           0       -9.059539   -2.187855    0.038160
     53          6           0      -10.046265   -1.898967    1.177180
     54          6           0      -10.934822   -0.595891    0.968546
     55          6           0      -12.117442   -0.744543   -0.031246
     56          6           0      -11.495211   -0.082547    2.314886
     57          6           0      -11.250404    1.491969    2.534509
     58          6           0      -10.173206    1.710739    3.572391
     59          6           0       -8.687875    1.660194    2.977385
     60          6           0       -7.745376    0.794466    3.846162
     61          6           0       -8.118920    3.058407    2.678219
     62          6           0       -7.388993    3.068420    1.270229
     63          6           0       -8.319660    3.643636    0.216323
     64          6           0       -7.520795    4.359427   -0.847368
     65          6           0       -8.163842    5.736838   -1.263642
     66          6           0       -7.407887    3.469169   -2.152282
     67          1           0        2.386961    2.762810   -2.871953
     68          1           0        7.794238    3.633317    0.547832
     69          1           0        7.261580   -2.060990    3.272459
     70          1           0        1.185619   -1.998114   -2.610981
     71          1           0        0.460773    0.811275   -2.673480
     72          1           0        2.435096   -0.703363   -4.348823
     73          1           0        1.852263    0.813226   -4.738474
     74          1           0        0.672210   -0.512292   -4.698377
     75          1           0       -0.578584   -0.248048   -1.125533
     76          1           0        0.154141   -1.155009    0.038521
     77          1           0       -1.346056   -2.865869   -0.434738
     78          1           0       -0.708276   -2.953878   -2.056227
     79          1           0        4.200042    5.897608   -3.298988
     80          1           0        2.723215    5.526986   -2.365461
     81          1           0        3.271869    4.483131   -3.761453
     82          1           0        8.299101    4.841173   -0.833848
     83          1           0        7.460849    5.955283    0.269186
     84          1           0        8.409436    6.603990   -1.117641
     85          1           0        8.193641    2.589959    2.983109
     86          1           0        8.973181   -0.183909    3.043197
     87          1           0       10.154400    2.864158    1.761209
     88          1           0        9.722035    1.636949    0.601885
     89          1           0       10.512032    1.252041    2.069030
     90          1           0        6.820713   -0.224538    4.806134
     91          1           0        7.162542    1.423532    4.791521
     92          1           0        8.888577    1.117226    6.335860
     93          1           0        9.474597   -0.277930    5.265288
     94          1           0        8.212888   -0.512096    6.422655
     95          1           0        5.308511   -5.456860    3.291328
     96          1           0        6.109752   -4.128572    3.926722
     97          1           0        6.807001   -4.974939    2.560314
     98          1           0        1.329193   -4.169983   -0.292770
     99          1           0        1.938817   -7.377523   -3.132408
    100          1           0        2.292538   -5.889031   -4.116218
    101          1           0        0.636461   -6.297859   -3.571658
    102          1           0       -4.696309   -4.201637   -1.961232
    103          1           0       -4.837247   -2.708665   -2.750739
    104          1           0       -5.947236   -3.492067   -0.031161
    105          1           0       -6.820764    0.357204   -1.188492
    106          1           0       -7.647775   -0.769349   -2.303867
    107          1           0       -5.915448   -0.512386   -2.469495
    108          1           0       -7.723646   -0.676006    0.649694
    109          1           0       -7.321311   -2.318302    1.115869
    110          1           0       -9.151359   -3.273767    0.025354
    111          1           0       -9.406468   -1.801992   -0.920644
    112          1           0       -9.474926   -1.638528    2.068722
    113          1           0      -10.731213   -2.730883    1.338276
    114          1           0      -10.282338    0.201683    0.614847
    115          1           0      -12.245422   -1.715362   -0.509080
    116          1           0      -11.948474    0.053224   -0.754162
    117          1           0      -13.078787   -0.549132    0.443698
    118          1           0      -10.921971   -0.659307    3.040489
    119          1           0      -12.549295   -0.347320    2.395901
    120          1           0      -12.113046    2.031018    2.926139
    121          1           0      -10.950127    1.928412    1.581742
    122          1           0      -10.276889    0.940956    4.336634
    123          1           0      -10.321259    2.633398    4.134050
    124          1           0       -8.648106    1.128073    2.026080
    125          1           0       -6.725884    1.175427    3.899656
    126          1           0       -7.660094   -0.177523    3.360203
    127          1           0       -8.098348    0.580652    4.854973
    128          1           0       -7.391534    3.455162    3.386030
    129          1           0       -8.990113    3.712236    2.712215
    130          1           0       -6.969759    2.110819    0.961820
    131          1           0       -6.525244    3.674289    1.540666
    132          1           0       -9.191576    4.200803    0.558357
    133          1           0       -8.591026    2.694366   -0.245256
    134          1           0       -6.507407    4.492917   -0.466512
    135          1           0       -8.860776    6.213837   -0.574666
    136          1           0       -8.644805    5.610181   -2.234308
    137          1           0       -7.301281    6.401515   -1.216742
    138          1           0       -8.272337    2.894563   -2.485226
    139          1           0       -6.557539    2.792810   -2.069470
    140          1           0       -7.216952    4.158448   -2.974389
 ---------------------------------------------------------------------

 SCF Done:  E(RZINDO/S) =  -474.360675726     A.U. after   20 cycles

 Excitation energies and oscillator strengths:

 Excited State   1:      Singlet-A      1.2284 eV 1009.32 nm  f=0.5107  <S**2>=0.000
     175 ->178        -0.16301
     176 ->177         0.67093
 This state for optimization and/or second-order correction.
 Total Energy, E(CIS/TDA) =  -474.315532925
 Copying the excited state density for this state as the 1-particle RhoCI density.

 Excited State   2:      Singlet-A      1.8850 eV  657.75 nm  f=0.0047  <S**2>=0.000
     175 ->177         0.49549
     176 ->178         0.47538

 Excited State   3:      Singlet-A      2.8976 eV  427.89 nm  f=0.3780  <S**2>=0.000
     168 ->177        -0.19089
     168 ->179        -0.28039
     168 ->180         0.18741
     168 ->183        -0.10895
     168 ->185         0.18360
     170 ->177         0.18793
     170 ->179         0.12838
     171 ->177         0.10035
     175 ->177        -0.26734
     176 ->178         0.30995

 Excited State   4:      Singlet-A      2.9259 eV  423.74 nm  f=0.4097  <S**2>=0.000
     168 ->177         0.15766
     168 ->179         0.21528
     168 ->180        -0.14201
     168 ->185        -0.13187
     171 ->179        -0.10623
     174 ->177        -0.11082
     175 ->177        -0.27063
     176 ->178         0.28487
     176 ->179         0.28903
     176 ->180         0.18031

 Excited State   5:      Singlet-A      2.9524 eV  419.95 nm  f=0.3108  <S**2>=0.000
     168 ->177        -0.11362
     168 ->179        -0.15054
     175 ->177         0.18325
     176 ->178        -0.23497
     176 ->179         0.46657
     176 ->180         0.19879
     176 ->181        -0.13643

 The electronic state is 1-A.
 Alpha  occ. eigenvalues --   -1.84601  -1.82303  -1.80440  -1.75392  -1.71898
 Alpha  occ. eigenvalues --   -1.69580  -1.66716  -1.61016  -1.60111  -1.57140
 Alpha  occ. eigenvalues --   -1.56316  -1.51666  -1.49302  -1.48909  -1.47293
 Alpha  occ. eigenvalues --   -1.44928  -1.43709  -1.40019  -1.39011  -1.38509
 Alpha  occ. eigenvalues --   -1.35814  -1.33205  -1.31999  -1.30746  -1.28979
 Alpha  occ. eigenvalues --   -1.27487  -1.26984  -1.23642  -1.22776  -1.17972
 Alpha  occ. eigenvalues --   -1.17514  -1.16284  -1.14871  -1.13988  -1.13788
 Alpha  occ. eigenvalues --   -1.12958  -1.10511  -1.09178  -1.05747  -1.03513
 Alpha  occ. eigenvalues --   -1.02725  -1.02047  -0.99933  -0.98095  -0.96482
 Alpha  occ. eigenvalues --   -0.95724  -0.95031  -0.93786  -0.93444  -0.93303
 Alpha  occ. eigenvalues --   -0.90448  -0.89698  -0.89201  -0.88526  -0.86542
 Alpha  occ. eigenvalues --   -0.86023  -0.83835  -0.83790  -0.81859  -0.80216
 Alpha  occ. eigenvalues --   -0.79119  -0.78671  -0.77376  -0.76674  -0.76445
 Alpha  occ. eigenvalues --   -0.75730  -0.75303  -0.74580  -0.73555  -0.73338
 Alpha  occ. eigenvalues --   -0.73066  -0.72155  -0.71736  -0.71529  -0.71230
 Alpha  occ. eigenvalues --   -0.70337  -0.69420  -0.69026  -0.68939  -0.68288
 Alpha  occ. eigenvalues --   -0.67624  -0.67233  -0.65938  -0.65883  -0.65470
 Alpha  occ. eigenvalues --   -0.65221  -0.64675  -0.63972  -0.63624  -0.63472
 Alpha  occ. eigenvalues --   -0.63267  -0.62881  -0.62375  -0.61567  -0.61511
 Alpha  occ. eigenvalues --   -0.61168  -0.60744  -0.60659  -0.60464  -0.60072
 Alpha  occ. eigenvalues --   -0.59388  -0.59286  -0.59004  -0.58775  -0.58291
 Alpha  occ. eigenvalues --   -0.57507  -0.57200  -0.57018  -0.56752  -0.56512
 Alpha  occ. eigenvalues --   -0.56383  -0.55556  -0.55094  -0.54945  -0.54757
 Alpha  occ. eigenvalues --   -0.54593  -0.54456  -0.54035  -0.53999  -0.53520
 Alpha  occ. eigenvalues --   -0.52773  -0.52582  -0.51950  -0.51720  -0.51403
 Alpha  occ. eigenvalues --   -0.51191  -0.50965  -0.50744  -0.50417  -0.50066
 Alpha  occ. eigenvalues --   -0.49790  -0.49675  -0.49492  -0.48998  -0.48606
 Alpha  occ. eigenvalues --   -0.48243  -0.48131  -0.48080  -0.47750  -0.47676
 Alpha  occ. eigenvalues --   -0.47638  -0.47571  -0.47292  -0.47169  -0.46664
 Alpha  occ. eigenvalues --   -0.46654  -0.46362  -0.45948  -0.45467  -0.45275
 Alpha  occ. eigenvalues --   -0.45076  -0.45064  -0.44582  -0.44350  -0.44021
 Alpha  occ. eigenvalues --   -0.43655  -0.42821  -0.42377  -0.42282  -0.42266
 Alpha  occ. eigenvalues --   -0.41960  -0.41815  -0.40933  -0.39296  -0.39023
 Alpha  occ. eigenvalues --   -0.38471  -0.37155  -0.35751  -0.35484  -0.34114
 Alpha  occ. eigenvalues --   -0.33705  -0.33268  -0.32261  -0.31618  -0.27189
 Alpha  occ. eigenvalues --   -0.21620
 Alpha virt. eigenvalues --   -0.08375  -0.02626  -0.00586   0.01245   0.01540
 Alpha virt. eigenvalues --    0.02246   0.02768   0.03556   0.04391   0.05309
 Alpha virt. eigenvalues --    0.05688   0.05935   0.07272   0.07819   0.07927

 Mulliken charges:
               1
     1  Mg   0.434499
     2  C   -0.033629
     3  C   -0.062081
     4  C   -0.118040
     5  C   -0.086764
     6  N   -0.274966
     7  C    0.096921
     8  C    0.018384
     9  C    0.013658
    10  C    0.171800
    11  C   -0.051445
    12  C   -0.026499
    13  C   -0.000851
    14  C    0.485938
    15  O   -0.485944
    16  O   -0.285452
    17  N   -0.354639
    18  C    0.134402
    19  C    0.047006
    20  C   -0.042608
    21  C    0.169228
    22  C   -0.035358
    23  C    0.329040
    24  O   -0.523709
    25  C   -0.026464
    26  N   -0.258456
    27  C    0.174195
    28  C    0.023462
    29  C    0.008765
    30  C    0.095109
    31  C   -0.056214
    32  C   -0.033566
    33  C   -0.060449
    34  N   -0.337546
    35  C    0.079190
    36  C    0.007290
    37  C   -0.058091
    38  C    0.106496
    39  C   -0.042537
    40  C    0.321631
    41  O   -0.536342
    42  C    0.050332
    43  C    0.484171
    44  O   -0.499055
    45  O   -0.279195
    46  C    0.069143
    47  C    0.098912
    48  C   -0.089248
    49  C    0.015604
    50  C   -0.039063
    51  C   -0.016853
    52  C   -0.024707
    53  C   -0.039034
    54  C   -0.022912
    55  C   -0.060275
    56  C   -0.043893
    57  C   -0.034918
    58  C   -0.033175
    59  C   -0.016930
    60  C   -0.060405
    61  C   -0.041807
    62  C   -0.039330
    63  C   -0.033700
    64  C   -0.014522
    65  C   -0.065892
    66  C   -0.062286
    67  H    0.025943
    68  H    0.026624
    69  H    0.036410
    70  H    0.032157
    71  H    0.034993
    72  H    0.023262
    73  H    0.011733
    74  H    0.032424
    75  H    0.015643
    76  H    0.029146
    77  H    0.029184
    78  H    0.044634
    79  H    0.040664
    80  H    0.045342
    81  H    0.032192
    82  H    0.031163
    83  H    0.042295
    84  H    0.040329
    85  H    0.029812
    86  H    0.025137
    87  H    0.016496
    88  H    0.022380
    89  H    0.018883
    90  H    0.025055
    91  H    0.009228
    92  H    0.029730
    93  H    0.020350
    94  H    0.017859
    95  H    0.032572
    96  H    0.017987
    97  H    0.024540
    98  H    0.065219
    99  H    0.041345
   100  H    0.057403
   101  H    0.027107
   102  H    0.029082
   103  H    0.044918
   104  H    0.021704
   105  H    0.030918
   106  H    0.028625
   107  H    0.028287
   108  H    0.019258
   109  H    0.016125
   110  H    0.016122
   111  H    0.019229
   112  H    0.021422
   113  H    0.024123
   114  H    0.020217
   115  H    0.022168
   116  H    0.015437
   117  H    0.017421
   118  H    0.019119
   119  H    0.023126
   120  H    0.017504
   121  H    0.023264
   122  H    0.014040
   123  H    0.015220
   124  H    0.022579
   125  H    0.016944
   126  H    0.009131
   127  H    0.020301
   128  H    0.019304
   129  H    0.017769
   130  H    0.026778
   131  H    0.010320
   132  H    0.034336
   133  H    0.015118
   134  H    0.026224
   135  H    0.018065
   136  H    0.028361
   137  H    0.016622
   138  H    0.024745
   139  H    0.015417
   140  H    0.009087
 Sum of Mulliken charges =   0.00000

 Dipole moment (field-independent basis, Debye):
    X=              0.1199    Y=              3.3530    Z=              1.0462  Tot=              3.5145
 N-N= 4.411503664655D+03 E-N= 0.000000000000D+00  KE=-9.497220944237D+03
 Leave Link  601 at Thu May  5 09:35:40 2022, MaxMem=  6710886400 cpu:               2.5 elap:               0.1
 (Enter /sw/apps/gaussian-16.0/g16/l9999.exe)
 1\1\GINC-BP1-COMPUTE135\SP\RZINDO CIS\STO-3G\C55H74Mg1N4O6\OF15641\05-
 May-2022\0\\#p ZINDO=(nstates=5)\\step_751_chromophore_23 ZINDO\\0,1\M
 g,0,-11.239,40.515,43.159\C,0,-9.46,37.772,41.954\C,0,-9.142,42.649,41
 .329\C,0,-13.078,43.122,44.099\C,0,-13.646,38.25,44.478\N,0,-9.701,40.
 237,41.519\C,0,-8.99,39.023,41.455\C,0,-7.834,39.209,40.542\C,0,-7.562
 ,40.687,40.529\C,0,-8.865,41.261,41.194\C,0,-6.212,41.004,41.233\C,0,-
 8.172,38.607,39.123\C,0,-7.249,37.552,38.539\C,0,-6.399,37.758,37.32\O

 Normal termination of Gaussian 16 at Thu May  5 09:35:40 2022.
