 Gaussian 16, Revision A.03,
 Gaussian 16:  ES64L-G16RevA.03 25-Dec-2016

 ------------------------------
 #p blyp/Def2SVP td=(nstates=5)
 ------------------------------

 --------------------------------------------------
 step_1751_chromophore_6 TDDFT with blyp functional
 --------------------------------------------------
 Symbolic Z-matrix:
 Charge =  0 Multiplicity = 1

                         Standard orientation:
 ---------------------------------------------------------------------
 Center     Atomic      Atomic             Coordinates (Angstroms)
 Number     Number       Type             X           Y           Z
 ---------------------------------------------------------------------
      1         12           0        5.672002    0.947845    0.147872
      2          6           0        4.536857   -2.351472   -0.086800
      3          6           0        2.462939    1.916692   -0.000395
      4          6           0        6.783463    4.079302    0.101729
      5          6           0        9.012892   -0.242171   -0.303476
      6          7           0        3.728237   -0.068679   -0.225764
      7          6           0        3.527002   -1.424659   -0.072980
      8          6           0        2.041877   -1.727743    0.172948
      9          6           0        1.320049   -0.366514   -0.023416
     10          6           0        2.565414    0.547136   -0.085386
     11          6           0        0.313835   -0.289576   -1.245519
     12          6           0        1.609192   -2.423612    1.590765
     13          6           0        0.252597   -3.142079    1.792126
     14          6           0       -0.630916   -3.145546    0.555197
     15          8           0       -0.411876   -3.890657   -0.455178
     16          8           0       -1.721784   -2.261285    0.555598
     17          7           0        4.735723    2.775339    0.152455
     18          6           0        3.395688    2.990481    0.131891
     19          6           0        3.091544    4.377020    0.138883
     20          6           0        4.393274    5.060095    0.185052
     21          6           0        5.390401    3.954423    0.136656
     22          6           0        1.697555    4.885690    0.018958
     23          6           0        4.671840    6.530503    0.212898
     24          8           0        5.827590    7.027215    0.262615
     25          6           0        3.540847    7.647291    0.320979
     26          7           0        7.587636    1.783996   -0.282151
     27          6           0        7.781747    3.091368   -0.111562
     28          6           0        9.247175    3.494418   -0.257564
     29          6           0        9.976579    2.134696   -0.201883
     30          6           0        8.819537    1.150299   -0.280368
     31          6           0        9.289562    4.233343   -1.601966
     32          6           0       10.774805    2.004313    1.112029
     33          6           0       12.244564    1.764092    0.848881
     34          7           0        6.652088   -0.889109   -0.232690
     35          6           0        7.982666   -1.194135   -0.318246
     36          6           0        8.086316   -2.655050   -0.354552
     37          6           0        6.760206   -3.135031   -0.289623
     38          6           0        5.932984   -2.043518   -0.163138
     39          6           0        9.366365   -3.449446   -0.327092
     40          6           0        5.981507   -4.390102   -0.194483
     41          8           0        6.208976   -5.569886   -0.274598
     42          6           0        4.523359   -3.901532    0.006101
     43          6           0        3.619165   -4.586023   -0.967791
     44          8           0        3.631366   -4.432758   -2.141700
     45          8           0        2.768295   -5.502835   -0.280901
     46          6           0        1.932516   -6.396426   -1.156785
     47          6           0       -2.746024   -2.304750   -0.427534
     48          6           0       -3.886640   -2.838054    0.359883
     49          6           0       -5.029022   -3.233595   -0.147834
     50          6           0       -5.389188   -3.334232   -1.623692
     51          6           0       -6.134099   -3.728482    0.755178
     52          6           0       -6.760302   -2.717747    1.690262
     53          6           0       -8.326799   -2.634898    1.503222
     54          6           0       -8.714862   -1.171653    1.707425
     55          6           0       -8.673219   -0.861295    3.180491
     56          6           0      -10.145444   -0.827489    1.133217
     57          6           0      -10.229866    0.541610    0.368469
     58          6           0      -10.898827    1.627665    1.170235
     59          6           0      -12.142537    2.291591    0.449604
     60          6           0      -12.388694    3.744177    1.063013
     61          6           0      -13.473581    1.510280    0.451719
     62          6           0      -13.910557    1.100182   -0.966310
     63          6           0      -15.435271    1.040865   -1.233643
     64          6           0      -15.942324    2.150778   -2.163456
     65          6           0      -17.476639    2.065988   -2.286166
     66          6           0      -15.602517    3.515875   -1.703264
     67          1           0        1.425071    2.255699   -0.004590
     68          1           0        7.110201    5.114881    0.211656
     69          1           0       10.053552   -0.569923   -0.278126
     70          1           0        1.622067   -2.450188   -0.526316
     71          1           0        0.790128   -0.137036    0.900895
     72          1           0        0.097158   -1.268682   -1.672481
     73          1           0        0.594146    0.515863   -1.923973
     74          1           0       -0.664079    0.092430   -0.949092
     75          1           0        1.551581   -1.664177    2.370843
     76          1           0        2.450814   -3.074721    1.826517
     77          1           0       -0.304132   -2.707313    2.622718
     78          1           0        0.540049   -4.172043    2.003778
     79          1           0        1.566720    5.363603    0.990524
     80          1           0        0.838577    4.244632   -0.178998
     81          1           0        1.547737    5.611733   -0.779491
     82          1           0        2.917425    7.573985   -0.569892
     83          1           0        4.072727    8.597427    0.371483
     84          1           0        2.820225    7.370917    1.090939
     85          1           0        9.613435    4.135309    0.545475
     86          1           0       10.656988    2.007843   -1.043669
     87          1           0        9.761274    3.657437   -2.398246
     88          1           0        9.816705    5.174652   -1.446213
     89          1           0        8.270758    4.368404   -1.967204
     90          1           0       10.431283    1.166112    1.719399
     91          1           0       10.603256    2.879329    1.739437
     92          1           0       12.475771    0.895068    0.233764
     93          1           0       12.619323    1.595420    1.858527
     94          1           0       12.724929    2.633003    0.398085
     95          1           0        9.250411   -4.443096   -0.758759
     96          1           0        9.695433   -3.402091    0.710643
     97          1           0       10.122457   -3.003949   -0.973747
     98          1           0        4.241272   -4.151949    1.029073
     99          1           0        0.987045   -6.629679   -0.667163
    100          1           0        2.419836   -7.359086   -1.316087
    101          1           0        1.678305   -5.972210   -2.128505
    102          1           0       -2.530519   -2.864060   -1.338276
    103          1           0       -2.998379   -1.330237   -0.845658
    104          1           0       -3.794887   -2.810762    1.445946
    105          1           0       -4.553860   -2.986679   -2.230729
    106          1           0       -6.206538   -2.635301   -1.804327
    107          1           0       -5.714380   -4.325005   -1.939131
    108          1           0       -5.651588   -4.512826    1.338136
    109          1           0       -6.915443   -4.238601    0.191471
    110          1           0       -6.289900   -1.743811    1.550208
    111          1           0       -6.481570   -3.051866    2.688855
    112          1           0       -8.838713   -3.361281    2.135392
    113          1           0       -8.520942   -2.881081    0.459960
    114          1           0       -7.963149   -0.526643    1.253998
    115          1           0       -9.657829   -0.512155    3.489803
    116          1           0       -7.969417   -0.059284    3.403583
    117          1           0       -8.322483   -1.724041    3.748007
    118          1           0      -10.918690   -0.948995    1.891497
    119          1           0      -10.433318   -1.580731    0.399742
    120          1           0      -10.757057    0.455957   -0.582280
    121          1           0       -9.218665    0.911509    0.201539
    122          1           0      -10.126354    2.362896    1.392471
    123          1           0      -11.198853    1.175132    2.115773
    124          1           0      -11.872452    2.347831   -0.604806
    125          1           0      -11.709717    4.492713    0.655954
    126          1           0      -12.057873    3.726603    2.101120
    127          1           0      -13.377338    4.166411    0.886133
    128          1           0      -14.220599    1.991864    1.084076
    129          1           0      -13.361961    0.509144    0.867033
    130          1           0      -13.480969    0.111369   -1.125539
    131          1           0      -13.355018    1.720048   -1.669620
    132          1           0      -15.902644    1.074358   -0.249528
    133          1           0      -15.853780    0.115195   -1.628173
    134          1           0      -15.404679    1.992927   -3.098105
    135          1           0      -17.978735    3.030294   -2.361148
    136          1           0      -17.853025    1.633994   -1.358495
    137          1           0      -17.698647    1.459380   -3.163590
    138          1           0      -14.517932    3.573086   -1.789817
    139          1           0      -15.908932    3.555521   -0.658391
    140          1           0      -16.125943    4.296179   -2.255700
 ---------------------------------------------------------------------

 SCF Done:  E(RB-LYP) =  -3007.38874180     A.U. after   20 cycles

 Excitation energies and oscillator strengths:

 Excited State   1:      Singlet-A      1.7846 eV  694.75 nm  f=0.0349  <S**2>=0.000
     244 -> 247        0.64851
     245 -> 247       -0.13948
     246 -> 247       -0.23713
 This state for optimization and/or second-order correction.
 Total Energy, E(TD-HF/TD-DFT) =  -3007.32315898
 Copying the excited state density for this state as the 1-particle RhoCI density.

 Excited State   2:      Singlet-A      1.8049 eV  686.92 nm  f=0.2802  <S**2>=0.000
     244 -> 247        0.24221
     245 -> 248       -0.15827
     246 -> 247        0.64975
     246 <- 247       -0.14378

 Excited State   3:      Singlet-A      1.9501 eV  635.79 nm  f=0.0616  <S**2>=0.000
     243 -> 247        0.43340
     244 -> 247        0.12015
     245 -> 247        0.51628
     246 -> 248        0.13034

 Excited State   4:      Singlet-A      2.0480 eV  605.41 nm  f=0.0397  <S**2>=0.000
     243 -> 247        0.55557
     245 -> 247       -0.39144
     246 -> 248       -0.13423

 Excited State   5:      Singlet-A      2.4010 eV  516.38 nm  f=0.0000  <S**2>=0.000
     241 -> 247        0.70676

 The electronic state is 1-A.
 Alpha  occ. eigenvalues --  -46.27470 -18.83036 -18.80253 -18.77474 -18.76338
 Alpha  occ. eigenvalues --  -18.75952 -18.75195 -14.03270 -14.03256 -14.01096
 Alpha  occ. eigenvalues --  -14.00581 -10.05673 -10.02862  -9.99969  -9.99711
 Alpha  occ. eigenvalues --   -9.98379  -9.96485  -9.96482  -9.96414  -9.96125
 Alpha  occ. eigenvalues --   -9.95979  -9.95893  -9.95560  -9.95232  -9.95130
 Alpha  occ. eigenvalues --   -9.94549  -9.94286  -9.94184  -9.94088  -9.94022
 Alpha  occ. eigenvalues --   -9.93635  -9.93604  -9.93564  -9.93412  -9.93269
 Alpha  occ. eigenvalues --   -9.93260  -9.93258  -9.92893  -9.92651  -9.92537
 Alpha  occ. eigenvalues --   -9.92395  -9.92364  -9.92289  -9.92231  -9.92158
 Alpha  occ. eigenvalues --   -9.92012  -9.92004  -9.91859  -9.91842  -9.91733
 Alpha  occ. eigenvalues --   -9.91681  -9.91675  -9.91391  -9.91311  -9.91304
 Alpha  occ. eigenvalues --   -9.91253  -9.91174  -9.91130  -9.91064  -9.90999
 Alpha  occ. eigenvalues --   -9.90936  -9.90906  -9.90728  -9.90605  -9.90566
 Alpha  occ. eigenvalues --   -9.90184  -2.92091  -1.72496  -1.72002  -1.71786
 Alpha  occ. eigenvalues --   -0.97695  -0.96107  -0.92339  -0.89414  -0.88945
 Alpha  occ. eigenvalues --   -0.88481  -0.87087  -0.86602  -0.85965  -0.85329
 Alpha  occ. eigenvalues --   -0.75208  -0.74402  -0.73354  -0.72937  -0.72911
 Alpha  occ. eigenvalues --   -0.72534  -0.71907  -0.71308  -0.70897  -0.70376
 Alpha  occ. eigenvalues --   -0.69541  -0.69283  -0.68462  -0.67848  -0.67357
 Alpha  occ. eigenvalues --   -0.66887  -0.65516  -0.65234  -0.64310  -0.64177
 Alpha  occ. eigenvalues --   -0.63701  -0.62503  -0.62249  -0.61851  -0.60852
 Alpha  occ. eigenvalues --   -0.60184  -0.60158  -0.59702  -0.59459  -0.59412
 Alpha  occ. eigenvalues --   -0.58818  -0.57601  -0.56719  -0.56140  -0.54149
 Alpha  occ. eigenvalues --   -0.53973  -0.53731  -0.53128  -0.52789  -0.51751
 Alpha  occ. eigenvalues --   -0.51626  -0.51064  -0.50870  -0.50757  -0.50223
 Alpha  occ. eigenvalues --   -0.50046  -0.49944  -0.48490  -0.47381  -0.46944
 Alpha  occ. eigenvalues --   -0.46596  -0.46247  -0.45950  -0.45127  -0.44606
 Alpha  occ. eigenvalues --   -0.44086  -0.43436  -0.43137  -0.42754  -0.42379
 Alpha  occ. eigenvalues --   -0.41900  -0.41753  -0.41391  -0.41334  -0.40711
 Alpha  occ. eigenvalues --   -0.40646  -0.40463  -0.40337  -0.40114  -0.39930
 Alpha  occ. eigenvalues --   -0.39753  -0.39714  -0.39603  -0.39516  -0.39378
 Alpha  occ. eigenvalues --   -0.38779  -0.38675  -0.38554  -0.38334  -0.38186
 Alpha  occ. eigenvalues --   -0.37867  -0.37856  -0.37725  -0.37564  -0.37309
 Alpha  occ. eigenvalues --   -0.37084  -0.37022  -0.36749  -0.36550  -0.36460
 Alpha  occ. eigenvalues --   -0.36278  -0.36173  -0.35867  -0.35590  -0.35578
 Alpha  occ. eigenvalues --   -0.35415  -0.35312  -0.34990  -0.34982  -0.34674
 Alpha  occ. eigenvalues --   -0.34626  -0.34208  -0.34185  -0.34069  -0.33957
 Alpha  occ. eigenvalues --   -0.33709  -0.33634  -0.33332  -0.33186  -0.33095
 Alpha  occ. eigenvalues --   -0.33063  -0.32893  -0.32819  -0.32724  -0.32598
 Alpha  occ. eigenvalues --   -0.32578  -0.32230  -0.32059  -0.31697  -0.31503
 Alpha  occ. eigenvalues --   -0.31348  -0.31128  -0.30985  -0.30807  -0.30717
 Alpha  occ. eigenvalues --   -0.30424  -0.30368  -0.30140  -0.29618  -0.29604
 Alpha  occ. eigenvalues --   -0.29545  -0.29404  -0.29140  -0.28959  -0.28663
 Alpha  occ. eigenvalues --   -0.28629  -0.28567  -0.28280  -0.27957  -0.27624
 Alpha  occ. eigenvalues --   -0.27615  -0.27271  -0.27151  -0.26896  -0.26786
 Alpha  occ. eigenvalues --   -0.26462  -0.26359  -0.26147  -0.25987  -0.25563
 Alpha  occ. eigenvalues --   -0.25070  -0.24903  -0.24139  -0.24043  -0.23580
 Alpha  occ. eigenvalues --   -0.23437  -0.22233  -0.21945  -0.21406  -0.20694
 Alpha  occ. eigenvalues --   -0.20519  -0.20272  -0.18991  -0.18179  -0.17148
 Alpha  occ. eigenvalues --   -0.15925
 Alpha virt. eigenvalues --   -0.11696  -0.06820  -0.05718  -0.05168  -0.04587
 Alpha virt. eigenvalues --   -0.03265  -0.01689  -0.01479  -0.01324   0.00400
 Alpha virt. eigenvalues --    0.01200   0.02113   0.02353   0.02466   0.02926

 Mulliken charges:
               1
     1  Mg   0.690244
     2  C    0.004581
     3  C   -0.046361
     4  C   -0.046702
     5  C   -0.084770
     6  N   -0.184600
     7  C   -0.031357
     8  C   -0.015708
     9  C    0.034586
    10  C   -0.017287
    11  C    0.125383
    12  C    0.040733
    13  C    0.222027
    14  C    0.074706
    15  O   -0.236315
    16  O   -0.274467
    17  N   -0.275307
    18  C    0.124352
    19  C   -0.106517
    20  C    0.065099
    21  C    0.089522
    22  C    0.138644
    23  C   -0.090845
    24  O   -0.201918
    25  C    0.122689
    26  N   -0.201397
    27  C    0.021446
    28  C   -0.022679
    29  C    0.065019
    30  C    0.009726
    31  C    0.142637
    32  C    0.096305
    33  C    0.059323
    34  N   -0.249780
    35  C    0.133848
    36  C   -0.201610
    37  C    0.048655
    38  C    0.068205
    39  C    0.175909
    40  C   -0.025750
    41  O   -0.098071
    42  C    0.069975
    43  C    0.117327
    44  O   -0.128654
    45  O   -0.323181
    46  C    0.214331
    47  C    0.320194
    48  C   -0.115554
    49  C   -0.146879
    50  C    0.152564
    51  C    0.139282
    52  C    0.069884
    53  C    0.104296
    54  C   -0.096103
    55  C    0.128793
    56  C    0.104806
    57  C    0.086047
    58  C    0.090074
    59  C   -0.072627
    60  C    0.092554
    61  C    0.116870
    62  C    0.040526
    63  C    0.109410
    64  C   -0.104010
    65  C    0.116723
    66  C    0.112716
    67  H   -0.090794
    68  H   -0.048685
    69  H   -0.064266
    70  H    0.010619
    71  H   -0.025493
    72  H    0.022398
    73  H   -0.010880
    74  H   -0.026706
    75  H   -0.022709
    76  H   -0.018335
    77  H   -0.006176
    78  H    0.011023
    79  H    0.012449
    80  H   -0.005053
    81  H    0.004969
    82  H   -0.010296
    83  H    0.011179
    84  H   -0.005984
    85  H   -0.018551
    86  H   -0.027004
    87  H   -0.019900
    88  H    0.001617
    89  H    0.006334
    90  H   -0.025762
    91  H   -0.024553
    92  H   -0.001862
    93  H   -0.011750
    94  H   -0.005973
    95  H    0.010260
    96  H    0.010010
    97  H   -0.014012
    98  H    0.004689
    99  H    0.008863
   100  H    0.008555
   101  H    0.021610
   102  H    0.009624
   103  H   -0.000899
   104  H   -0.040383
   105  H   -0.031193
   106  H   -0.005662
   107  H    0.010848
   108  H   -0.027174
   109  H   -0.045119
   110  H   -0.026365
   111  H   -0.030367
   112  H   -0.018779
   113  H   -0.032735
   114  H   -0.036155
   115  H   -0.017663
   116  H   -0.028156
   117  H   -0.018988
   118  H   -0.031383
   119  H   -0.053783
   120  H   -0.027966
   121  H   -0.035884
   122  H   -0.040982
   123  H   -0.031864
   124  H   -0.034280
   125  H   -0.030706
   126  H   -0.014907
   127  H   -0.005345
   128  H   -0.024043
   129  H   -0.041622
   130  H   -0.032707
   131  H   -0.027015
   132  H   -0.042635
   133  H   -0.038844
   134  H   -0.037604
   135  H   -0.024906
   136  H   -0.021862
   137  H   -0.010582
   138  H   -0.018079
   139  H   -0.023673
   140  H   -0.011554
 Sum of Mulliken charges =  -0.00000

 Dipole moment (field-independent basis, Debye):
    X=             -3.7277    Y=              1.9320    Z=              3.0909  Tot=              5.2136
 Quadrupole moment (field-independent basis, Debye-Ang):
   XX=           -378.8890   YY=           -448.4316   ZZ=           -405.5810
   XY=             17.9300   XZ=             16.3241   YZ=            -12.1468

 Normal termination of Gaussian 16 at Fri Apr 29 00:51:37 2022.
