 Gaussian 16, Revision A.03,
 Gaussian 16:  ES64L-G16RevA.03 25-Dec-2016

 -----------------------------------
 #p cam-b3lyp/Def2SVP td=(nstates=5)
 -----------------------------------

 -------------------------------------------------------
 step_1751_chromophore_6 TDDFT with cam-b3lyp functional
 -------------------------------------------------------
 Symbolic Z-matrix:
 Charge =  0 Multiplicity = 1

                         Standard orientation:
 ---------------------------------------------------------------------
 Center     Atomic      Atomic             Coordinates (Angstroms)
 Number     Number       Type             X           Y           Z
 ---------------------------------------------------------------------
      1         12           0        5.672002    0.947845    0.147872
      2          6           0        4.536857   -2.351472   -0.086800
      3          6           0        2.462939    1.916692   -0.000395
      4          6           0        6.783463    4.079302    0.101729
      5          6           0        9.012892   -0.242171   -0.303476
      6          7           0        3.728237   -0.068679   -0.225764
      7          6           0        3.527002   -1.424659   -0.072980
      8          6           0        2.041877   -1.727743    0.172948
      9          6           0        1.320049   -0.366514   -0.023416
     10          6           0        2.565414    0.547136   -0.085386
     11          6           0        0.313835   -0.289576   -1.245519
     12          6           0        1.609192   -2.423612    1.590765
     13          6           0        0.252597   -3.142079    1.792126
     14          6           0       -0.630916   -3.145546    0.555197
     15          8           0       -0.411876   -3.890657   -0.455178
     16          8           0       -1.721784   -2.261285    0.555598
     17          7           0        4.735723    2.775339    0.152455
     18          6           0        3.395688    2.990481    0.131891
     19          6           0        3.091544    4.377020    0.138883
     20          6           0        4.393274    5.060095    0.185052
     21          6           0        5.390401    3.954423    0.136656
     22          6           0        1.697555    4.885690    0.018958
     23          6           0        4.671840    6.530503    0.212898
     24          8           0        5.827590    7.027215    0.262615
     25          6           0        3.540847    7.647291    0.320979
     26          7           0        7.587636    1.783996   -0.282151
     27          6           0        7.781747    3.091368   -0.111562
     28          6           0        9.247175    3.494418   -0.257564
     29          6           0        9.976579    2.134696   -0.201883
     30          6           0        8.819537    1.150299   -0.280368
     31          6           0        9.289562    4.233343   -1.601966
     32          6           0       10.774805    2.004313    1.112029
     33          6           0       12.244564    1.764092    0.848881
     34          7           0        6.652088   -0.889109   -0.232690
     35          6           0        7.982666   -1.194135   -0.318246
     36          6           0        8.086316   -2.655050   -0.354552
     37          6           0        6.760206   -3.135031   -0.289623
     38          6           0        5.932984   -2.043518   -0.163138
     39          6           0        9.366365   -3.449446   -0.327092
     40          6           0        5.981507   -4.390102   -0.194483
     41          8           0        6.208976   -5.569886   -0.274598
     42          6           0        4.523359   -3.901532    0.006101
     43          6           0        3.619165   -4.586023   -0.967791
     44          8           0        3.631366   -4.432758   -2.141700
     45          8           0        2.768295   -5.502835   -0.280901
     46          6           0        1.932516   -6.396426   -1.156785
     47          6           0       -2.746024   -2.304750   -0.427534
     48          6           0       -3.886640   -2.838054    0.359883
     49          6           0       -5.029022   -3.233595   -0.147834
     50          6           0       -5.389188   -3.334232   -1.623692
     51          6           0       -6.134099   -3.728482    0.755178
     52          6           0       -6.760302   -2.717747    1.690262
     53          6           0       -8.326799   -2.634898    1.503222
     54          6           0       -8.714862   -1.171653    1.707425
     55          6           0       -8.673219   -0.861295    3.180491
     56          6           0      -10.145444   -0.827489    1.133217
     57          6           0      -10.229866    0.541610    0.368469
     58          6           0      -10.898827    1.627665    1.170235
     59          6           0      -12.142537    2.291591    0.449604
     60          6           0      -12.388694    3.744177    1.063013
     61          6           0      -13.473581    1.510280    0.451719
     62          6           0      -13.910557    1.100182   -0.966310
     63          6           0      -15.435271    1.040865   -1.233643
     64          6           0      -15.942324    2.150778   -2.163456
     65          6           0      -17.476639    2.065988   -2.286166
     66          6           0      -15.602517    3.515875   -1.703264
     67          1           0        1.425071    2.255699   -0.004590
     68          1           0        7.110201    5.114881    0.211656
     69          1           0       10.053552   -0.569923   -0.278126
     70          1           0        1.622067   -2.450188   -0.526316
     71          1           0        0.790128   -0.137036    0.900895
     72          1           0        0.097158   -1.268682   -1.672481
     73          1           0        0.594146    0.515863   -1.923973
     74          1           0       -0.664079    0.092430   -0.949092
     75          1           0        1.551581   -1.664177    2.370843
     76          1           0        2.450814   -3.074721    1.826517
     77          1           0       -0.304132   -2.707313    2.622718
     78          1           0        0.540049   -4.172043    2.003778
     79          1           0        1.566720    5.363603    0.990524
     80          1           0        0.838577    4.244632   -0.178998
     81          1           0        1.547737    5.611733   -0.779491
     82          1           0        2.917425    7.573985   -0.569892
     83          1           0        4.072727    8.597427    0.371483
     84          1           0        2.820225    7.370917    1.090939
     85          1           0        9.613435    4.135309    0.545475
     86          1           0       10.656988    2.007843   -1.043669
     87          1           0        9.761274    3.657437   -2.398246
     88          1           0        9.816705    5.174652   -1.446213
     89          1           0        8.270758    4.368404   -1.967204
     90          1           0       10.431283    1.166112    1.719399
     91          1           0       10.603256    2.879329    1.739437
     92          1           0       12.475771    0.895068    0.233764
     93          1           0       12.619323    1.595420    1.858527
     94          1           0       12.724929    2.633003    0.398085
     95          1           0        9.250411   -4.443096   -0.758759
     96          1           0        9.695433   -3.402091    0.710643
     97          1           0       10.122457   -3.003949   -0.973747
     98          1           0        4.241272   -4.151949    1.029073
     99          1           0        0.987045   -6.629679   -0.667163
    100          1           0        2.419836   -7.359086   -1.316087
    101          1           0        1.678305   -5.972210   -2.128505
    102          1           0       -2.530519   -2.864060   -1.338276
    103          1           0       -2.998379   -1.330237   -0.845658
    104          1           0       -3.794887   -2.810762    1.445946
    105          1           0       -4.553860   -2.986679   -2.230729
    106          1           0       -6.206538   -2.635301   -1.804327
    107          1           0       -5.714380   -4.325005   -1.939131
    108          1           0       -5.651588   -4.512826    1.338136
    109          1           0       -6.915443   -4.238601    0.191471
    110          1           0       -6.289900   -1.743811    1.550208
    111          1           0       -6.481570   -3.051866    2.688855
    112          1           0       -8.838713   -3.361281    2.135392
    113          1           0       -8.520942   -2.881081    0.459960
    114          1           0       -7.963149   -0.526643    1.253998
    115          1           0       -9.657829   -0.512155    3.489803
    116          1           0       -7.969417   -0.059284    3.403583
    117          1           0       -8.322483   -1.724041    3.748007
    118          1           0      -10.918690   -0.948995    1.891497
    119          1           0      -10.433318   -1.580731    0.399742
    120          1           0      -10.757057    0.455957   -0.582280
    121          1           0       -9.218665    0.911509    0.201539
    122          1           0      -10.126354    2.362896    1.392471
    123          1           0      -11.198853    1.175132    2.115773
    124          1           0      -11.872452    2.347831   -0.604806
    125          1           0      -11.709717    4.492713    0.655954
    126          1           0      -12.057873    3.726603    2.101120
    127          1           0      -13.377338    4.166411    0.886133
    128          1           0      -14.220599    1.991864    1.084076
    129          1           0      -13.361961    0.509144    0.867033
    130          1           0      -13.480969    0.111369   -1.125539
    131          1           0      -13.355018    1.720048   -1.669620
    132          1           0      -15.902644    1.074358   -0.249528
    133          1           0      -15.853780    0.115195   -1.628173
    134          1           0      -15.404679    1.992927   -3.098105
    135          1           0      -17.978735    3.030294   -2.361148
    136          1           0      -17.853025    1.633994   -1.358495
    137          1           0      -17.698647    1.459380   -3.163590
    138          1           0      -14.517932    3.573086   -1.789817
    139          1           0      -15.908932    3.555521   -0.658391
    140          1           0      -16.125943    4.296179   -2.255700
 ---------------------------------------------------------------------

 SCF Done:  E(RCAM-B3LYP) =  -3007.18665114     A.U. after   18 cycles

 Excitation energies and oscillator strengths:

 Excited State   1:      Singlet-A      1.7124 eV  724.05 nm  f=0.3964  <S**2>=0.000
     245 -> 248       -0.16508
     246 -> 247        0.68747
     245 <- 248       -0.10034
 This state for optimization and/or second-order correction.
 Total Energy, E(TD-HF/TD-DFT) =  -3007.12372230
 Copying the excited state density for this state as the 1-particle RhoCI density.

 Excited State   2:      Singlet-A      2.1946 eV  564.95 nm  f=0.1556  <S**2>=0.000
     245 -> 247        0.65640
     246 -> 248        0.24032

 Excited State   3:      Singlet-A      3.3407 eV  371.14 nm  f=0.0061  <S**2>=0.000
     241 -> 247        0.17062
     242 -> 247       -0.29090
     243 -> 247        0.17224
     244 -> 247        0.56175

 Excited State   4:      Singlet-A      3.3611 eV  368.88 nm  f=0.0002  <S**2>=0.000
     241 -> 247        0.52748
     241 -> 248       -0.19806
     241 -> 249       -0.25113
     241 -> 251        0.17037
     244 -> 247       -0.25955

 Excited State   5:      Singlet-A      3.4750 eV  356.79 nm  f=0.0138  <S**2>=0.000
     241 -> 247        0.13562
     242 -> 247        0.45717
     243 -> 247       -0.27089
     244 -> 247        0.30479
     246 -> 248       -0.27806

 The electronic state is 1-A.
 Alpha  occ. eigenvalues --  -46.89019 -19.25866 -19.23013 -19.20461 -19.19387
 Alpha  occ. eigenvalues --  -19.18997 -19.18654 -14.42158 -14.42127 -14.39640
 Alpha  occ. eigenvalues --  -14.38811 -10.41195 -10.38228 -10.35560 -10.34849
 Alpha  occ. eigenvalues --  -10.32293 -10.31113 -10.30799 -10.30724 -10.30666
 Alpha  occ. eigenvalues --  -10.30611 -10.30183 -10.29797 -10.29635 -10.29111
 Alpha  occ. eigenvalues --  -10.29092 -10.28359 -10.28260 -10.28184 -10.28166
 Alpha  occ. eigenvalues --  -10.28099 -10.27842 -10.27727 -10.27621 -10.27319
 Alpha  occ. eigenvalues --  -10.27163 -10.27042 -10.26863 -10.26446 -10.26415
 Alpha  occ. eigenvalues --  -10.26322 -10.26289 -10.26196 -10.26182 -10.26131
 Alpha  occ. eigenvalues --  -10.25985 -10.25633 -10.25558 -10.25540 -10.25403
 Alpha  occ. eigenvalues --  -10.25330 -10.25301 -10.25026 -10.25011 -10.24968
 Alpha  occ. eigenvalues --  -10.24944 -10.24890 -10.24840 -10.24812 -10.24665
 Alpha  occ. eigenvalues --  -10.24593 -10.24591 -10.24553 -10.24203 -10.24137
 Alpha  occ. eigenvalues --  -10.23765  -3.17543  -1.92424  -1.92020  -1.91829
 Alpha  occ. eigenvalues --   -1.16015  -1.14631  -1.10640  -1.07985  -1.06778
 Alpha  occ. eigenvalues --   -1.06196  -1.04890  -1.04307  -1.03661  -1.02702
 Alpha  occ. eigenvalues --   -0.92204  -0.91291  -0.90195  -0.89672  -0.89595
 Alpha  occ. eigenvalues --   -0.89278  -0.88767  -0.87929  -0.87487  -0.87136
 Alpha  occ. eigenvalues --   -0.85923  -0.85570  -0.84738  -0.83974  -0.83463
 Alpha  occ. eigenvalues --   -0.83002  -0.81563  -0.81091  -0.80208  -0.80098
 Alpha  occ. eigenvalues --   -0.79631  -0.78504  -0.77824  -0.77318  -0.76179
 Alpha  occ. eigenvalues --   -0.75547  -0.75471  -0.74948  -0.74743  -0.74693
 Alpha  occ. eigenvalues --   -0.73908  -0.72545  -0.71617  -0.70972  -0.68730
 Alpha  occ. eigenvalues --   -0.68586  -0.68337  -0.67601  -0.67202  -0.65893
 Alpha  occ. eigenvalues --   -0.65693  -0.65285  -0.64923  -0.64586  -0.64138
 Alpha  occ. eigenvalues --   -0.64121  -0.63944  -0.62377  -0.61089  -0.60678
 Alpha  occ. eigenvalues --   -0.60125  -0.59796  -0.59293  -0.58552  -0.57887
 Alpha  occ. eigenvalues --   -0.57589  -0.56737  -0.56444  -0.56034  -0.55224
 Alpha  occ. eigenvalues --   -0.55016  -0.54601  -0.54465  -0.54123  -0.53543
 Alpha  occ. eigenvalues --   -0.53363  -0.53120  -0.52962  -0.52821  -0.52551
 Alpha  occ. eigenvalues --   -0.52527  -0.52470  -0.52234  -0.52182  -0.51996
 Alpha  occ. eigenvalues --   -0.51765  -0.51514  -0.50910  -0.50760  -0.50559
 Alpha  occ. eigenvalues --   -0.50481  -0.50165  -0.50114  -0.49859  -0.49634
 Alpha  occ. eigenvalues --   -0.49573  -0.49233  -0.49169  -0.49114  -0.48923
 Alpha  occ. eigenvalues --   -0.48525  -0.48433  -0.48202  -0.48077  -0.47806
 Alpha  occ. eigenvalues --   -0.47608  -0.47298  -0.47026  -0.46785  -0.46466
 Alpha  occ. eigenvalues --   -0.46428  -0.46249  -0.45953  -0.45889  -0.45755
 Alpha  occ. eigenvalues --   -0.45589  -0.45449  -0.45120  -0.45000  -0.44871
 Alpha  occ. eigenvalues --   -0.44698  -0.44670  -0.44513  -0.44253  -0.44216
 Alpha  occ. eigenvalues --   -0.44138  -0.44111  -0.43827  -0.43196  -0.43030
 Alpha  occ. eigenvalues --   -0.42897  -0.42588  -0.42351  -0.42219  -0.42159
 Alpha  occ. eigenvalues --   -0.41946  -0.41603  -0.41311  -0.41189  -0.41086
 Alpha  occ. eigenvalues --   -0.40777  -0.40753  -0.40530  -0.40525  -0.39989
 Alpha  occ. eigenvalues --   -0.39673  -0.39642  -0.39284  -0.38840  -0.38524
 Alpha  occ. eigenvalues --   -0.38493  -0.38072  -0.37960  -0.37744  -0.37583
 Alpha  occ. eigenvalues --   -0.37575  -0.37344  -0.36918  -0.36747  -0.36217
 Alpha  occ. eigenvalues --   -0.36015  -0.35595  -0.35145  -0.34544  -0.34361
 Alpha  occ. eigenvalues --   -0.34281  -0.33923  -0.33202  -0.31171  -0.30730
 Alpha  occ. eigenvalues --   -0.30678  -0.30196  -0.30173  -0.29343  -0.23892
 Alpha  occ. eigenvalues --   -0.21312
 Alpha virt. eigenvalues --   -0.08920  -0.01394   0.00567   0.01651   0.02448
 Alpha virt. eigenvalues --    0.02572   0.05502   0.05798   0.06583   0.07240
 Alpha virt. eigenvalues --    0.08305   0.08412   0.08592   0.09095   0.09177

 Mulliken charges:
               1
     1  Mg   0.821430
     2  C   -0.021052
     3  C   -0.063124
     4  C   -0.066305
     5  C   -0.085082
     6  N   -0.254657
     7  C    0.004886
     8  C   -0.064978
     9  C   -0.014534
    10  C    0.002369
    11  C    0.068167
    12  C    0.001871
    13  C    0.148147
    14  C    0.153717
    15  O   -0.276281
    16  O   -0.341160
    17  N   -0.368238
    18  C    0.140040
    19  C   -0.112695
    20  C   -0.005471
    21  C    0.119292
    22  C    0.080078
    23  C   -0.015216
    24  O   -0.243215
    25  C    0.054080
    26  N   -0.271839
    27  C    0.036498
    28  C   -0.073324
    29  C    0.006512
    30  C    0.024614
    31  C    0.081972
    32  C    0.039489
    33  C   -0.000761
    34  N   -0.337360
    35  C    0.131907
    36  C   -0.197464
    37  C   -0.032879
    38  C    0.101781
    39  C    0.123198
    40  C    0.076527
    41  O   -0.138205
    42  C   -0.004811
    43  C    0.203505
    44  O   -0.164469
    45  O   -0.388592
    46  C    0.178683
    47  C    0.284008
    48  C   -0.132980
    49  C   -0.171520
    50  C    0.093022
    51  C    0.077633
    52  C    0.016173
    53  C    0.048574
    54  C   -0.151947
    55  C    0.069528
    56  C    0.050182
    57  C    0.029662
    58  C    0.043297
    59  C   -0.128992
    60  C    0.036051
    61  C    0.061288
    62  C   -0.015872
    63  C    0.058265
    64  C   -0.161536
    65  C    0.052745
    66  C    0.054714
    67  H   -0.056662
    68  H   -0.004907
    69  H   -0.028793
    70  H    0.041925
    71  H    0.010049
    72  H    0.045064
    73  H    0.016118
    74  H   -0.002266
    75  H    0.005465
    76  H    0.009105
    77  H    0.028194
    78  H    0.045579
    79  H    0.037795
    80  H    0.026275
    81  H    0.031749
    82  H    0.016329
    83  H    0.045952
    84  H    0.020543
    85  H    0.016686
    86  H    0.009038
    87  H    0.006866
    88  H    0.025664
    89  H    0.033026
    90  H    0.004969
    91  H    0.003587
    92  H    0.019034
    93  H    0.012753
    94  H    0.016082
    95  H    0.036393
    96  H    0.034299
    97  H    0.009861
    98  H    0.046882
    99  H    0.030490
   100  H    0.029769
   101  H    0.045910
   102  H    0.040524
   103  H    0.024082
   104  H   -0.005218
   105  H   -0.007299
   106  H    0.017769
   107  H    0.035039
   108  H    0.004958
   109  H   -0.013522
   110  H    0.002248
   111  H   -0.002184
   112  H    0.009935
   113  H   -0.005028
   114  H   -0.004392
   115  H    0.005685
   116  H   -0.002889
   117  H    0.005712
   118  H   -0.004209
   119  H   -0.022117
   120  H   -0.000808
   121  H   -0.006584
   122  H   -0.010847
   123  H   -0.006269
   124  H   -0.003955
   125  H   -0.005386
   126  H    0.008753
   127  H    0.016879
   128  H    0.004186
   129  H   -0.012407
   130  H   -0.003560
   131  H   -0.001106
   132  H   -0.014852
   133  H   -0.007425
   134  H   -0.006666
   135  H    0.001028
   136  H    0.002418
   137  H    0.014246
   138  H    0.003418
   139  H   -0.002092
   140  H    0.013765
 Sum of Mulliken charges =  -0.00000

 Dipole moment (field-independent basis, Debye):
    X=             -4.2795    Y=              2.9204    Z=              3.3369  Tot=              6.1626
 Quadrupole moment (field-independent basis, Debye-Ang):
   XX=           -382.3178   YY=           -443.4590   ZZ=           -405.6369
   XY=             21.3257   XZ=             17.4062   YZ=            -12.5019

 Normal termination of Gaussian 16 at Thu Apr 28 23:58:54 2022.
