 Gaussian 16, Revision A.03,
 Gaussian 16:  ES64L-G16RevA.03 25-Dec-2016

 ---------------------------------
 #p PBE1PBE/Def2SVP td=(nstates=5)
 ---------------------------------

 -----------------------------------------------------
 step_1751_chromophore_6 TDDFT with PBE1PBE functional
 -----------------------------------------------------
 Symbolic Z-matrix:
 Charge =  0 Multiplicity = 1

                         Standard orientation:
 ---------------------------------------------------------------------
 Center     Atomic      Atomic             Coordinates (Angstroms)
 Number     Number       Type             X           Y           Z
 ---------------------------------------------------------------------
      1         12           0        5.672002    0.947845    0.147872
      2          6           0        4.536857   -2.351472   -0.086800
      3          6           0        2.462939    1.916692   -0.000395
      4          6           0        6.783463    4.079302    0.101729
      5          6           0        9.012892   -0.242171   -0.303476
      6          7           0        3.728237   -0.068679   -0.225764
      7          6           0        3.527002   -1.424659   -0.072980
      8          6           0        2.041877   -1.727743    0.172948
      9          6           0        1.320049   -0.366514   -0.023416
     10          6           0        2.565414    0.547136   -0.085386
     11          6           0        0.313835   -0.289576   -1.245519
     12          6           0        1.609192   -2.423612    1.590765
     13          6           0        0.252597   -3.142079    1.792126
     14          6           0       -0.630916   -3.145546    0.555197
     15          8           0       -0.411876   -3.890657   -0.455178
     16          8           0       -1.721784   -2.261285    0.555598
     17          7           0        4.735723    2.775339    0.152455
     18          6           0        3.395688    2.990481    0.131891
     19          6           0        3.091544    4.377020    0.138883
     20          6           0        4.393274    5.060095    0.185052
     21          6           0        5.390401    3.954423    0.136656
     22          6           0        1.697555    4.885690    0.018958
     23          6           0        4.671840    6.530503    0.212898
     24          8           0        5.827590    7.027215    0.262615
     25          6           0        3.540847    7.647291    0.320979
     26          7           0        7.587636    1.783996   -0.282151
     27          6           0        7.781747    3.091368   -0.111562
     28          6           0        9.247175    3.494418   -0.257564
     29          6           0        9.976579    2.134696   -0.201883
     30          6           0        8.819537    1.150299   -0.280368
     31          6           0        9.289562    4.233343   -1.601966
     32          6           0       10.774805    2.004313    1.112029
     33          6           0       12.244564    1.764092    0.848881
     34          7           0        6.652088   -0.889109   -0.232690
     35          6           0        7.982666   -1.194135   -0.318246
     36          6           0        8.086316   -2.655050   -0.354552
     37          6           0        6.760206   -3.135031   -0.289623
     38          6           0        5.932984   -2.043518   -0.163138
     39          6           0        9.366365   -3.449446   -0.327092
     40          6           0        5.981507   -4.390102   -0.194483
     41          8           0        6.208976   -5.569886   -0.274598
     42          6           0        4.523359   -3.901532    0.006101
     43          6           0        3.619165   -4.586023   -0.967791
     44          8           0        3.631366   -4.432758   -2.141700
     45          8           0        2.768295   -5.502835   -0.280901
     46          6           0        1.932516   -6.396426   -1.156785
     47          6           0       -2.746024   -2.304750   -0.427534
     48          6           0       -3.886640   -2.838054    0.359883
     49          6           0       -5.029022   -3.233595   -0.147834
     50          6           0       -5.389188   -3.334232   -1.623692
     51          6           0       -6.134099   -3.728482    0.755178
     52          6           0       -6.760302   -2.717747    1.690262
     53          6           0       -8.326799   -2.634898    1.503222
     54          6           0       -8.714862   -1.171653    1.707425
     55          6           0       -8.673219   -0.861295    3.180491
     56          6           0      -10.145444   -0.827489    1.133217
     57          6           0      -10.229866    0.541610    0.368469
     58          6           0      -10.898827    1.627665    1.170235
     59          6           0      -12.142537    2.291591    0.449604
     60          6           0      -12.388694    3.744177    1.063013
     61          6           0      -13.473581    1.510280    0.451719
     62          6           0      -13.910557    1.100182   -0.966310
     63          6           0      -15.435271    1.040865   -1.233643
     64          6           0      -15.942324    2.150778   -2.163456
     65          6           0      -17.476639    2.065988   -2.286166
     66          6           0      -15.602517    3.515875   -1.703264
     67          1           0        1.425071    2.255699   -0.004590
     68          1           0        7.110201    5.114881    0.211656
     69          1           0       10.053552   -0.569923   -0.278126
     70          1           0        1.622067   -2.450188   -0.526316
     71          1           0        0.790128   -0.137036    0.900895
     72          1           0        0.097158   -1.268682   -1.672481
     73          1           0        0.594146    0.515863   -1.923973
     74          1           0       -0.664079    0.092430   -0.949092
     75          1           0        1.551581   -1.664177    2.370843
     76          1           0        2.450814   -3.074721    1.826517
     77          1           0       -0.304132   -2.707313    2.622718
     78          1           0        0.540049   -4.172043    2.003778
     79          1           0        1.566720    5.363603    0.990524
     80          1           0        0.838577    4.244632   -0.178998
     81          1           0        1.547737    5.611733   -0.779491
     82          1           0        2.917425    7.573985   -0.569892
     83          1           0        4.072727    8.597427    0.371483
     84          1           0        2.820225    7.370917    1.090939
     85          1           0        9.613435    4.135309    0.545475
     86          1           0       10.656988    2.007843   -1.043669
     87          1           0        9.761274    3.657437   -2.398246
     88          1           0        9.816705    5.174652   -1.446213
     89          1           0        8.270758    4.368404   -1.967204
     90          1           0       10.431283    1.166112    1.719399
     91          1           0       10.603256    2.879329    1.739437
     92          1           0       12.475771    0.895068    0.233764
     93          1           0       12.619323    1.595420    1.858527
     94          1           0       12.724929    2.633003    0.398085
     95          1           0        9.250411   -4.443096   -0.758759
     96          1           0        9.695433   -3.402091    0.710643
     97          1           0       10.122457   -3.003949   -0.973747
     98          1           0        4.241272   -4.151949    1.029073
     99          1           0        0.987045   -6.629679   -0.667163
    100          1           0        2.419836   -7.359086   -1.316087
    101          1           0        1.678305   -5.972210   -2.128505
    102          1           0       -2.530519   -2.864060   -1.338276
    103          1           0       -2.998379   -1.330237   -0.845658
    104          1           0       -3.794887   -2.810762    1.445946
    105          1           0       -4.553860   -2.986679   -2.230729
    106          1           0       -6.206538   -2.635301   -1.804327
    107          1           0       -5.714380   -4.325005   -1.939131
    108          1           0       -5.651588   -4.512826    1.338136
    109          1           0       -6.915443   -4.238601    0.191471
    110          1           0       -6.289900   -1.743811    1.550208
    111          1           0       -6.481570   -3.051866    2.688855
    112          1           0       -8.838713   -3.361281    2.135392
    113          1           0       -8.520942   -2.881081    0.459960
    114          1           0       -7.963149   -0.526643    1.253998
    115          1           0       -9.657829   -0.512155    3.489803
    116          1           0       -7.969417   -0.059284    3.403583
    117          1           0       -8.322483   -1.724041    3.748007
    118          1           0      -10.918690   -0.948995    1.891497
    119          1           0      -10.433318   -1.580731    0.399742
    120          1           0      -10.757057    0.455957   -0.582280
    121          1           0       -9.218665    0.911509    0.201539
    122          1           0      -10.126354    2.362896    1.392471
    123          1           0      -11.198853    1.175132    2.115773
    124          1           0      -11.872452    2.347831   -0.604806
    125          1           0      -11.709717    4.492713    0.655954
    126          1           0      -12.057873    3.726603    2.101120
    127          1           0      -13.377338    4.166411    0.886133
    128          1           0      -14.220599    1.991864    1.084076
    129          1           0      -13.361961    0.509144    0.867033
    130          1           0      -13.480969    0.111369   -1.125539
    131          1           0      -13.355018    1.720048   -1.669620
    132          1           0      -15.902644    1.074358   -0.249528
    133          1           0      -15.853780    0.115195   -1.628173
    134          1           0      -15.404679    1.992927   -3.098105
    135          1           0      -17.978735    3.030294   -2.361148
    136          1           0      -17.853025    1.633994   -1.358495
    137          1           0      -17.698647    1.459380   -3.163590
    138          1           0      -14.517932    3.573086   -1.789817
    139          1           0      -15.908932    3.555521   -0.658391
    140          1           0      -16.125943    4.296179   -2.255700
 ---------------------------------------------------------------------

 SCF Done:  E(RPBE1PBE) =  -3005.37436429     A.U. after   15 cycles

 Excitation energies and oscillator strengths:

 Excited State   1:      Singlet-A      1.8552 eV  668.30 nm  f=0.3816  <S**2>=0.000
     245 -> 248       -0.15639
     246 -> 247        0.69493
     246 <- 247       -0.11013
 This state for optimization and/or second-order correction.
 Total Energy, E(TD-HF/TD-DFT) =  -3005.30618678
 Copying the excited state density for this state as the 1-particle RhoCI density.

 Excited State   2:      Singlet-A      2.2001 eV  563.55 nm  f=0.1435  <S**2>=0.000
     245 -> 247        0.66487
     246 -> 248        0.21193

 Excited State   3:      Singlet-A      2.8568 eV  434.00 nm  f=0.0002  <S**2>=0.000
     243 -> 247        0.67151
     243 -> 248       -0.13655
     243 -> 249       -0.12682

 Excited State   4:      Singlet-A      2.9945 eV  414.04 nm  f=0.0036  <S**2>=0.000
     241 -> 247       -0.10541
     244 -> 247        0.69313

 Excited State   5:      Singlet-A      3.1171 eV  397.76 nm  f=0.0041  <S**2>=0.000
     240 -> 247        0.53721
     240 -> 249        0.11775
     241 -> 247       -0.41276

 The electronic state is 1-A.
 Alpha  occ. eigenvalues --  -46.92422 -19.26561 -19.23764 -19.20747 -19.19616
 Alpha  occ. eigenvalues --  -19.19348 -19.18731 -14.41630 -14.41626 -14.39199
 Alpha  occ. eigenvalues --  -14.38598 -10.38260 -10.35289 -10.32555 -10.32127
 Alpha  occ. eigenvalues --  -10.29702 -10.28719 -10.28639 -10.28531 -10.28258
 Alpha  occ. eigenvalues --  -10.28144 -10.27618 -10.27082 -10.27068 -10.27001
 Alpha  occ. eigenvalues --  -10.26612 -10.26084 -10.25955 -10.25950 -10.25917
 Alpha  occ. eigenvalues --  -10.25896 -10.25703 -10.25354 -10.25296 -10.24979
 Alpha  occ. eigenvalues --  -10.24968 -10.24928 -10.24567 -10.24000 -10.23977
 Alpha  occ. eigenvalues --  -10.23911 -10.23825 -10.23678 -10.23621 -10.23599
 Alpha  occ. eigenvalues --  -10.23544 -10.23266 -10.23220 -10.23015 -10.22996
 Alpha  occ. eigenvalues --  -10.22918 -10.22786 -10.22593 -10.22578 -10.22566
 Alpha  occ. eigenvalues --  -10.22558 -10.22479 -10.22442 -10.22377 -10.22359
 Alpha  occ. eigenvalues --  -10.22209 -10.22135 -10.21997 -10.21589 -10.21512
 Alpha  occ. eigenvalues --  -10.21097  -3.14525  -1.87347  -1.86920  -1.86734
 Alpha  occ. eigenvalues --   -1.10822  -1.09417  -1.05530  -1.02531  -1.01589
 Alpha  occ. eigenvalues --   -1.01108  -0.99474  -0.98914  -0.98276  -0.97517
 Alpha  occ. eigenvalues --   -0.86664  -0.85455  -0.84277  -0.83912  -0.83823
 Alpha  occ. eigenvalues --   -0.83443  -0.82980  -0.82043  -0.81800  -0.81351
 Alpha  occ. eigenvalues --   -0.80174  -0.80016  -0.78913  -0.78292  -0.77771
 Alpha  occ. eigenvalues --   -0.77283  -0.75833  -0.75299  -0.74390  -0.74265
 Alpha  occ. eigenvalues --   -0.73922  -0.72597  -0.72091  -0.71656  -0.70362
 Alpha  occ. eigenvalues --   -0.69820  -0.69614  -0.69293  -0.68889  -0.68824
 Alpha  occ. eigenvalues --   -0.68207  -0.67059  -0.65989  -0.65353  -0.63060
 Alpha  occ. eigenvalues --   -0.62999  -0.62598  -0.62088  -0.61447  -0.60332
 Alpha  occ. eigenvalues --   -0.60118  -0.59511  -0.59489  -0.59058  -0.58741
 Alpha  occ. eigenvalues --   -0.58208  -0.58101  -0.56563  -0.55635  -0.55193
 Alpha  occ. eigenvalues --   -0.54638  -0.54254  -0.53978  -0.53189  -0.52573
 Alpha  occ. eigenvalues --   -0.52033  -0.51250  -0.50979  -0.50515  -0.49655
 Alpha  occ. eigenvalues --   -0.49615  -0.49172  -0.48887  -0.48625  -0.48084
 Alpha  occ. eigenvalues --   -0.47914  -0.47650  -0.47475  -0.47323  -0.47138
 Alpha  occ. eigenvalues --   -0.47077  -0.46900  -0.46764  -0.46677  -0.46459
 Alpha  occ. eigenvalues --   -0.46324  -0.46096  -0.45526  -0.45342  -0.45172
 Alpha  occ. eigenvalues --   -0.45099  -0.44693  -0.44655  -0.44399  -0.44217
 Alpha  occ. eigenvalues --   -0.44181  -0.43815  -0.43731  -0.43647  -0.43447
 Alpha  occ. eigenvalues --   -0.43065  -0.42999  -0.42886  -0.42531  -0.42393
 Alpha  occ. eigenvalues --   -0.42251  -0.41964  -0.41726  -0.41373  -0.41239
 Alpha  occ. eigenvalues --   -0.41050  -0.40967  -0.40660  -0.40538  -0.40455
 Alpha  occ. eigenvalues --   -0.40296  -0.40111  -0.39836  -0.39728  -0.39556
 Alpha  occ. eigenvalues --   -0.39472  -0.39334  -0.39313  -0.39038  -0.38975
 Alpha  occ. eigenvalues --   -0.38808  -0.38782  -0.38634  -0.37971  -0.37834
 Alpha  occ. eigenvalues --   -0.37729  -0.37510  -0.37219  -0.37061  -0.36927
 Alpha  occ. eigenvalues --   -0.36850  -0.36499  -0.36068  -0.35905  -0.35871
 Alpha  occ. eigenvalues --   -0.35599  -0.35487  -0.35354  -0.35329  -0.34876
 Alpha  occ. eigenvalues --   -0.34602  -0.34409  -0.34254  -0.33602  -0.33503
 Alpha  occ. eigenvalues --   -0.33341  -0.32896  -0.32739  -0.32625  -0.32581
 Alpha  occ. eigenvalues --   -0.32374  -0.32338  -0.31874  -0.31698  -0.31050
 Alpha  occ. eigenvalues --   -0.31017  -0.30508  -0.30095  -0.29601  -0.29500
 Alpha  occ. eigenvalues --   -0.29275  -0.28989  -0.28444  -0.26769  -0.25811
 Alpha  occ. eigenvalues --   -0.25688  -0.25448  -0.25261  -0.25147  -0.20834
 Alpha  occ. eigenvalues --   -0.18901
 Alpha virt. eigenvalues --   -0.11339  -0.05023  -0.03526  -0.02121  -0.01986
 Alpha virt. eigenvalues --   -0.00998   0.01207   0.01465   0.01808   0.03410
 Alpha virt. eigenvalues --    0.04259   0.04811   0.05299   0.05375   0.05932

 Mulliken charges:
               1
     1  Mg   0.965737
     2  C   -0.032373
     3  C   -0.059328
     4  C   -0.048718
     5  C   -0.074158
     6  N   -0.360743
     7  C    0.067629
     8  C   -0.131482
     9  C   -0.080981
    10  C    0.038547
    11  C    0.009588
    12  C   -0.043510
    13  C    0.068918
    14  C    0.215945
    15  O   -0.306315
    16  O   -0.373486
    17  N   -0.489689
    18  C    0.170852
    19  C   -0.150085
    20  C   -0.054977
    21  C    0.151864
    22  C    0.026419
    23  C    0.033712
    24  O   -0.278864
    25  C   -0.019171
    26  N   -0.375514
    27  C    0.056134
    28  C   -0.145472
    29  C   -0.070404
    30  C    0.063062
    31  C    0.028502
    32  C   -0.015775
    33  C   -0.076342
    34  N   -0.464761
    35  C    0.156756
    36  C   -0.215040
    37  C   -0.077488
    38  C    0.155358
    39  C    0.069075
    40  C    0.171778
    41  O   -0.185853
    42  C   -0.113112
    43  C    0.294850
    44  O   -0.200969
    45  O   -0.419438
    46  C    0.124124
    47  C    0.246546
    48  C   -0.142021
    49  C   -0.217147
    50  C    0.026793
    51  C    0.017103
    52  C   -0.040725
    53  C   -0.013782
    54  C   -0.240100
    55  C    0.016525
    56  C   -0.005322
    57  C   -0.033836
    58  C   -0.007536
    59  C   -0.218724
    60  C   -0.026919
    61  C    0.015398
    62  C   -0.083206
    63  C    0.008759
    64  C   -0.259155
    65  C   -0.009024
    66  C   -0.006978
    67  H   -0.021842
    68  H    0.026881
    69  H    0.003305
    70  H    0.082756
    71  H    0.046955
    72  H    0.070258
    73  H    0.043747
    74  H    0.025694
    75  H    0.038278
    76  H    0.044822
    77  H    0.059026
    78  H    0.077626
    79  H    0.065092
    80  H    0.049870
    81  H    0.057573
    82  H    0.043500
    83  H    0.071309
    84  H    0.047411
    85  H    0.051109
    86  H    0.045388
    87  H    0.034374
    88  H    0.052802
    89  H    0.063134
    90  H    0.038059
    91  H    0.036125
    92  H    0.046341
    93  H    0.041794
    94  H    0.045183
    95  H    0.064080
    96  H    0.063454
    97  H    0.037906
    98  H    0.085296
    99  H    0.052574
   100  H    0.052235
   101  H    0.066658
   102  H    0.064682
   103  H    0.050517
   104  H    0.024734
   105  H    0.020752
   106  H    0.047357
   107  H    0.061634
   108  H    0.039002
   109  H    0.017962
   110  H    0.033938
   111  H    0.029916
   112  H    0.041895
   113  H    0.029324
   114  H    0.033172
   115  H    0.032848
   116  H    0.024884
   117  H    0.032978
   118  H    0.026351
   119  H    0.011283
   120  H    0.031987
   121  H    0.026597
   122  H    0.021608
   123  H    0.026831
   124  H    0.034245
   125  H    0.023369
   126  H    0.036717
   127  H    0.044124
   128  H    0.033976
   129  H    0.022228
   130  H    0.030110
   131  H    0.029012
   132  H    0.017378
   133  H    0.025477
   134  H    0.031683
   135  H    0.028363
   136  H    0.029737
   137  H    0.042302
   138  H    0.032810
   139  H    0.026019
   140  H    0.041970
 Sum of Mulliken charges =  -0.00000

 Dipole moment (field-independent basis, Debye):
    X=             -4.0054    Y=              2.4762    Z=              3.3473  Tot=              5.7774
 Quadrupole moment (field-independent basis, Debye-Ang):
   XX=           -373.3744   YY=           -442.0390   ZZ=           -403.2087
   XY=             19.9094   XZ=             17.3049   YZ=            -12.5699

 Normal termination of Gaussian 16 at Fri Apr 29 00:16:44 2022.
