 Gaussian 16, Revision A.03,
 Gaussian 16:  ES64L-G16RevA.03 25-Dec-2016

 --------------------------------
 #p wB97XD/Def2SVP td=(nstates=5)
 --------------------------------

 ----------------------------------------------------
 step_1751_chromophore_6 TDDFT with wB97XD functional
 ----------------------------------------------------
 Symbolic Z-matrix:
 Charge =  0 Multiplicity = 1

                         Standard orientation:
 ---------------------------------------------------------------------
 Center     Atomic      Atomic             Coordinates (Angstroms)
 Number     Number       Type             X           Y           Z
 ---------------------------------------------------------------------
      1         12           0        5.672002    0.947845    0.147872
      2          6           0        4.536857   -2.351472   -0.086800
      3          6           0        2.462939    1.916692   -0.000395
      4          6           0        6.783463    4.079302    0.101729
      5          6           0        9.012892   -0.242171   -0.303476
      6          7           0        3.728237   -0.068679   -0.225764
      7          6           0        3.527002   -1.424659   -0.072980
      8          6           0        2.041877   -1.727743    0.172948
      9          6           0        1.320049   -0.366514   -0.023416
     10          6           0        2.565414    0.547136   -0.085386
     11          6           0        0.313835   -0.289576   -1.245519
     12          6           0        1.609192   -2.423612    1.590765
     13          6           0        0.252597   -3.142079    1.792126
     14          6           0       -0.630916   -3.145546    0.555197
     15          8           0       -0.411876   -3.890657   -0.455178
     16          8           0       -1.721784   -2.261285    0.555598
     17          7           0        4.735723    2.775339    0.152455
     18          6           0        3.395688    2.990481    0.131891
     19          6           0        3.091544    4.377020    0.138883
     20          6           0        4.393274    5.060095    0.185052
     21          6           0        5.390401    3.954423    0.136656
     22          6           0        1.697555    4.885690    0.018958
     23          6           0        4.671840    6.530503    0.212898
     24          8           0        5.827590    7.027215    0.262615
     25          6           0        3.540847    7.647291    0.320979
     26          7           0        7.587636    1.783996   -0.282151
     27          6           0        7.781747    3.091368   -0.111562
     28          6           0        9.247175    3.494418   -0.257564
     29          6           0        9.976579    2.134696   -0.201883
     30          6           0        8.819537    1.150299   -0.280368
     31          6           0        9.289562    4.233343   -1.601966
     32          6           0       10.774805    2.004313    1.112029
     33          6           0       12.244564    1.764092    0.848881
     34          7           0        6.652088   -0.889109   -0.232690
     35          6           0        7.982666   -1.194135   -0.318246
     36          6           0        8.086316   -2.655050   -0.354552
     37          6           0        6.760206   -3.135031   -0.289623
     38          6           0        5.932984   -2.043518   -0.163138
     39          6           0        9.366365   -3.449446   -0.327092
     40          6           0        5.981507   -4.390102   -0.194483
     41          8           0        6.208976   -5.569886   -0.274598
     42          6           0        4.523359   -3.901532    0.006101
     43          6           0        3.619165   -4.586023   -0.967791
     44          8           0        3.631366   -4.432758   -2.141700
     45          8           0        2.768295   -5.502835   -0.280901
     46          6           0        1.932516   -6.396426   -1.156785
     47          6           0       -2.746024   -2.304750   -0.427534
     48          6           0       -3.886640   -2.838054    0.359883
     49          6           0       -5.029022   -3.233595   -0.147834
     50          6           0       -5.389188   -3.334232   -1.623692
     51          6           0       -6.134099   -3.728482    0.755178
     52          6           0       -6.760302   -2.717747    1.690262
     53          6           0       -8.326799   -2.634898    1.503222
     54          6           0       -8.714862   -1.171653    1.707425
     55          6           0       -8.673219   -0.861295    3.180491
     56          6           0      -10.145444   -0.827489    1.133217
     57          6           0      -10.229866    0.541610    0.368469
     58          6           0      -10.898827    1.627665    1.170235
     59          6           0      -12.142537    2.291591    0.449604
     60          6           0      -12.388694    3.744177    1.063013
     61          6           0      -13.473581    1.510280    0.451719
     62          6           0      -13.910557    1.100182   -0.966310
     63          6           0      -15.435271    1.040865   -1.233643
     64          6           0      -15.942324    2.150778   -2.163456
     65          6           0      -17.476639    2.065988   -2.286166
     66          6           0      -15.602517    3.515875   -1.703264
     67          1           0        1.425071    2.255699   -0.004590
     68          1           0        7.110201    5.114881    0.211656
     69          1           0       10.053552   -0.569923   -0.278126
     70          1           0        1.622067   -2.450188   -0.526316
     71          1           0        0.790128   -0.137036    0.900895
     72          1           0        0.097158   -1.268682   -1.672481
     73          1           0        0.594146    0.515863   -1.923973
     74          1           0       -0.664079    0.092430   -0.949092
     75          1           0        1.551581   -1.664177    2.370843
     76          1           0        2.450814   -3.074721    1.826517
     77          1           0       -0.304132   -2.707313    2.622718
     78          1           0        0.540049   -4.172043    2.003778
     79          1           0        1.566720    5.363603    0.990524
     80          1           0        0.838577    4.244632   -0.178998
     81          1           0        1.547737    5.611733   -0.779491
     82          1           0        2.917425    7.573985   -0.569892
     83          1           0        4.072727    8.597427    0.371483
     84          1           0        2.820225    7.370917    1.090939
     85          1           0        9.613435    4.135309    0.545475
     86          1           0       10.656988    2.007843   -1.043669
     87          1           0        9.761274    3.657437   -2.398246
     88          1           0        9.816705    5.174652   -1.446213
     89          1           0        8.270758    4.368404   -1.967204
     90          1           0       10.431283    1.166112    1.719399
     91          1           0       10.603256    2.879329    1.739437
     92          1           0       12.475771    0.895068    0.233764
     93          1           0       12.619323    1.595420    1.858527
     94          1           0       12.724929    2.633003    0.398085
     95          1           0        9.250411   -4.443096   -0.758759
     96          1           0        9.695433   -3.402091    0.710643
     97          1           0       10.122457   -3.003949   -0.973747
     98          1           0        4.241272   -4.151949    1.029073
     99          1           0        0.987045   -6.629679   -0.667163
    100          1           0        2.419836   -7.359086   -1.316087
    101          1           0        1.678305   -5.972210   -2.128505
    102          1           0       -2.530519   -2.864060   -1.338276
    103          1           0       -2.998379   -1.330237   -0.845658
    104          1           0       -3.794887   -2.810762    1.445946
    105          1           0       -4.553860   -2.986679   -2.230729
    106          1           0       -6.206538   -2.635301   -1.804327
    107          1           0       -5.714380   -4.325005   -1.939131
    108          1           0       -5.651588   -4.512826    1.338136
    109          1           0       -6.915443   -4.238601    0.191471
    110          1           0       -6.289900   -1.743811    1.550208
    111          1           0       -6.481570   -3.051866    2.688855
    112          1           0       -8.838713   -3.361281    2.135392
    113          1           0       -8.520942   -2.881081    0.459960
    114          1           0       -7.963149   -0.526643    1.253998
    115          1           0       -9.657829   -0.512155    3.489803
    116          1           0       -7.969417   -0.059284    3.403583
    117          1           0       -8.322483   -1.724041    3.748007
    118          1           0      -10.918690   -0.948995    1.891497
    119          1           0      -10.433318   -1.580731    0.399742
    120          1           0      -10.757057    0.455957   -0.582280
    121          1           0       -9.218665    0.911509    0.201539
    122          1           0      -10.126354    2.362896    1.392471
    123          1           0      -11.198853    1.175132    2.115773
    124          1           0      -11.872452    2.347831   -0.604806
    125          1           0      -11.709717    4.492713    0.655954
    126          1           0      -12.057873    3.726603    2.101120
    127          1           0      -13.377338    4.166411    0.886133
    128          1           0      -14.220599    1.991864    1.084076
    129          1           0      -13.361961    0.509144    0.867033
    130          1           0      -13.480969    0.111369   -1.125539
    131          1           0      -13.355018    1.720048   -1.669620
    132          1           0      -15.902644    1.074358   -0.249528
    133          1           0      -15.853780    0.115195   -1.628173
    134          1           0      -15.404679    1.992927   -3.098105
    135          1           0      -17.978735    3.030294   -2.361148
    136          1           0      -17.853025    1.633994   -1.358495
    137          1           0      -17.698647    1.459380   -3.163590
    138          1           0      -14.517932    3.573086   -1.789817
    139          1           0      -15.908932    3.555521   -0.658391
    140          1           0      -16.125943    4.296179   -2.255700
 ---------------------------------------------------------------------

 SCF Done:  E(RwB97XD) =  -3007.88470516     A.U. after   19 cycles

 Excitation energies and oscillator strengths:

 Excited State   1:      Singlet-A      1.6628 eV  745.65 nm  f=0.3957  <S**2>=0.000
     245 -> 248       -0.17085
     246 -> 247        0.68506
     245 <- 248       -0.10925
 This state for optimization and/or second-order correction.
 Total Energy, E(TD-HF/TD-DFT) =  -3007.82359998
 Copying the excited state density for this state as the 1-particle RhoCI density.

 Excited State   2:      Singlet-A      2.1397 eV  579.45 nm  f=0.1507  <S**2>=0.000
     245 -> 247        0.65386
     246 -> 248        0.24469

 Excited State   3:      Singlet-A      3.3625 eV  368.72 nm  f=0.0049  <S**2>=0.000
     241 -> 247        0.36867
     241 -> 248       -0.15820
     241 -> 249        0.21888
     241 -> 250       -0.10197
     242 -> 247       -0.36526
     244 -> 247        0.31782
     246 -> 248        0.10504

 Excited State   4:      Singlet-A      3.3816 eV  366.64 nm  f=0.0030  <S**2>=0.000
     241 -> 247       -0.38545
     241 -> 248        0.13451
     241 -> 249       -0.19285
     242 -> 247       -0.19816
     244 -> 247        0.46264

 Excited State   5:      Singlet-A      3.5016 eV  354.08 nm  f=0.0271  <S**2>=0.000
     240 -> 247        0.14479
     241 -> 247        0.14123
     242 -> 247        0.43151
     244 -> 247        0.38037
     246 -> 248       -0.31358

 The electronic state is 1-A.
 Alpha  occ. eigenvalues --  -46.95377 -19.31078 -19.28238 -19.25382 -19.24274
 Alpha  occ. eigenvalues --  -19.23996 -19.23756 -14.46761 -14.46707 -14.44267
 Alpha  occ. eigenvalues --  -14.43370 -10.45028 -10.42058 -10.39621 -10.38823
 Alpha  occ. eigenvalues --  -10.36175 -10.35161 -10.34799 -10.34771 -10.34767
 Alpha  occ. eigenvalues --  -10.34581 -10.34286 -10.33878 -10.33533 -10.33041
 Alpha  occ. eigenvalues --  -10.33006 -10.32561 -10.32251 -10.32237 -10.32176
 Alpha  occ. eigenvalues --  -10.32131 -10.31953 -10.31719 -10.31655 -10.31373
 Alpha  occ. eigenvalues --  -10.31198 -10.31064 -10.30853 -10.30526 -10.30333
 Alpha  occ. eigenvalues --  -10.30294 -10.30196 -10.30114 -10.30094 -10.30076
 Alpha  occ. eigenvalues --  -10.30039 -10.29545 -10.29454 -10.29355 -10.29342
 Alpha  occ. eigenvalues --  -10.29278 -10.29163 -10.28954 -10.28940 -10.28926
 Alpha  occ. eigenvalues --  -10.28849 -10.28800 -10.28754 -10.28729 -10.28589
 Alpha  occ. eigenvalues --  -10.28544 -10.28516 -10.28440 -10.28018 -10.27956
 Alpha  occ. eigenvalues --  -10.27567  -3.21339  -1.94910  -1.94484  -1.94295
 Alpha  occ. eigenvalues --   -1.18182  -1.16743  -1.12840  -1.10253  -1.08934
 Alpha  occ. eigenvalues --   -1.08396  -1.06911  -1.06311  -1.05731  -1.04708
 Alpha  occ. eigenvalues --   -0.94150  -0.93102  -0.91951  -0.91477  -0.91451
 Alpha  occ. eigenvalues --   -0.91093  -0.90738  -0.89709  -0.89417  -0.89119
 Alpha  occ. eigenvalues --   -0.87819  -0.87475  -0.86568  -0.85844  -0.85369
 Alpha  occ. eigenvalues --   -0.84907  -0.83505  -0.82957  -0.82133  -0.81934
 Alpha  occ. eigenvalues --   -0.81604  -0.80489  -0.79707  -0.79224  -0.78023
 Alpha  occ. eigenvalues --   -0.77401  -0.77328  -0.76874  -0.76567  -0.76514
 Alpha  occ. eigenvalues --   -0.75815  -0.74515  -0.73568  -0.72930  -0.70725
 Alpha  occ. eigenvalues --   -0.70486  -0.70230  -0.69606  -0.69077  -0.67855
 Alpha  occ. eigenvalues --   -0.67592  -0.67146  -0.66930  -0.66522  -0.66136
 Alpha  occ. eigenvalues --   -0.65915  -0.65768  -0.64207  -0.63072  -0.62723
 Alpha  occ. eigenvalues --   -0.62072  -0.61723  -0.61270  -0.60555  -0.59882
 Alpha  occ. eigenvalues --   -0.59504  -0.58682  -0.58433  -0.57960  -0.57085
 Alpha  occ. eigenvalues --   -0.56964  -0.56570  -0.56342  -0.56034  -0.55457
 Alpha  occ. eigenvalues --   -0.55282  -0.55014  -0.54847  -0.54746  -0.54531
 Alpha  occ. eigenvalues --   -0.54461  -0.54386  -0.54122  -0.54068  -0.53868
 Alpha  occ. eigenvalues --   -0.53690  -0.53446  -0.52816  -0.52662  -0.52448
 Alpha  occ. eigenvalues --   -0.52389  -0.52051  -0.52000  -0.51747  -0.51521
 Alpha  occ. eigenvalues --   -0.51461  -0.51159  -0.51123  -0.51040  -0.50824
 Alpha  occ. eigenvalues --   -0.50476  -0.50309  -0.50093  -0.50048  -0.49804
 Alpha  occ. eigenvalues --   -0.49532  -0.49188  -0.48934  -0.48627  -0.48390
 Alpha  occ. eigenvalues --   -0.48290  -0.48179  -0.47872  -0.47739  -0.47665
 Alpha  occ. eigenvalues --   -0.47526  -0.47333  -0.47033  -0.46915  -0.46740
 Alpha  occ. eigenvalues --   -0.46599  -0.46546  -0.46400  -0.46161  -0.46125
 Alpha  occ. eigenvalues --   -0.46046  -0.45985  -0.45758  -0.45110  -0.44947
 Alpha  occ. eigenvalues --   -0.44830  -0.44504  -0.44237  -0.44121  -0.44052
 Alpha  occ. eigenvalues --   -0.43857  -0.43533  -0.43272  -0.43134  -0.42966
 Alpha  occ. eigenvalues --   -0.42705  -0.42625  -0.42470  -0.42410  -0.41879
 Alpha  occ. eigenvalues --   -0.41572  -0.41492  -0.41182  -0.40680  -0.40387
 Alpha  occ. eigenvalues --   -0.40367  -0.39916  -0.39793  -0.39639  -0.39503
 Alpha  occ. eigenvalues --   -0.39411  -0.39295  -0.38876  -0.38731  -0.38057
 Alpha  occ. eigenvalues --   -0.37967  -0.37434  -0.37123  -0.36394  -0.36330
 Alpha  occ. eigenvalues --   -0.36195  -0.35976  -0.35322  -0.33361  -0.32717
 Alpha  occ. eigenvalues --   -0.32662  -0.32421  -0.32200  -0.31476  -0.25821
 Alpha  occ. eigenvalues --   -0.23125
 Alpha virt. eigenvalues --   -0.07274   0.00540   0.02616   0.04407   0.04745
 Alpha virt. eigenvalues --    0.05010   0.07894   0.08173   0.08707   0.09985
 Alpha virt. eigenvalues --    0.10955   0.11307   0.12038   0.12106   0.12645

 Mulliken charges:
               1
     1  Mg   0.957852
     2  C   -0.034695
     3  C   -0.073292
     4  C   -0.073563
     5  C   -0.091881
     6  N   -0.325108
     7  C    0.038397
     8  C   -0.100952
     9  C   -0.060890
    10  C    0.026601
    11  C    0.021878
    12  C   -0.031705
    13  C    0.083993
    14  C    0.200538
    15  O   -0.301960
    16  O   -0.369362
    17  N   -0.455976
    18  C    0.161727
    19  C   -0.133220
    20  C   -0.049124
    21  C    0.144973
    22  C    0.034423
    23  C    0.028280
    24  O   -0.272562
    25  C   -0.003130
    26  N   -0.342616
    27  C    0.055449
    28  C   -0.123078
    29  C   -0.046147
    30  C    0.049407
    31  C    0.036373
    32  C   -0.004607
    33  C   -0.058442
    34  N   -0.425444
    35  C    0.144610
    36  C   -0.211662
    37  C   -0.075806
    38  C    0.135974
    39  C    0.079162
    40  C    0.154678
    41  O   -0.177236
    42  C   -0.073436
    43  C    0.270277
    44  O   -0.195622
    45  O   -0.418211
    46  C    0.139278
    47  C    0.255727
    48  C   -0.152044
    49  C   -0.201251
    50  C    0.042969
    51  C    0.033680
    52  C   -0.026816
    53  C    0.005342
    54  C   -0.206446
    55  C    0.024118
    56  C    0.011008
    57  C   -0.016197
    58  C    0.006385
    59  C   -0.184123
    60  C   -0.011603
    61  C    0.020851
    62  C   -0.060205
    63  C    0.020290
    64  C   -0.224730
    65  C    0.001910
    66  C    0.008638
    67  H   -0.032439
    68  H    0.022541
    69  H   -0.001884
    70  H    0.063699
    71  H    0.036154
    72  H    0.064753
    73  H    0.038648
    74  H    0.019002
    75  H    0.029530
    76  H    0.032495
    77  H    0.055109
    78  H    0.073826
    79  H    0.059677
    80  H    0.049515
    81  H    0.053714
    82  H    0.037180
    83  H    0.071527
    84  H    0.041324
    85  H    0.042071
    86  H    0.034412
    87  H    0.029773
    88  H    0.048375
    89  H    0.054446
    90  H    0.029300
    91  H    0.027725
    92  H    0.039857
    93  H    0.035870
    94  H    0.038079
    95  H    0.060167
    96  H    0.057189
    97  H    0.031045
    98  H    0.077108
    99  H    0.049242
   100  H    0.048105
   101  H    0.062979
   102  H    0.059899
   103  H    0.045724
   104  H    0.021591
   105  H    0.014476
   106  H    0.040152
   107  H    0.057104
   108  H    0.031530
   109  H    0.009262
   110  H    0.021989
   111  H    0.022566
   112  H    0.035181
   113  H    0.016754
   114  H    0.018322
   115  H    0.025717
   116  H    0.019989
   117  H    0.026081
   118  H    0.016025
   119  H    0.003283
   120  H    0.021764
   121  H    0.018222
   122  H    0.014276
   123  H    0.013922
   124  H    0.018811
   125  H    0.017190
   126  H    0.029896
   127  H    0.037774
   128  H    0.025482
   129  H    0.012818
   130  H    0.022439
   131  H    0.016222
   132  H    0.005933
   133  H    0.018241
   134  H    0.020820
   135  H    0.022847
   136  H    0.022906
   137  H    0.037125
   138  H    0.022649
   139  H    0.016792
   140  H    0.036467
 Sum of Mulliken charges =  -0.00000

 Dipole moment (field-independent basis, Debye):
    X=             -4.3916    Y=              3.1158    Z=              3.4226  Tot=              6.3804
 Quadrupole moment (field-independent basis, Debye-Ang):
   XX=           -377.9793   YY=           -438.9497   ZZ=           -402.9083
   XY=             22.0286   XZ=             17.7789   YZ=            -12.6330

 Normal termination of Gaussian 16 at Fri Apr 29 00:39:06 2022.
