 Gaussian 16, Revision A.03,
 Gaussian 16:  ES64L-G16RevA.03 25-Dec-2016

 --------------------
 #p ZINDO=(nstates=5)
 --------------------

 -----------------------------
 step_1751_chromophore_6 ZINDO
 -----------------------------
 Symbolic Z-matrix:
 Charge =  0 Multiplicity = 1

                         Standard orientation:
 ---------------------------------------------------------------------
 Center     Atomic      Atomic             Coordinates (Angstroms)
 Number     Number       Type             X           Y           Z
 ---------------------------------------------------------------------
      1         12           0        5.672002    0.947845    0.147872
      2          6           0        4.536857   -2.351472   -0.086800
      3          6           0        2.462939    1.916692   -0.000395
      4          6           0        6.783463    4.079302    0.101729
      5          6           0        9.012892   -0.242171   -0.303476
      6          7           0        3.728237   -0.068679   -0.225764
      7          6           0        3.527002   -1.424659   -0.072980
      8          6           0        2.041877   -1.727743    0.172948
      9          6           0        1.320049   -0.366514   -0.023416
     10          6           0        2.565414    0.547136   -0.085386
     11          6           0        0.313835   -0.289576   -1.245519
     12          6           0        1.609192   -2.423612    1.590765
     13          6           0        0.252597   -3.142079    1.792126
     14          6           0       -0.630916   -3.145546    0.555197
     15          8           0       -0.411876   -3.890657   -0.455178
     16          8           0       -1.721784   -2.261285    0.555598
     17          7           0        4.735723    2.775339    0.152455
     18          6           0        3.395688    2.990481    0.131891
     19          6           0        3.091544    4.377020    0.138883
     20          6           0        4.393274    5.060095    0.185052
     21          6           0        5.390401    3.954423    0.136656
     22          6           0        1.697555    4.885690    0.018958
     23          6           0        4.671840    6.530503    0.212898
     24          8           0        5.827590    7.027215    0.262615
     25          6           0        3.540847    7.647291    0.320979
     26          7           0        7.587636    1.783996   -0.282151
     27          6           0        7.781747    3.091368   -0.111562
     28          6           0        9.247175    3.494418   -0.257564
     29          6           0        9.976579    2.134696   -0.201883
     30          6           0        8.819537    1.150299   -0.280368
     31          6           0        9.289562    4.233343   -1.601966
     32          6           0       10.774805    2.004313    1.112029
     33          6           0       12.244564    1.764092    0.848881
     34          7           0        6.652088   -0.889109   -0.232690
     35          6           0        7.982666   -1.194135   -0.318246
     36          6           0        8.086316   -2.655050   -0.354552
     37          6           0        6.760206   -3.135031   -0.289623
     38          6           0        5.932984   -2.043518   -0.163138
     39          6           0        9.366365   -3.449446   -0.327092
     40          6           0        5.981507   -4.390102   -0.194483
     41          8           0        6.208976   -5.569886   -0.274598
     42          6           0        4.523359   -3.901532    0.006101
     43          6           0        3.619165   -4.586023   -0.967791
     44          8           0        3.631366   -4.432758   -2.141700
     45          8           0        2.768295   -5.502835   -0.280901
     46          6           0        1.932516   -6.396426   -1.156785
     47          6           0       -2.746024   -2.304750   -0.427534
     48          6           0       -3.886640   -2.838054    0.359883
     49          6           0       -5.029022   -3.233595   -0.147834
     50          6           0       -5.389188   -3.334232   -1.623692
     51          6           0       -6.134099   -3.728482    0.755178
     52          6           0       -6.760302   -2.717747    1.690262
     53          6           0       -8.326799   -2.634898    1.503222
     54          6           0       -8.714862   -1.171653    1.707425
     55          6           0       -8.673219   -0.861295    3.180491
     56          6           0      -10.145444   -0.827489    1.133217
     57          6           0      -10.229866    0.541610    0.368469
     58          6           0      -10.898827    1.627665    1.170235
     59          6           0      -12.142537    2.291591    0.449604
     60          6           0      -12.388694    3.744177    1.063013
     61          6           0      -13.473581    1.510280    0.451719
     62          6           0      -13.910557    1.100182   -0.966310
     63          6           0      -15.435271    1.040865   -1.233643
     64          6           0      -15.942324    2.150778   -2.163456
     65          6           0      -17.476639    2.065988   -2.286166
     66          6           0      -15.602517    3.515875   -1.703264
     67          1           0        1.425071    2.255699   -0.004590
     68          1           0        7.110201    5.114881    0.211656
     69          1           0       10.053552   -0.569923   -0.278126
     70          1           0        1.622067   -2.450188   -0.526316
     71          1           0        0.790128   -0.137036    0.900895
     72          1           0        0.097158   -1.268682   -1.672481
     73          1           0        0.594146    0.515863   -1.923973
     74          1           0       -0.664079    0.092430   -0.949092
     75          1           0        1.551581   -1.664177    2.370843
     76          1           0        2.450814   -3.074721    1.826517
     77          1           0       -0.304132   -2.707313    2.622718
     78          1           0        0.540049   -4.172043    2.003778
     79          1           0        1.566720    5.363603    0.990524
     80          1           0        0.838577    4.244632   -0.178998
     81          1           0        1.547737    5.611733   -0.779491
     82          1           0        2.917425    7.573985   -0.569892
     83          1           0        4.072727    8.597427    0.371483
     84          1           0        2.820225    7.370917    1.090939
     85          1           0        9.613435    4.135309    0.545475
     86          1           0       10.656988    2.007843   -1.043669
     87          1           0        9.761274    3.657437   -2.398246
     88          1           0        9.816705    5.174652   -1.446213
     89          1           0        8.270758    4.368404   -1.967204
     90          1           0       10.431283    1.166112    1.719399
     91          1           0       10.603256    2.879329    1.739437
     92          1           0       12.475771    0.895068    0.233764
     93          1           0       12.619323    1.595420    1.858527
     94          1           0       12.724929    2.633003    0.398085
     95          1           0        9.250411   -4.443096   -0.758759
     96          1           0        9.695433   -3.402091    0.710643
     97          1           0       10.122457   -3.003949   -0.973747
     98          1           0        4.241272   -4.151949    1.029073
     99          1           0        0.987045   -6.629679   -0.667163
    100          1           0        2.419836   -7.359086   -1.316087
    101          1           0        1.678305   -5.972210   -2.128505
    102          1           0       -2.530519   -2.864060   -1.338276
    103          1           0       -2.998379   -1.330237   -0.845658
    104          1           0       -3.794887   -2.810762    1.445946
    105          1           0       -4.553860   -2.986679   -2.230729
    106          1           0       -6.206538   -2.635301   -1.804327
    107          1           0       -5.714380   -4.325005   -1.939131
    108          1           0       -5.651588   -4.512826    1.338136
    109          1           0       -6.915443   -4.238601    0.191471
    110          1           0       -6.289900   -1.743811    1.550208
    111          1           0       -6.481570   -3.051866    2.688855
    112          1           0       -8.838713   -3.361281    2.135392
    113          1           0       -8.520942   -2.881081    0.459960
    114          1           0       -7.963149   -0.526643    1.253998
    115          1           0       -9.657829   -0.512155    3.489803
    116          1           0       -7.969417   -0.059284    3.403583
    117          1           0       -8.322483   -1.724041    3.748007
    118          1           0      -10.918690   -0.948995    1.891497
    119          1           0      -10.433318   -1.580731    0.399742
    120          1           0      -10.757057    0.455957   -0.582280
    121          1           0       -9.218665    0.911509    0.201539
    122          1           0      -10.126354    2.362896    1.392471
    123          1           0      -11.198853    1.175132    2.115773
    124          1           0      -11.872452    2.347831   -0.604806
    125          1           0      -11.709717    4.492713    0.655954
    126          1           0      -12.057873    3.726603    2.101120
    127          1           0      -13.377338    4.166411    0.886133
    128          1           0      -14.220599    1.991864    1.084076
    129          1           0      -13.361961    0.509144    0.867033
    130          1           0      -13.480969    0.111369   -1.125539
    131          1           0      -13.355018    1.720048   -1.669620
    132          1           0      -15.902644    1.074358   -0.249528
    133          1           0      -15.853780    0.115195   -1.628173
    134          1           0      -15.404679    1.992927   -3.098105
    135          1           0      -17.978735    3.030294   -2.361148
    136          1           0      -17.853025    1.633994   -1.358495
    137          1           0      -17.698647    1.459380   -3.163590
    138          1           0      -14.517932    3.573086   -1.789817
    139          1           0      -15.908932    3.555521   -0.658391
    140          1           0      -16.125943    4.296179   -2.255700
 ---------------------------------------------------------------------

 SCF Done:  E(RZINDO/S) =  -474.421004980     A.U. after   19 cycles

 Excitation energies and oscillator strengths:

 Excited State   1:      Singlet-A      1.2409 eV  999.13 nm  f=0.5927  <S**2>=0.000
     175 ->178        -0.17358
     176 ->177         0.66663
 This state for optimization and/or second-order correction.
 Total Energy, E(CIS/TDA) =  -474.375402178
 Copying the excited state density for this state as the 1-particle RhoCI density.

 Excited State   2:      Singlet-A      1.8924 eV  655.16 nm  f=0.0998  <S**2>=0.000
     175 ->177         0.58287
     176 ->178         0.36144

 Excited State   3:      Singlet-A      2.8403 eV  436.53 nm  f=0.0045  <S**2>=0.000
     168 ->177         0.35883
     168 ->178        -0.21321
     168 ->179        -0.38404
     168 ->181        -0.11900
     168 ->182         0.18867
     168 ->185        -0.20680
     168 ->188         0.10575

 Excited State   4:      Singlet-A      3.0026 eV  412.93 nm  f=0.7502  <S**2>=0.000
     171 ->177        -0.20366
     173 ->177        -0.10544
     175 ->177        -0.28889
     176 ->178         0.53710
     176 ->179         0.17700

 Excited State   5:      Singlet-A      3.1117 eV  398.45 nm  f=0.0023  <S**2>=0.000
     170 ->177         0.26492
     170 ->179         0.29810
     170 ->181        -0.30233
     170 ->182         0.32024
     170 ->185         0.20183
     170 ->187         0.18518
     170 ->203        -0.10834

 The electronic state is 1-A.
 Alpha  occ. eigenvalues --   -1.83927  -1.82268  -1.81375  -1.72961  -1.70922
 Alpha  occ. eigenvalues --   -1.69286  -1.66251  -1.63463  -1.57449  -1.57066
 Alpha  occ. eigenvalues --   -1.55984  -1.52789  -1.49466  -1.48485  -1.47264
 Alpha  occ. eigenvalues --   -1.44063  -1.41331  -1.40558  -1.39780  -1.39500
 Alpha  occ. eigenvalues --   -1.35301  -1.32856  -1.32522  -1.32160  -1.28657
 Alpha  occ. eigenvalues --   -1.28110  -1.25181  -1.20775  -1.19707  -1.18276
 Alpha  occ. eigenvalues --   -1.16569  -1.15915  -1.14946  -1.14014  -1.13089
 Alpha  occ. eigenvalues --   -1.12927  -1.12381  -1.11068  -1.04198  -1.03677
 Alpha  occ. eigenvalues --   -1.03144  -1.00745  -0.98630  -0.97567  -0.96861
 Alpha  occ. eigenvalues --   -0.95611  -0.95188  -0.93932  -0.93182  -0.93072
 Alpha  occ. eigenvalues --   -0.91200  -0.90942  -0.89968  -0.88632  -0.86857
 Alpha  occ. eigenvalues --   -0.86375  -0.86192  -0.83394  -0.82491  -0.80892
 Alpha  occ. eigenvalues --   -0.79715  -0.78972  -0.77026  -0.76996  -0.76806
 Alpha  occ. eigenvalues --   -0.75096  -0.74374  -0.73943  -0.73783  -0.73445
 Alpha  occ. eigenvalues --   -0.73207  -0.72331  -0.71683  -0.71450  -0.70159
 Alpha  occ. eigenvalues --   -0.69992  -0.69324  -0.68958  -0.68248  -0.68015
 Alpha  occ. eigenvalues --   -0.67523  -0.67132  -0.66584  -0.66139  -0.65802
 Alpha  occ. eigenvalues --   -0.65154  -0.64626  -0.64026  -0.63793  -0.63518
 Alpha  occ. eigenvalues --   -0.62871  -0.62729  -0.62143  -0.61894  -0.61561
 Alpha  occ. eigenvalues --   -0.61043  -0.60755  -0.60476  -0.60063  -0.59585
 Alpha  occ. eigenvalues --   -0.59473  -0.59429  -0.58939  -0.58575  -0.58373
 Alpha  occ. eigenvalues --   -0.57825  -0.57008  -0.56472  -0.56436  -0.56282
 Alpha  occ. eigenvalues --   -0.56178  -0.55677  -0.55481  -0.55215  -0.54846
 Alpha  occ. eigenvalues --   -0.54807  -0.54438  -0.53630  -0.53103  -0.52570
 Alpha  occ. eigenvalues --   -0.52401  -0.52394  -0.51962  -0.51530  -0.51335
 Alpha  occ. eigenvalues --   -0.50970  -0.50597  -0.50554  -0.50424  -0.50261
 Alpha  occ. eigenvalues --   -0.49846  -0.49481  -0.49345  -0.49138  -0.48825
 Alpha  occ. eigenvalues --   -0.48330  -0.47973  -0.47891  -0.47672  -0.47470
 Alpha  occ. eigenvalues --   -0.47019  -0.46998  -0.46542  -0.46443  -0.46202
 Alpha  occ. eigenvalues --   -0.45972  -0.45788  -0.45691  -0.45446  -0.45263
 Alpha  occ. eigenvalues --   -0.44924  -0.44815  -0.44608  -0.44557  -0.43921
 Alpha  occ. eigenvalues --   -0.43717  -0.43526  -0.42973  -0.42923  -0.42073
 Alpha  occ. eigenvalues --   -0.41891  -0.41266  -0.40313  -0.38986  -0.38634
 Alpha  occ. eigenvalues --   -0.37554  -0.36846  -0.35504  -0.34939  -0.34393
 Alpha  occ. eigenvalues --   -0.33273  -0.32518  -0.32372  -0.31766  -0.26386
 Alpha  occ. eigenvalues --   -0.21821
 Alpha virt. eigenvalues --   -0.08709  -0.01618  -0.00368   0.00844   0.01595
 Alpha virt. eigenvalues --    0.01694   0.03106   0.04159   0.04973   0.05454
 Alpha virt. eigenvalues --    0.06428   0.06532   0.07519   0.07871   0.08463

 Mulliken charges:
               1
     1  Mg   0.431755
     2  C   -0.032195
     3  C   -0.093373
     4  C   -0.080590
     5  C   -0.060674
     6  N   -0.274034
     7  C    0.105034
     8  C   -0.005178
     9  C    0.000074
    10  C    0.165336
    11  C   -0.053603
    12  C   -0.027135
    13  C    0.020873
    14  C    0.465646
    15  O   -0.539082
    16  O   -0.276203
    17  N   -0.324514
    18  C    0.126343
    19  C    0.033276
    20  C   -0.053273
    21  C    0.152516
    22  C   -0.038692
    23  C    0.309864
    24  O   -0.538936
    25  C   -0.034802
    26  N   -0.267408
    27  C    0.183725
    28  C    0.002385
    29  C    0.002896
    30  C    0.094820
    31  C   -0.048755
    32  C   -0.026683
    33  C   -0.054868
    34  N   -0.325094
    35  C    0.081042
    36  C    0.007043
    37  C   -0.056059
    38  C    0.098003
    39  C   -0.040354
    40  C    0.339896
    41  O   -0.506374
    42  C    0.054305
    43  C    0.492252
    44  O   -0.490252
    45  O   -0.290900
    46  C    0.073301
    47  C    0.114667
    48  C   -0.081268
    49  C   -0.005954
    50  C   -0.043877
    51  C   -0.026752
    52  C   -0.034733
    53  C   -0.030376
    54  C   -0.009110
    55  C   -0.057473
    56  C   -0.041991
    57  C   -0.038070
    58  C   -0.034118
    59  C   -0.016000
    60  C   -0.067112
    61  C   -0.033428
    62  C   -0.034972
    63  C   -0.032484
    64  C   -0.006507
    65  C   -0.059340
    66  C   -0.053504
    67  H    0.008661
    68  H    0.046990
    69  H    0.029718
    70  H    0.047513
    71  H    0.027015
    72  H    0.044026
    73  H    0.027073
    74  H    0.010102
    75  H    0.015311
    76  H    0.025888
    77  H    0.036765
    78  H    0.050796
    79  H    0.031120
    80  H    0.032948
    81  H    0.027708
    82  H    0.027984
    83  H    0.054399
    84  H    0.036088
    85  H    0.036763
    86  H    0.034256
    87  H    0.020739
    88  H    0.025438
    89  H    0.031216
    90  H    0.018715
    91  H    0.022358
    92  H    0.024919
    93  H    0.012158
    94  H    0.019658
    95  H    0.035473
    96  H    0.036050
    97  H    0.017978
    98  H    0.048637
    99  H    0.032139
   100  H    0.037902
   101  H    0.051942
   102  H    0.058056
   103  H    0.038020
   104  H    0.032357
   105  H    0.017296
   106  H    0.024477
   107  H    0.034800
   108  H    0.017102
   109  H    0.015926
   110  H    0.023762
   111  H    0.016855
   112  H    0.030720
   113  H    0.012559
   114  H    0.025699
   115  H    0.020755
   116  H    0.010191
   117  H    0.019464
   118  H    0.024947
   119  H    0.004778
   120  H    0.023062
   121  H    0.017170
   122  H    0.016018
   123  H    0.018750
   124  H    0.023414
   125  H    0.007781
   126  H    0.021582
   127  H    0.025602
   128  H    0.026815
   129  H    0.010814
   130  H    0.010379
   131  H    0.020676
   132  H    0.013645
   133  H    0.016255
   134  H    0.017183
   135  H    0.018108
   136  H    0.019619
   137  H    0.017821
   138  H    0.015288
   139  H    0.016855
   140  H    0.019996
 Sum of Mulliken charges =  -0.00000

 Dipole moment (field-independent basis, Debye):
    X=             -6.5148    Y=              6.0512    Z=              6.1007  Tot=             10.7832
 N-N= 4.253347363196D+03 E-N= 0.000000000000D+00  KE=-9.181469638319D+03
 Leave Link  601 at Fri Apr 29 00:51:49 2022, MaxMem=  6710886400 cpu:               0.8 elap:               0.1
 (Enter /sw/apps/gaussian-16.0/g16/l9999.exe)
 1\1\GINC-BP1-COMPUTE161\SP\RZINDO CIS\STO-3G\C55H74Mg1N4O6\OF15641\29-
 Apr-2022\0\\#p ZINDO=(nstates=5)\\step_1751_chromophore_6 ZINDO\\0,1\M
 g,0,17.348,-1.664,27.04\C,0,16.683,0.509,29.698\C,0,19.165,-3.503,29.1
 79\C,0,18.186,-3.566,24.447\C,0,15.881,0.719,24.815\N,0,18.04,-1.423,2
 9.141\C,0,17.454,-0.568,30.051\C,0,17.736,-1.03,31.488\C,0,18.736,-2.2
 09,31.338\C,0,18.645,-2.394,29.806\C,0,20.18,-1.97,31.946\C,0,16.47,-1
 .45,32.438\C,0,16.57,-1.529,33.981\C,0,17.944,-1.176,34.527\O,0,18.386

 Normal termination of Gaussian 16 at Fri Apr 29 00:51:49 2022.
