 Gaussian 16, Revision A.03,
 Gaussian 16:  ES64L-G16RevA.03 25-Dec-2016

 ------------------------------
 #p blyp/Def2SVP td=(nstates=5)
 ------------------------------

 --------------------------------------------------
 step_551_chromophore_23 TDDFT with blyp functional
 --------------------------------------------------
 Symbolic Z-matrix:
 Charge =  0 Multiplicity = 1

                         Standard orientation:
 ---------------------------------------------------------------------
 Center     Atomic      Atomic             Coordinates (Angstroms)
 Number     Number       Type             X           Y           Z
 ---------------------------------------------------------------------
      1         12           0        4.741541    0.215213   -0.333107
      2          6           0        2.839009   -2.681278   -0.101061
      3          6           0        2.323736    1.543323   -2.431289
      4          6           0        6.321257    3.342673   -0.027316
      5          6           0        6.713956   -0.934527    2.406609
      6          7           0        2.787687   -0.472793   -1.131358
      7          6           0        2.217985   -1.683261   -0.906357
      8          6           0        0.918233   -1.949834   -1.721901
      9          6           0        0.777971   -0.537043   -2.483516
     10          6           0        1.999203    0.245662   -2.016956
     11          6           0        0.639923   -0.667731   -4.055749
     12          6           0       -0.215795   -2.412844   -0.759518
     13          6           0       -1.097542   -3.600967   -1.399976
     14          6           0       -2.234733   -3.203834   -2.265936
     15          8           0       -2.128796   -2.861102   -3.425892
     16          8           0       -3.388638   -3.279076   -1.500281
     17          7           0        4.537681    2.131330   -1.341298
     18          6           0        3.449970    2.397848   -2.153150
     19          6           0        3.723423    3.763340   -2.704008
     20          6           0        4.675710    4.335429   -1.870954
     21          6           0        5.274927    3.216959   -1.031873
     22          6           0        2.888069    4.314629   -3.886335
     23          6           0        4.988507    5.762394   -1.960312
     24          8           0        4.275252    6.506097   -2.594973
     25          6           0        6.250978    6.364139   -1.371005
     26          7           0        6.194032    1.050872    0.980806
     27          6           0        6.733197    2.351427    0.875341
     28          6           0        7.942625    2.572991    1.873120
     29          6           0        7.788061    1.305698    2.738530
     30          6           0        6.881022    0.370834    1.960951
     31          6           0        9.275885    2.734791    1.180382
     32          6           0        7.215958    1.637266    4.123988
     33          6           0        7.865700    1.015307    5.414203
     34          7           0        4.860083   -1.473403    0.844236
     35          6           0        5.649867   -1.777595    1.927229
     36          6           0        5.340138   -3.123749    2.352979
     37          6           0        4.233030   -3.540449    1.544113
     38          6           0        4.000349   -2.478630    0.713170
     39          6           0        6.059858   -3.909936    3.396812
     40          6           0        3.284627   -4.488244    1.310522
     41          8           0        3.111813   -5.571900    1.843790
     42          6           0        2.430652   -4.066035    0.188217
     43          6           0        2.843567   -4.930387   -0.998279
     44          8           0        3.958408   -5.166957   -1.438805
     45          8           0        1.713897   -5.366270   -1.647742
     46          6           0        1.827221   -5.784776   -3.056800
     47          6           0       -4.644131   -3.103520   -2.224477
     48          6           0       -5.866966   -2.760198   -1.311169
     49          6           0       -6.088746   -1.626321   -0.600089
     50          6           0       -5.100733   -0.499587   -0.603545
     51          6           0       -7.326355   -1.445096    0.272241
     52          6           0       -8.489280   -0.695481   -0.322987
     53          6           0       -9.861990   -1.264217    0.192775
     54          6           0      -10.839672   -0.262110    0.967262
     55          6           0      -12.390658   -0.627323    0.879002
     56          6           0      -10.286898   -0.112240    2.447953
     57          6           0       -9.873149    1.325811    2.812971
     58          6           0       -8.639212    1.282085    3.820260
     59          6           0       -7.300807    1.603203    3.153854
     60          6           0       -6.129174    1.112218    4.068776
     61          6           0       -7.089066    3.107581    2.846292
     62          6           0       -6.554493    3.414389    1.409162
     63          6           0       -7.579773    4.242062    0.471410
     64          6           0       -7.434232    3.756565   -1.016789
     65          6           0       -6.383243    4.591116   -1.694378
     66          6           0       -8.751578    3.740627   -1.748294
     67          1           0        1.549799    1.992185   -3.057488
     68          1           0        6.917395    4.254786    0.048282
     69          1           0        7.268125   -1.104949    3.332258
     70          1           0        1.170833   -2.760365   -2.405502
     71          1           0       -0.042385   -0.008713   -1.998761
     72          1           0        1.640058   -0.540559   -4.470888
     73          1           0       -0.080612    0.076405   -4.393136
     74          1           0        0.292328   -1.621099   -4.454377
     75          1           0       -0.913323   -1.601147   -0.555424
     76          1           0        0.110142   -2.477228    0.278480
     77          1           0       -1.422099   -4.297304   -0.627192
     78          1           0       -0.439923   -4.112786   -2.102433
     79          1           0        2.416809    5.178475   -3.416180
     80          1           0        2.028837    3.723144   -4.204329
     81          1           0        3.569798    4.621316   -4.679132
     82          1           0        7.115082    6.006130   -1.930506
     83          1           0        6.261085    6.121677   -0.307618
     84          1           0        6.142254    7.445248   -1.465408
     85          1           0        7.765983    3.392626    2.570042
     86          1           0        8.791798    0.918440    2.916727
     87          1           0        9.300118    2.333443    0.167155
     88          1           0       10.111767    2.356919    1.769307
     89          1           0        9.675366    3.749774    1.200142
     90          1           0        6.158115    1.378073    4.078922
     91          1           0        7.163349    2.709091    4.312003
     92          1           0        8.269837    1.937101    5.832098
     93          1           0        8.717073    0.335252    5.385059
     94          1           0        7.025628    0.679146    6.022241
     95          1           0        5.762007   -4.951007    3.274955
     96          1           0        5.853760   -3.581830    4.415515
     97          1           0        7.142696   -3.799849    3.339782
     98          1           0        1.408718   -4.203135    0.540922
     99          1           0        0.932929   -5.396496   -3.544084
    100          1           0        1.734341   -6.863262   -3.184404
    101          1           0        2.797613   -5.536464   -3.487386
    102          1           0       -4.968731   -3.963360   -2.811171
    103          1           0       -4.512398   -2.312953   -2.962763
    104          1           0       -6.630368   -3.536028   -1.253203
    105          1           0       -5.585121    0.357330   -1.071335
    106          1           0       -4.214047   -0.799097   -1.161686
    107          1           0       -4.746593   -0.264722    0.400018
    108          1           0       -6.997291   -0.905017    1.159815
    109          1           0       -7.550215   -2.428890    0.684733
    110          1           0       -8.408327   -0.791106   -1.405790
    111          1           0       -8.386780    0.337198    0.010929
    112          1           0       -9.664503   -2.136412    0.816151
    113          1           0      -10.371052   -1.585489   -0.715726
    114          1           0      -10.773257    0.739419    0.542216
    115          1           0      -12.739603   -1.131622    1.780158
    116          1           0      -12.582254   -1.237936   -0.003519
    117          1           0      -12.919431    0.308993    0.702060
    118          1           0       -9.523066   -0.849239    2.696180
    119          1           0      -11.153517   -0.278201    3.088262
    120          1           0      -10.764094    1.680316    3.330635
    121          1           0       -9.738220    2.016759    1.980947
    122          1           0       -8.419320    0.261348    4.131545
    123          1           0       -8.633440    1.827247    4.764616
    124          1           0       -7.165740    1.145020    2.174455
    125          1           0       -6.393355    0.170947    4.550375
    126          1           0       -5.945568    1.902741    4.796573
    127          1           0       -5.219132    0.914874    3.500263
    128          1           0       -6.428373    3.516547    3.610512
    129          1           0       -8.060343    3.575956    3.005516
    130          1           0       -6.301363    2.455053    0.958760
    131          1           0       -5.635921    3.982180    1.554299
    132          1           0       -7.395117    5.304696    0.627631
    133          1           0       -8.592636    3.956606    0.754879
    134          1           0       -7.046466    2.739227   -0.955352
    135          1           0       -5.798645    5.177134   -0.983221
    136          1           0       -6.809144    5.347678   -2.352005
    137          1           0       -5.809535    3.971112   -2.383870
    138          1           0       -8.698658    4.184508   -2.742711
    139          1           0       -9.552286    4.241484   -1.204334
    140          1           0       -9.130087    2.732813   -1.917301
 ---------------------------------------------------------------------

 SCF Done:  E(RB-LYP) =  -3007.36624479     A.U. after   21 cycles

 Excitation energies and oscillator strengths:

 Excited State   1:      Singlet-A      1.6616 eV  746.17 nm  f=0.0071  <S**2>=0.000
     243 -> 247        0.49681
     245 -> 247        0.49800
 This state for optimization and/or second-order correction.
 Total Energy, E(TD-HF/TD-DFT) =  -3007.30518214
 Copying the excited state density for this state as the 1-particle RhoCI density.

 Excited State   2:      Singlet-A      1.6799 eV  738.04 nm  f=0.0011  <S**2>=0.000
     244 -> 247        0.70537

 Excited State   3:      Singlet-A      1.7942 eV  691.03 nm  f=0.3052  <S**2>=0.000
     245 -> 248        0.17665
     246 -> 247        0.69275
     246 <- 247       -0.16135

 Excited State   4:      Singlet-A      2.0638 eV  600.75 nm  f=0.0852  <S**2>=0.000
     243 -> 247        0.47038
     245 -> 247       -0.44669
     246 -> 248        0.25707

 Excited State   5:      Singlet-A      2.3986 eV  516.91 nm  f=0.0082  <S**2>=0.000
     242 -> 247        0.69514

 The electronic state is 1-A.
 Alpha  occ. eigenvalues --  -46.27824 -18.82579 -18.82237 -18.77937 -18.77184
 Alpha  occ. eigenvalues --  -18.74749 -18.74114 -14.04055 -14.03524 -14.01800
 Alpha  occ. eigenvalues --  -14.01024 -10.04595 -10.04459  -9.98772  -9.98088
 Alpha  occ. eigenvalues --   -9.98088  -9.97420  -9.97144  -9.97115  -9.97071
 Alpha  occ. eigenvalues --   -9.97042  -9.96444  -9.96289  -9.95646  -9.94929
 Alpha  occ. eigenvalues --   -9.94809  -9.94436  -9.94217  -9.94025  -9.93912
 Alpha  occ. eigenvalues --   -9.93805  -9.93744  -9.93563  -9.93449  -9.93443
 Alpha  occ. eigenvalues --   -9.93400  -9.93219  -9.93085  -9.92849  -9.92753
 Alpha  occ. eigenvalues --   -9.92752  -9.92522  -9.92518  -9.92402  -9.92162
 Alpha  occ. eigenvalues --   -9.92140  -9.92138  -9.92093  -9.91955  -9.91916
 Alpha  occ. eigenvalues --   -9.91841  -9.91833  -9.91786  -9.91745  -9.91720
 Alpha  occ. eigenvalues --   -9.91677  -9.91590  -9.91517  -9.91468  -9.91465
 Alpha  occ. eigenvalues --   -9.91377  -9.91002  -9.90739  -9.90654  -9.90547
 Alpha  occ. eigenvalues --   -9.89820  -2.92335  -1.72765  -1.72201  -1.72058
 Alpha  occ. eigenvalues --   -0.98020  -0.97893  -0.91890  -0.91152  -0.90944
 Alpha  occ. eigenvalues --   -0.89706  -0.87063  -0.85871  -0.85279  -0.84483
 Alpha  occ. eigenvalues --   -0.77312  -0.73683  -0.72928  -0.72605  -0.72400
 Alpha  occ. eigenvalues --   -0.71877  -0.71724  -0.70967  -0.70817  -0.69755
 Alpha  occ. eigenvalues --   -0.69207  -0.69060  -0.68075  -0.67754  -0.67330
 Alpha  occ. eigenvalues --   -0.66258  -0.65981  -0.65160  -0.64994  -0.64451
 Alpha  occ. eigenvalues --   -0.64086  -0.62557  -0.62394  -0.61700  -0.61175
 Alpha  occ. eigenvalues --   -0.60545  -0.60400  -0.59931  -0.59184  -0.58942
 Alpha  occ. eigenvalues --   -0.58497  -0.57753  -0.56868  -0.56234  -0.54667
 Alpha  occ. eigenvalues --   -0.54320  -0.54003  -0.52863  -0.52442  -0.51834
 Alpha  occ. eigenvalues --   -0.51653  -0.51273  -0.51044  -0.50463  -0.50348
 Alpha  occ. eigenvalues --   -0.49783  -0.49537  -0.49397  -0.48639  -0.46568
 Alpha  occ. eigenvalues --   -0.46227  -0.46027  -0.45705  -0.45672  -0.45273
 Alpha  occ. eigenvalues --   -0.43957  -0.43474  -0.43245  -0.42837  -0.42124
 Alpha  occ. eigenvalues --   -0.41972  -0.41816  -0.41755  -0.41498  -0.41292
 Alpha  occ. eigenvalues --   -0.41090  -0.40856  -0.40394  -0.39946  -0.39753
 Alpha  occ. eigenvalues --   -0.39710  -0.39592  -0.39482  -0.39408  -0.39152
 Alpha  occ. eigenvalues --   -0.39098  -0.38862  -0.38758  -0.38426  -0.38299
 Alpha  occ. eigenvalues --   -0.38029  -0.37835  -0.37720  -0.37523  -0.37404
 Alpha  occ. eigenvalues --   -0.37219  -0.37122  -0.36987  -0.36753  -0.36404
 Alpha  occ. eigenvalues --   -0.36274  -0.35935  -0.35799  -0.35617  -0.35227
 Alpha  occ. eigenvalues --   -0.35040  -0.35002  -0.34855  -0.34692  -0.34533
 Alpha  occ. eigenvalues --   -0.34466  -0.34387  -0.34323  -0.34220  -0.33904
 Alpha  occ. eigenvalues --   -0.33846  -0.33785  -0.33741  -0.33367  -0.33297
 Alpha  occ. eigenvalues --   -0.32909  -0.32736  -0.32555  -0.32524  -0.32459
 Alpha  occ. eigenvalues --   -0.32276  -0.32246  -0.32120  -0.31740  -0.31591
 Alpha  occ. eigenvalues --   -0.31508  -0.31336  -0.30983  -0.30928  -0.30729
 Alpha  occ. eigenvalues --   -0.30646  -0.30521  -0.30389  -0.30043  -0.29801
 Alpha  occ. eigenvalues --   -0.29751  -0.29604  -0.29325  -0.29194  -0.29007
 Alpha  occ. eigenvalues --   -0.28884  -0.28584  -0.28337  -0.28078  -0.27847
 Alpha  occ. eigenvalues --   -0.27661  -0.27431  -0.26848  -0.26641  -0.26589
 Alpha  occ. eigenvalues --   -0.26533  -0.26226  -0.26024  -0.25683  -0.25595
 Alpha  occ. eigenvalues --   -0.25104  -0.25085  -0.24802  -0.24699  -0.23840
 Alpha  occ. eigenvalues --   -0.23542  -0.23162  -0.22934  -0.22060  -0.20834
 Alpha  occ. eigenvalues --   -0.20372  -0.20219  -0.18149  -0.17994  -0.17364
 Alpha  occ. eigenvalues --   -0.15980
 Alpha virt. eigenvalues --   -0.11877  -0.06868  -0.05956  -0.04586  -0.03771
 Alpha virt. eigenvalues --   -0.02991  -0.02856  -0.02402  -0.01803   0.00371
 Alpha virt. eigenvalues --    0.00679   0.01145   0.01479   0.02115   0.02455

 Mulliken charges:
               1
     1  Mg   0.703969
     2  C   -0.045991
     3  C   -0.027100
     4  C   -0.038683
     5  C   -0.071558
     6  N   -0.208121
     7  C   -0.115993
     8  C    0.018013
     9  C    0.080499
    10  C   -0.022876
    11  C    0.120731
    12  C    0.113765
    13  C    0.165694
    14  C    0.067142
    15  O   -0.182107
    16  O   -0.274934
    17  N   -0.259213
    18  C    0.108037
    19  C   -0.139229
    20  C    0.027163
    21  C    0.137114
    22  C    0.193163
    23  C   -0.136605
    24  O   -0.160200
    25  C    0.137341
    26  N   -0.255052
    27  C    0.006104
    28  C    0.031406
    29  C    0.019985
    30  C    0.047498
    31  C    0.141012
    32  C    0.053952
    33  C    0.066922
    34  N   -0.245961
    35  C    0.125244
    36  C   -0.192359
    37  C    0.195431
    38  C    0.081616
    39  C    0.175227
    40  C   -0.197678
    41  O   -0.140003
    42  C    0.155637
    43  C    0.118945
    44  O   -0.168387
    45  O   -0.276085
    46  C    0.201542
    47  C    0.301744
    48  C   -0.102806
    49  C   -0.167080
    50  C    0.145471
    51  C    0.107099
    52  C    0.105032
    53  C    0.087649
    54  C   -0.090663
    55  C    0.101282
    56  C    0.092095
    57  C    0.090225
    58  C    0.106084
    59  C   -0.125908
    60  C    0.092083
    61  C    0.108381
    62  C    0.051175
    63  C    0.082730
    64  C   -0.100079
    65  C    0.117687
    66  C    0.121018
    67  H   -0.064344
    68  H   -0.061833
    69  H   -0.049104
    70  H   -0.011095
    71  H   -0.024140
    72  H   -0.005675
    73  H    0.001307
    74  H    0.008801
    75  H   -0.037189
    76  H   -0.013798
    77  H   -0.005666
    78  H   -0.005501
    79  H    0.012260
    80  H   -0.019767
    81  H    0.012786
    82  H    0.015928
    83  H    0.009311
    84  H   -0.015427
    85  H   -0.033243
    86  H   -0.042425
    87  H    0.007029
    88  H   -0.025583
    89  H   -0.022388
    90  H   -0.019137
    91  H   -0.028166
    92  H   -0.011277
    93  H    0.006160
    94  H    0.002593
    95  H    0.012625
    96  H   -0.007613
    97  H   -0.012642
    98  H   -0.008303
    99  H    0.020200
   100  H    0.012991
   101  H    0.029704
   102  H   -0.009532
   103  H   -0.005271
   104  H   -0.042150
   105  H    0.009483
   106  H   -0.017183
   107  H    0.003825
   108  H   -0.035207
   109  H   -0.028515
   110  H   -0.021190
   111  H   -0.007715
   112  H   -0.022644
   113  H   -0.038998
   114  H   -0.035042
   115  H   -0.002915
   116  H   -0.018583
   117  H   -0.013537
   118  H   -0.015612
   119  H   -0.037633
   120  H   -0.035072
   121  H   -0.012073
   122  H   -0.039641
   123  H   -0.036142
   124  H   -0.034503
   125  H   -0.019424
   126  H   -0.011046
   127  H   -0.017453
   128  H   -0.044639
   129  H   -0.040235
   130  H   -0.026683
   131  H   -0.028220
   132  H   -0.016832
   133  H   -0.029196
   134  H   -0.025761
   135  H   -0.014353
   136  H   -0.030135
   137  H   -0.019782
   138  H   -0.024852
   139  H   -0.019859
   140  H   -0.021294
 Sum of Mulliken charges =  -0.00000

 Dipole moment (field-independent basis, Debye):
    X=             -1.0432    Y=              2.2732    Z=              1.1085  Tot=              2.7358
 Quadrupole moment (field-independent basis, Debye-Ang):
   XX=           -357.0799   YY=           -453.4933   ZZ=           -400.0787
   XY=             21.1714   XZ=             15.4154   YZ=             27.8051

 Normal termination of Gaussian 16 at Sat Apr 30 04:06:05 2022.
