 Gaussian 16, Revision A.03,
 Gaussian 16:  ES64L-G16RevA.03 25-Dec-2016

 -----------------------------------
 #p cam-b3lyp/Def2SVP td=(nstates=5)
 -----------------------------------

 -------------------------------------------------------
 step_551_chromophore_23 TDDFT with cam-b3lyp functional
 -------------------------------------------------------
 Symbolic Z-matrix:
 Charge =  0 Multiplicity = 1

                         Standard orientation:
 ---------------------------------------------------------------------
 Center     Atomic      Atomic             Coordinates (Angstroms)
 Number     Number       Type             X           Y           Z
 ---------------------------------------------------------------------
      1         12           0        4.741541    0.215213   -0.333107
      2          6           0        2.839009   -2.681278   -0.101061
      3          6           0        2.323736    1.543323   -2.431289
      4          6           0        6.321257    3.342673   -0.027316
      5          6           0        6.713956   -0.934527    2.406609
      6          7           0        2.787687   -0.472793   -1.131358
      7          6           0        2.217985   -1.683261   -0.906357
      8          6           0        0.918233   -1.949834   -1.721901
      9          6           0        0.777971   -0.537043   -2.483516
     10          6           0        1.999203    0.245662   -2.016956
     11          6           0        0.639923   -0.667731   -4.055749
     12          6           0       -0.215795   -2.412844   -0.759518
     13          6           0       -1.097542   -3.600967   -1.399976
     14          6           0       -2.234733   -3.203834   -2.265936
     15          8           0       -2.128796   -2.861102   -3.425892
     16          8           0       -3.388638   -3.279076   -1.500281
     17          7           0        4.537681    2.131330   -1.341298
     18          6           0        3.449970    2.397848   -2.153150
     19          6           0        3.723423    3.763340   -2.704008
     20          6           0        4.675710    4.335429   -1.870954
     21          6           0        5.274927    3.216959   -1.031873
     22          6           0        2.888069    4.314629   -3.886335
     23          6           0        4.988507    5.762394   -1.960312
     24          8           0        4.275252    6.506097   -2.594973
     25          6           0        6.250978    6.364139   -1.371005
     26          7           0        6.194032    1.050872    0.980806
     27          6           0        6.733197    2.351427    0.875341
     28          6           0        7.942625    2.572991    1.873120
     29          6           0        7.788061    1.305698    2.738530
     30          6           0        6.881022    0.370834    1.960951
     31          6           0        9.275885    2.734791    1.180382
     32          6           0        7.215958    1.637266    4.123988
     33          6           0        7.865700    1.015307    5.414203
     34          7           0        4.860083   -1.473403    0.844236
     35          6           0        5.649867   -1.777595    1.927229
     36          6           0        5.340138   -3.123749    2.352979
     37          6           0        4.233030   -3.540449    1.544113
     38          6           0        4.000349   -2.478630    0.713170
     39          6           0        6.059858   -3.909936    3.396812
     40          6           0        3.284627   -4.488244    1.310522
     41          8           0        3.111813   -5.571900    1.843790
     42          6           0        2.430652   -4.066035    0.188217
     43          6           0        2.843567   -4.930387   -0.998279
     44          8           0        3.958408   -5.166957   -1.438805
     45          8           0        1.713897   -5.366270   -1.647742
     46          6           0        1.827221   -5.784776   -3.056800
     47          6           0       -4.644131   -3.103520   -2.224477
     48          6           0       -5.866966   -2.760198   -1.311169
     49          6           0       -6.088746   -1.626321   -0.600089
     50          6           0       -5.100733   -0.499587   -0.603545
     51          6           0       -7.326355   -1.445096    0.272241
     52          6           0       -8.489280   -0.695481   -0.322987
     53          6           0       -9.861990   -1.264217    0.192775
     54          6           0      -10.839672   -0.262110    0.967262
     55          6           0      -12.390658   -0.627323    0.879002
     56          6           0      -10.286898   -0.112240    2.447953
     57          6           0       -9.873149    1.325811    2.812971
     58          6           0       -8.639212    1.282085    3.820260
     59          6           0       -7.300807    1.603203    3.153854
     60          6           0       -6.129174    1.112218    4.068776
     61          6           0       -7.089066    3.107581    2.846292
     62          6           0       -6.554493    3.414389    1.409162
     63          6           0       -7.579773    4.242062    0.471410
     64          6           0       -7.434232    3.756565   -1.016789
     65          6           0       -6.383243    4.591116   -1.694378
     66          6           0       -8.751578    3.740627   -1.748294
     67          1           0        1.549799    1.992185   -3.057488
     68          1           0        6.917395    4.254786    0.048282
     69          1           0        7.268125   -1.104949    3.332258
     70          1           0        1.170833   -2.760365   -2.405502
     71          1           0       -0.042385   -0.008713   -1.998761
     72          1           0        1.640058   -0.540559   -4.470888
     73          1           0       -0.080612    0.076405   -4.393136
     74          1           0        0.292328   -1.621099   -4.454377
     75          1           0       -0.913323   -1.601147   -0.555424
     76          1           0        0.110142   -2.477228    0.278480
     77          1           0       -1.422099   -4.297304   -0.627192
     78          1           0       -0.439923   -4.112786   -2.102433
     79          1           0        2.416809    5.178475   -3.416180
     80          1           0        2.028837    3.723144   -4.204329
     81          1           0        3.569798    4.621316   -4.679132
     82          1           0        7.115082    6.006130   -1.930506
     83          1           0        6.261085    6.121677   -0.307618
     84          1           0        6.142254    7.445248   -1.465408
     85          1           0        7.765983    3.392626    2.570042
     86          1           0        8.791798    0.918440    2.916727
     87          1           0        9.300118    2.333443    0.167155
     88          1           0       10.111767    2.356919    1.769307
     89          1           0        9.675366    3.749774    1.200142
     90          1           0        6.158115    1.378073    4.078922
     91          1           0        7.163349    2.709091    4.312003
     92          1           0        8.269837    1.937101    5.832098
     93          1           0        8.717073    0.335252    5.385059
     94          1           0        7.025628    0.679146    6.022241
     95          1           0        5.762007   -4.951007    3.274955
     96          1           0        5.853760   -3.581830    4.415515
     97          1           0        7.142696   -3.799849    3.339782
     98          1           0        1.408718   -4.203135    0.540922
     99          1           0        0.932929   -5.396496   -3.544084
    100          1           0        1.734341   -6.863262   -3.184404
    101          1           0        2.797613   -5.536464   -3.487386
    102          1           0       -4.968731   -3.963360   -2.811171
    103          1           0       -4.512398   -2.312953   -2.962763
    104          1           0       -6.630368   -3.536028   -1.253203
    105          1           0       -5.585121    0.357330   -1.071335
    106          1           0       -4.214047   -0.799097   -1.161686
    107          1           0       -4.746593   -0.264722    0.400018
    108          1           0       -6.997291   -0.905017    1.159815
    109          1           0       -7.550215   -2.428890    0.684733
    110          1           0       -8.408327   -0.791106   -1.405790
    111          1           0       -8.386780    0.337198    0.010929
    112          1           0       -9.664503   -2.136412    0.816151
    113          1           0      -10.371052   -1.585489   -0.715726
    114          1           0      -10.773257    0.739419    0.542216
    115          1           0      -12.739603   -1.131622    1.780158
    116          1           0      -12.582254   -1.237936   -0.003519
    117          1           0      -12.919431    0.308993    0.702060
    118          1           0       -9.523066   -0.849239    2.696180
    119          1           0      -11.153517   -0.278201    3.088262
    120          1           0      -10.764094    1.680316    3.330635
    121          1           0       -9.738220    2.016759    1.980947
    122          1           0       -8.419320    0.261348    4.131545
    123          1           0       -8.633440    1.827247    4.764616
    124          1           0       -7.165740    1.145020    2.174455
    125          1           0       -6.393355    0.170947    4.550375
    126          1           0       -5.945568    1.902741    4.796573
    127          1           0       -5.219132    0.914874    3.500263
    128          1           0       -6.428373    3.516547    3.610512
    129          1           0       -8.060343    3.575956    3.005516
    130          1           0       -6.301363    2.455053    0.958760
    131          1           0       -5.635921    3.982180    1.554299
    132          1           0       -7.395117    5.304696    0.627631
    133          1           0       -8.592636    3.956606    0.754879
    134          1           0       -7.046466    2.739227   -0.955352
    135          1           0       -5.798645    5.177134   -0.983221
    136          1           0       -6.809144    5.347678   -2.352005
    137          1           0       -5.809535    3.971112   -2.383870
    138          1           0       -8.698658    4.184508   -2.742711
    139          1           0       -9.552286    4.241484   -1.204334
    140          1           0       -9.130087    2.732813   -1.917301
 ---------------------------------------------------------------------

 SCF Done:  E(RCAM-B3LYP) =  -3007.15916642     A.U. after   17 cycles

 Excitation energies and oscillator strengths:

 Excited State   1:      Singlet-A      1.6620 eV  745.98 nm  f=0.3780  <S**2>=0.000
     245 -> 248        0.17134
     246 -> 247        0.68933
     245 <- 248        0.10918
 This state for optimization and/or second-order correction.
 Total Energy, E(TD-HF/TD-DFT) =  -3007.09808755
 Copying the excited state density for this state as the 1-particle RhoCI density.

 Excited State   2:      Singlet-A      2.2291 eV  556.20 nm  f=0.1312  <S**2>=0.000
     245 -> 247        0.64279
     246 -> 248       -0.28265

 Excited State   3:      Singlet-A      3.2849 eV  377.43 nm  f=0.0011  <S**2>=0.000
     242 -> 247        0.21720
     242 -> 249       -0.12970
     243 -> 247        0.47359
     244 -> 247        0.42409

 Excited State   4:      Singlet-A      3.3377 eV  371.47 nm  f=0.0017  <S**2>=0.000
     241 -> 247        0.13520
     242 -> 247       -0.37807
     243 -> 247        0.45158
     244 -> 247       -0.27218
     246 -> 248        0.15085

 Excited State   5:      Singlet-A      3.3611 eV  368.88 nm  f=0.0302  <S**2>=0.000
     239 -> 247       -0.10289
     242 -> 247       -0.39164
     242 -> 249        0.17212
     242 -> 251       -0.14049
     243 -> 247       -0.15611
     244 -> 247        0.46901

 The electronic state is 1-A.
 Alpha  occ. eigenvalues --  -46.89439 -19.25489 -19.25074 -19.20971 -19.20147
 Alpha  occ. eigenvalues --  -19.18127 -19.17030 -14.43164 -14.42272 -14.40532
 Alpha  occ. eigenvalues --  -14.39258 -10.39949 -10.39792 -10.34029 -10.32362
 Alpha  occ. eigenvalues --  -10.32255 -10.32068 -10.32064 -10.31956 -10.31797
 Alpha  occ. eigenvalues --  -10.31464 -10.31173 -10.30520 -10.29632 -10.29046
 Alpha  occ. eigenvalues --  -10.28922 -10.28901 -10.28413 -10.28266 -10.28189
 Alpha  occ. eigenvalues --  -10.28128 -10.28048 -10.27698 -10.27657 -10.27486
 Alpha  occ. eigenvalues --  -10.27407 -10.27382 -10.26903 -10.26667 -10.26645
 Alpha  occ. eigenvalues --  -10.26583 -10.26417 -10.26324 -10.26243 -10.26118
 Alpha  occ. eigenvalues --  -10.25974 -10.25964 -10.25821 -10.25805 -10.25664
 Alpha  occ. eigenvalues --  -10.25653 -10.25575 -10.25553 -10.25463 -10.25458
 Alpha  occ. eigenvalues --  -10.25404 -10.25327 -10.25183 -10.25166 -10.25150
 Alpha  occ. eigenvalues --  -10.25070 -10.24634 -10.24326 -10.24314 -10.24119
 Alpha  occ. eigenvalues --  -10.23564  -3.17846  -1.92755  -1.92283  -1.92156
 Alpha  occ. eigenvalues --   -1.16522  -1.16337  -1.10504  -1.09151  -1.09060
 Alpha  occ. eigenvalues --   -1.07515  -1.04625  -1.03588  -1.03067  -1.02029
 Alpha  occ. eigenvalues --   -0.94441  -0.90568  -0.89734  -0.89245  -0.89131
 Alpha  occ. eigenvalues --   -0.88555  -0.88480  -0.87581  -0.87401  -0.86228
 Alpha  occ. eigenvalues --   -0.85920  -0.85462  -0.84362  -0.83848  -0.83538
 Alpha  occ. eigenvalues --   -0.82255  -0.82034  -0.81189  -0.80930  -0.80331
 Alpha  occ. eigenvalues --   -0.79857  -0.78136  -0.77903  -0.77450  -0.76675
 Alpha  occ. eigenvalues --   -0.75937  -0.75759  -0.75282  -0.74426  -0.74187
 Alpha  occ. eigenvalues --   -0.73571  -0.72719  -0.71799  -0.71069  -0.69172
 Alpha  occ. eigenvalues --   -0.68904  -0.68559  -0.67484  -0.66847  -0.66103
 Alpha  occ. eigenvalues --   -0.65979  -0.65309  -0.64998  -0.64491  -0.64150
 Alpha  occ. eigenvalues --   -0.63797  -0.63518  -0.63166  -0.62531  -0.60152
 Alpha  occ. eigenvalues --   -0.59823  -0.59518  -0.59246  -0.59187  -0.58766
 Alpha  occ. eigenvalues --   -0.57316  -0.56883  -0.56526  -0.56114  -0.55526
 Alpha  occ. eigenvalues --   -0.55140  -0.54861  -0.54653  -0.54311  -0.54232
 Alpha  occ. eigenvalues --   -0.54124  -0.53599  -0.53018  -0.52655  -0.52580
 Alpha  occ. eigenvalues --   -0.52226  -0.52164  -0.52115  -0.51999  -0.51919
 Alpha  occ. eigenvalues --   -0.51545  -0.51477  -0.51293  -0.51199  -0.50625
 Alpha  occ. eigenvalues --   -0.50240  -0.50093  -0.49971  -0.49848  -0.49640
 Alpha  occ. eigenvalues --   -0.49609  -0.49468  -0.49120  -0.48954  -0.48836
 Alpha  occ. eigenvalues --   -0.48416  -0.48323  -0.48057  -0.47866  -0.47661
 Alpha  occ. eigenvalues --   -0.47336  -0.46975  -0.46895  -0.46674  -0.46519
 Alpha  occ. eigenvalues --   -0.46331  -0.46209  -0.46120  -0.45960  -0.45642
 Alpha  occ. eigenvalues --   -0.45582  -0.45542  -0.45499  -0.45328  -0.45030
 Alpha  occ. eigenvalues --   -0.44603  -0.44451  -0.44321  -0.44216  -0.44081
 Alpha  occ. eigenvalues --   -0.44014  -0.43834  -0.43638  -0.43389  -0.43272
 Alpha  occ. eigenvalues --   -0.43192  -0.42780  -0.42702  -0.42677  -0.42415
 Alpha  occ. eigenvalues --   -0.42102  -0.41753  -0.41752  -0.41503  -0.41363
 Alpha  occ. eigenvalues --   -0.40936  -0.40907  -0.40502  -0.40355  -0.40147
 Alpha  occ. eigenvalues --   -0.39901  -0.39625  -0.39528  -0.39027  -0.38812
 Alpha  occ. eigenvalues --   -0.38489  -0.38339  -0.37604  -0.37428  -0.37361
 Alpha  occ. eigenvalues --   -0.37275  -0.37100  -0.36965  -0.36891  -0.36749
 Alpha  occ. eigenvalues --   -0.36304  -0.35628  -0.35272  -0.35229  -0.35136
 Alpha  occ. eigenvalues --   -0.34863  -0.34528  -0.33053  -0.31583  -0.30582
 Alpha  occ. eigenvalues --   -0.30512  -0.30135  -0.29934  -0.29389  -0.24384
 Alpha  occ. eigenvalues --   -0.21267
 Alpha virt. eigenvalues --   -0.09129  -0.01726   0.00597   0.02300   0.02460
 Alpha virt. eigenvalues --    0.03941   0.04363   0.04966   0.05516   0.06645
 Alpha virt. eigenvalues --    0.06883   0.07922   0.08243   0.08673   0.08935

 Mulliken charges:
               1
     1  Mg   0.834110
     2  C   -0.077667
     3  C   -0.044197
     4  C   -0.064900
     5  C   -0.073088
     6  N   -0.277523
     7  C   -0.070700
     8  C   -0.020341
     9  C    0.022386
    10  C   -0.000792
    11  C    0.061786
    12  C    0.055681
    13  C    0.094595
    14  C    0.151111
    15  O   -0.223302
    16  O   -0.338397
    17  N   -0.344948
    18  C    0.120446
    19  C   -0.138123
    20  C   -0.049352
    21  C    0.177456
    22  C    0.136719
    23  C   -0.060111
    24  O   -0.200855
    25  C    0.056345
    26  N   -0.329592
    27  C    0.030079
    28  C   -0.022877
    29  C   -0.040005
    30  C    0.064555
    31  C    0.077816
    32  C    0.004013
    33  C    0.000669
    34  N   -0.337699
    35  C    0.126989
    36  C   -0.180704
    37  C    0.107800
    38  C    0.123607
    39  C    0.121218
    40  C   -0.100788
    41  O   -0.181683
    42  C    0.070281
    43  C    0.215247
    44  O   -0.207371
    45  O   -0.341488
    46  C    0.165544
    47  C    0.267589
    48  C   -0.127015
    49  C   -0.184070
    50  C    0.091441
    51  C    0.053002
    52  C    0.056715
    53  C    0.034932
    54  C   -0.142437
    55  C    0.046655
    56  C    0.041544
    57  C    0.038223
    58  C    0.051994
    59  C   -0.172927
    60  C    0.038513
    61  C    0.054664
    62  C    0.006616
    63  C    0.029831
    64  C   -0.157095
    65  C    0.057933
    66  C    0.059812
    67  H   -0.027585
    68  H   -0.026677
    69  H   -0.016557
    70  H    0.019558
    71  H    0.010991
    72  H    0.019473
    73  H    0.024828
    74  H    0.034974
    75  H   -0.005822
    76  H    0.019614
    77  H    0.030971
    78  H    0.020639
    79  H    0.042390
    80  H    0.007935
    81  H    0.040390
    82  H    0.044105
    83  H    0.034911
    84  H    0.021574
    85  H    0.003886
    86  H   -0.005807
    87  H    0.032943
    88  H    0.001648
    89  H    0.003266
    90  H    0.011570
    91  H   -0.000375
    92  H    0.011465
    93  H    0.028432
    94  H    0.026791
    95  H    0.039266
    96  H    0.017442
    97  H    0.011814
    98  H    0.036030
    99  H    0.037702
   100  H    0.035414
   101  H    0.055614
   102  H    0.018477
   103  H    0.025723
   104  H   -0.009292
   105  H    0.028607
   106  H    0.006191
   107  H    0.025789
   108  H   -0.009995
   109  H    0.002704
   110  H    0.008314
   111  H    0.010150
   112  H    0.004231
   113  H   -0.009497
   114  H   -0.005024
   115  H    0.019011
   116  H    0.005479
   117  H    0.010211
   118  H    0.008767
   119  H   -0.008011
   120  H   -0.004448
   121  H    0.008175
   122  H   -0.012427
   123  H   -0.006670
   124  H   -0.013490
   125  H    0.004945
   126  H    0.011159
   127  H    0.006346
   128  H   -0.014612
   129  H   -0.010807
   130  H   -0.006116
   131  H   -0.000187
   132  H    0.011110
   133  H   -0.004428
   134  H    0.001851
   135  H    0.009231
   136  H   -0.004950
   137  H    0.004839
   138  H    0.001068
   139  H    0.005002
   140  H    0.001887
 Sum of Mulliken charges =  -0.00000

 Dipole moment (field-independent basis, Debye):
    X=             -1.0620    Y=              3.1226    Z=              0.7023  Tot=              3.3722
 Quadrupole moment (field-independent basis, Debye-Ang):
   XX=           -354.7644   YY=           -451.6243   ZZ=           -398.7876
   XY=             27.2954   XZ=             15.0147   YZ=             28.1998

 Normal termination of Gaussian 16 at Sat Apr 30 03:01:46 2022.
