 Gaussian 16, Revision A.03,
 Gaussian 16:  ES64L-G16RevA.03 25-Dec-2016

 ---------------------------------
 #p PBE1PBE/Def2SVP td=(nstates=5)
 ---------------------------------

 -----------------------------------------------------
 step_551_chromophore_23 TDDFT with PBE1PBE functional
 -----------------------------------------------------
 Symbolic Z-matrix:
 Charge =  0 Multiplicity = 1

                         Standard orientation:
 ---------------------------------------------------------------------
 Center     Atomic      Atomic             Coordinates (Angstroms)
 Number     Number       Type             X           Y           Z
 ---------------------------------------------------------------------
      1         12           0        4.741541    0.215213   -0.333107
      2          6           0        2.839009   -2.681278   -0.101061
      3          6           0        2.323736    1.543323   -2.431289
      4          6           0        6.321257    3.342673   -0.027316
      5          6           0        6.713956   -0.934527    2.406609
      6          7           0        2.787687   -0.472793   -1.131358
      7          6           0        2.217985   -1.683261   -0.906357
      8          6           0        0.918233   -1.949834   -1.721901
      9          6           0        0.777971   -0.537043   -2.483516
     10          6           0        1.999203    0.245662   -2.016956
     11          6           0        0.639923   -0.667731   -4.055749
     12          6           0       -0.215795   -2.412844   -0.759518
     13          6           0       -1.097542   -3.600967   -1.399976
     14          6           0       -2.234733   -3.203834   -2.265936
     15          8           0       -2.128796   -2.861102   -3.425892
     16          8           0       -3.388638   -3.279076   -1.500281
     17          7           0        4.537681    2.131330   -1.341298
     18          6           0        3.449970    2.397848   -2.153150
     19          6           0        3.723423    3.763340   -2.704008
     20          6           0        4.675710    4.335429   -1.870954
     21          6           0        5.274927    3.216959   -1.031873
     22          6           0        2.888069    4.314629   -3.886335
     23          6           0        4.988507    5.762394   -1.960312
     24          8           0        4.275252    6.506097   -2.594973
     25          6           0        6.250978    6.364139   -1.371005
     26          7           0        6.194032    1.050872    0.980806
     27          6           0        6.733197    2.351427    0.875341
     28          6           0        7.942625    2.572991    1.873120
     29          6           0        7.788061    1.305698    2.738530
     30          6           0        6.881022    0.370834    1.960951
     31          6           0        9.275885    2.734791    1.180382
     32          6           0        7.215958    1.637266    4.123988
     33          6           0        7.865700    1.015307    5.414203
     34          7           0        4.860083   -1.473403    0.844236
     35          6           0        5.649867   -1.777595    1.927229
     36          6           0        5.340138   -3.123749    2.352979
     37          6           0        4.233030   -3.540449    1.544113
     38          6           0        4.000349   -2.478630    0.713170
     39          6           0        6.059858   -3.909936    3.396812
     40          6           0        3.284627   -4.488244    1.310522
     41          8           0        3.111813   -5.571900    1.843790
     42          6           0        2.430652   -4.066035    0.188217
     43          6           0        2.843567   -4.930387   -0.998279
     44          8           0        3.958408   -5.166957   -1.438805
     45          8           0        1.713897   -5.366270   -1.647742
     46          6           0        1.827221   -5.784776   -3.056800
     47          6           0       -4.644131   -3.103520   -2.224477
     48          6           0       -5.866966   -2.760198   -1.311169
     49          6           0       -6.088746   -1.626321   -0.600089
     50          6           0       -5.100733   -0.499587   -0.603545
     51          6           0       -7.326355   -1.445096    0.272241
     52          6           0       -8.489280   -0.695481   -0.322987
     53          6           0       -9.861990   -1.264217    0.192775
     54          6           0      -10.839672   -0.262110    0.967262
     55          6           0      -12.390658   -0.627323    0.879002
     56          6           0      -10.286898   -0.112240    2.447953
     57          6           0       -9.873149    1.325811    2.812971
     58          6           0       -8.639212    1.282085    3.820260
     59          6           0       -7.300807    1.603203    3.153854
     60          6           0       -6.129174    1.112218    4.068776
     61          6           0       -7.089066    3.107581    2.846292
     62          6           0       -6.554493    3.414389    1.409162
     63          6           0       -7.579773    4.242062    0.471410
     64          6           0       -7.434232    3.756565   -1.016789
     65          6           0       -6.383243    4.591116   -1.694378
     66          6           0       -8.751578    3.740627   -1.748294
     67          1           0        1.549799    1.992185   -3.057488
     68          1           0        6.917395    4.254786    0.048282
     69          1           0        7.268125   -1.104949    3.332258
     70          1           0        1.170833   -2.760365   -2.405502
     71          1           0       -0.042385   -0.008713   -1.998761
     72          1           0        1.640058   -0.540559   -4.470888
     73          1           0       -0.080612    0.076405   -4.393136
     74          1           0        0.292328   -1.621099   -4.454377
     75          1           0       -0.913323   -1.601147   -0.555424
     76          1           0        0.110142   -2.477228    0.278480
     77          1           0       -1.422099   -4.297304   -0.627192
     78          1           0       -0.439923   -4.112786   -2.102433
     79          1           0        2.416809    5.178475   -3.416180
     80          1           0        2.028837    3.723144   -4.204329
     81          1           0        3.569798    4.621316   -4.679132
     82          1           0        7.115082    6.006130   -1.930506
     83          1           0        6.261085    6.121677   -0.307618
     84          1           0        6.142254    7.445248   -1.465408
     85          1           0        7.765983    3.392626    2.570042
     86          1           0        8.791798    0.918440    2.916727
     87          1           0        9.300118    2.333443    0.167155
     88          1           0       10.111767    2.356919    1.769307
     89          1           0        9.675366    3.749774    1.200142
     90          1           0        6.158115    1.378073    4.078922
     91          1           0        7.163349    2.709091    4.312003
     92          1           0        8.269837    1.937101    5.832098
     93          1           0        8.717073    0.335252    5.385059
     94          1           0        7.025628    0.679146    6.022241
     95          1           0        5.762007   -4.951007    3.274955
     96          1           0        5.853760   -3.581830    4.415515
     97          1           0        7.142696   -3.799849    3.339782
     98          1           0        1.408718   -4.203135    0.540922
     99          1           0        0.932929   -5.396496   -3.544084
    100          1           0        1.734341   -6.863262   -3.184404
    101          1           0        2.797613   -5.536464   -3.487386
    102          1           0       -4.968731   -3.963360   -2.811171
    103          1           0       -4.512398   -2.312953   -2.962763
    104          1           0       -6.630368   -3.536028   -1.253203
    105          1           0       -5.585121    0.357330   -1.071335
    106          1           0       -4.214047   -0.799097   -1.161686
    107          1           0       -4.746593   -0.264722    0.400018
    108          1           0       -6.997291   -0.905017    1.159815
    109          1           0       -7.550215   -2.428890    0.684733
    110          1           0       -8.408327   -0.791106   -1.405790
    111          1           0       -8.386780    0.337198    0.010929
    112          1           0       -9.664503   -2.136412    0.816151
    113          1           0      -10.371052   -1.585489   -0.715726
    114          1           0      -10.773257    0.739419    0.542216
    115          1           0      -12.739603   -1.131622    1.780158
    116          1           0      -12.582254   -1.237936   -0.003519
    117          1           0      -12.919431    0.308993    0.702060
    118          1           0       -9.523066   -0.849239    2.696180
    119          1           0      -11.153517   -0.278201    3.088262
    120          1           0      -10.764094    1.680316    3.330635
    121          1           0       -9.738220    2.016759    1.980947
    122          1           0       -8.419320    0.261348    4.131545
    123          1           0       -8.633440    1.827247    4.764616
    124          1           0       -7.165740    1.145020    2.174455
    125          1           0       -6.393355    0.170947    4.550375
    126          1           0       -5.945568    1.902741    4.796573
    127          1           0       -5.219132    0.914874    3.500263
    128          1           0       -6.428373    3.516547    3.610512
    129          1           0       -8.060343    3.575956    3.005516
    130          1           0       -6.301363    2.455053    0.958760
    131          1           0       -5.635921    3.982180    1.554299
    132          1           0       -7.395117    5.304696    0.627631
    133          1           0       -8.592636    3.956606    0.754879
    134          1           0       -7.046466    2.739227   -0.955352
    135          1           0       -5.798645    5.177134   -0.983221
    136          1           0       -6.809144    5.347678   -2.352005
    137          1           0       -5.809535    3.971112   -2.383870
    138          1           0       -8.698658    4.184508   -2.742711
    139          1           0       -9.552286    4.241484   -1.204334
    140          1           0       -9.130087    2.732813   -1.917301
 ---------------------------------------------------------------------

 SCF Done:  E(RPBE1PBE) =  -3005.34755892     A.U. after   20 cycles

 Excitation energies and oscillator strengths:

 Excited State   1:      Singlet-A      1.8235 eV  679.92 nm  f=0.3643  <S**2>=0.000
     245 -> 248        0.16957
     246 -> 247        0.69670
     246 <- 247       -0.11902
 This state for optimization and/or second-order correction.
 Total Energy, E(TD-HF/TD-DFT) =  -3005.28054642
 Copying the excited state density for this state as the 1-particle RhoCI density.

 Excited State   2:      Singlet-A      2.2322 eV  555.44 nm  f=0.1276  <S**2>=0.000
     245 -> 247        0.65259
     246 -> 248       -0.25664

 Excited State   3:      Singlet-A      2.7693 eV  447.71 nm  f=0.0008  <S**2>=0.000
     242 -> 247        0.10502
     243 -> 247        0.63627
     243 -> 249       -0.12647
     244 -> 247       -0.20869

 Excited State   4:      Singlet-A      2.8628 eV  433.09 nm  f=0.0008  <S**2>=0.000
     243 -> 247        0.20324
     244 -> 247        0.65290
     244 -> 249        0.12929

 Excited State   5:      Singlet-A      2.9640 eV  418.31 nm  f=0.0031  <S**2>=0.000
     241 -> 247        0.67898
     242 -> 247        0.15148

 The electronic state is 1-A.
 Alpha  occ. eigenvalues --  -46.92817 -19.26169 -19.25755 -19.21207 -19.20411
 Alpha  occ. eigenvalues --  -19.18210 -19.17412 -14.42549 -14.41916 -14.40029
 Alpha  occ. eigenvalues --  -14.39009 -10.37028 -10.36785 -10.31019 -10.29642
 Alpha  occ. eigenvalues --  -10.29570 -10.29564 -10.29490 -10.29365 -10.29324
 Alpha  occ. eigenvalues --  -10.29303 -10.28687 -10.28374 -10.27560 -10.26797
 Alpha  occ. eigenvalues --  -10.26760 -10.26357 -10.26104 -10.26087 -10.25915
 Alpha  occ. eigenvalues --  -10.25837 -10.25652 -10.25438 -10.25371 -10.25295
 Alpha  occ. eigenvalues --  -10.25046 -10.24933 -10.24777 -10.24478 -10.24332
 Alpha  occ. eigenvalues --  -10.24179 -10.24129 -10.23750 -10.23697 -10.23690
 Alpha  occ. eigenvalues --  -10.23485 -10.23322 -10.23265 -10.23212 -10.23182
 Alpha  occ. eigenvalues --  -10.23173 -10.23115 -10.23104 -10.23080 -10.23051
 Alpha  occ. eigenvalues --  -10.22901 -10.22858 -10.22771 -10.22763 -10.22648
 Alpha  occ. eigenvalues --  -10.22566 -10.22061 -10.21899 -10.21680 -10.21468
 Alpha  occ. eigenvalues --  -10.21408  -3.14808  -1.87656  -1.87164  -1.87038
 Alpha  occ. eigenvalues --   -1.11301  -1.11124  -1.05112  -1.03996  -1.03915
 Alpha  occ. eigenvalues --   -1.02370  -0.99397  -0.98167  -0.97578  -0.96634
 Alpha  occ. eigenvalues --   -0.88928  -0.84677  -0.83823  -0.83570  -0.83334
 Alpha  occ. eigenvalues --   -0.82753  -0.82650  -0.81891  -0.81513  -0.80575
 Alpha  occ. eigenvalues --   -0.80169  -0.79674  -0.78554  -0.78170  -0.77762
 Alpha  occ. eigenvalues --   -0.76489  -0.76192  -0.75295  -0.75251  -0.74547
 Alpha  occ. eigenvalues --   -0.74049  -0.72430  -0.72252  -0.71626  -0.70983
 Alpha  occ. eigenvalues --   -0.70012  -0.69921  -0.69610  -0.68582  -0.68352
 Alpha  occ. eigenvalues --   -0.67900  -0.67184  -0.66133  -0.65438  -0.63713
 Alpha  occ. eigenvalues --   -0.63270  -0.62790  -0.61836  -0.61057  -0.60424
 Alpha  occ. eigenvalues --   -0.60268  -0.59802  -0.59538  -0.59060  -0.58663
 Alpha  occ. eigenvalues --   -0.57903  -0.57744  -0.57671  -0.56710  -0.54690
 Alpha  occ. eigenvalues --   -0.54261  -0.54142  -0.53857  -0.53567  -0.53312
 Alpha  occ. eigenvalues --   -0.51942  -0.51339  -0.50898  -0.50588  -0.50073
 Alpha  occ. eigenvalues --   -0.49666  -0.49422  -0.49085  -0.48825  -0.48753
 Alpha  occ. eigenvalues --   -0.48703  -0.47969  -0.47521  -0.47288  -0.47039
 Alpha  occ. eigenvalues --   -0.46846  -0.46706  -0.46628  -0.46496  -0.46428
 Alpha  occ. eigenvalues --   -0.46135  -0.45955  -0.45863  -0.45697  -0.45225
 Alpha  occ. eigenvalues --   -0.44796  -0.44676  -0.44505  -0.44429  -0.44246
 Alpha  occ. eigenvalues --   -0.44158  -0.44068  -0.43690  -0.43533  -0.43420
 Alpha  occ. eigenvalues --   -0.43045  -0.43020  -0.42648  -0.42510  -0.42315
 Alpha  occ. eigenvalues --   -0.41885  -0.41601  -0.41548  -0.41413  -0.41175
 Alpha  occ. eigenvalues --   -0.40968  -0.40898  -0.40862  -0.40739  -0.40409
 Alpha  occ. eigenvalues --   -0.40314  -0.40232  -0.40123  -0.40004  -0.39794
 Alpha  occ. eigenvalues --   -0.39370  -0.39141  -0.39046  -0.38906  -0.38812
 Alpha  occ. eigenvalues --   -0.38703  -0.38592  -0.38473  -0.38176  -0.38122
 Alpha  occ. eigenvalues --   -0.37939  -0.37628  -0.37471  -0.37392  -0.37132
 Alpha  occ. eigenvalues --   -0.36894  -0.36537  -0.36482  -0.36352  -0.36248
 Alpha  occ. eigenvalues --   -0.35834  -0.35700  -0.35457  -0.35274  -0.34955
 Alpha  occ. eigenvalues --   -0.34688  -0.34439  -0.34356  -0.33803  -0.33752
 Alpha  occ. eigenvalues --   -0.33353  -0.33241  -0.32432  -0.32333  -0.32282
 Alpha  occ. eigenvalues --   -0.32156  -0.32015  -0.31923  -0.31891  -0.31673
 Alpha  occ. eigenvalues --   -0.31315  -0.30532  -0.30218  -0.30127  -0.30022
 Alpha  occ. eigenvalues --   -0.29741  -0.29645  -0.28708  -0.27186  -0.25873
 Alpha  occ. eigenvalues --   -0.25436  -0.25228  -0.25011  -0.24985  -0.21273
 Alpha  occ. eigenvalues --   -0.18905
 Alpha virt. eigenvalues --   -0.11539  -0.05221  -0.03637  -0.02012  -0.00754
 Alpha virt. eigenvalues --   -0.00284  -0.00026   0.00683   0.00974   0.03252
 Alpha virt. eigenvalues --    0.03353   0.03957   0.04525   0.04942   0.05324

 Mulliken charges:
               1
     1  Mg   0.976356
     2  C   -0.083316
     3  C   -0.044686
     4  C   -0.057311
     5  C   -0.055784
     6  N   -0.384546
     7  C    0.008490
     8  C   -0.088577
     9  C   -0.055337
    10  C    0.037847
    11  C    0.002552
    12  C    0.010590
    13  C    0.002358
    14  C    0.223259
    15  O   -0.257694
    16  O   -0.366456
    17  N   -0.457970
    18  C    0.145381
    19  C   -0.156418
    20  C   -0.109393
    21  C    0.215743
    22  C    0.076523
    23  C   -0.010138
    24  O   -0.236141
    25  C   -0.020718
    26  N   -0.428338
    27  C    0.062488
    28  C   -0.101817
    29  C   -0.119888
    30  C    0.097218
    31  C    0.023239
    32  C   -0.046372
    33  C   -0.073673
    34  N   -0.468852
    35  C    0.145882
    36  C   -0.183697
    37  C    0.058582
    38  C    0.183462
    39  C    0.068936
    40  C   -0.009113
    41  O   -0.229060
    42  C   -0.058342
    43  C    0.313034
    44  O   -0.242770
    45  O   -0.373133
    46  C    0.110848
    47  C    0.219433
    48  C   -0.132868
    49  C   -0.226926
    50  C    0.021629
    51  C   -0.012769
    52  C   -0.012623
    53  C   -0.021813
    54  C   -0.225376
    55  C   -0.014329
    56  C   -0.007932
    57  C   -0.029906
    58  C   -0.007454
    59  C   -0.270579
    60  C   -0.021128
    61  C    0.011428
    62  C   -0.057882
    63  C   -0.031524
    64  C   -0.260601
    65  C    0.001283
    66  C    0.000878
    67  H    0.005208
    68  H    0.005912
    69  H    0.016438
    70  H    0.060560
    71  H    0.048395
    72  H    0.047689
    73  H    0.051330
    74  H    0.061396
    75  H    0.027538
    76  H    0.049889
    77  H    0.062635
    78  H    0.061185
    79  H    0.069341
    80  H    0.033643
    81  H    0.067474
    82  H    0.070936
    83  H    0.059760
    84  H    0.049424
    85  H    0.040159
    86  H    0.032076
    87  H    0.059840
    88  H    0.028670
    89  H    0.030734
    90  H    0.044828
    91  H    0.031472
    92  H    0.040003
    93  H    0.053588
    94  H    0.054718
    95  H    0.067337
    96  H    0.046604
    97  H    0.039843
    98  H    0.072077
    99  H    0.057363
   100  H    0.057669
   101  H    0.076205
   102  H    0.045625
   103  H    0.052252
   104  H    0.020333
   105  H    0.059880
   106  H    0.036768
   107  H    0.053132
   108  H    0.028656
   109  H    0.033526
   110  H    0.041319
   111  H    0.048683
   112  H    0.035995
   113  H    0.023721
   114  H    0.033455
   115  H    0.045227
   116  H    0.032813
   117  H    0.037901
   118  H    0.039252
   119  H    0.025950
   120  H    0.029549
   121  H    0.042178
   122  H    0.020340
   123  H    0.025487
   124  H    0.035422
   125  H    0.032166
   126  H    0.038368
   127  H    0.035004
   128  H    0.017658
   129  H    0.022680
   130  H    0.025934
   131  H    0.032611
   132  H    0.043121
   133  H    0.031231
   134  H    0.046435
   135  H    0.036418
   136  H    0.022768
   137  H    0.032291
   138  H    0.028489
   139  H    0.031453
   140  H    0.029780
 Sum of Mulliken charges =  -0.00000

 Dipole moment (field-independent basis, Debye):
    X=             -0.9450    Y=              2.8173    Z=              1.0260  Tot=              3.1437
 Quadrupole moment (field-independent basis, Debye-Ang):
   XX=           -349.0611   YY=           -449.3268   ZZ=           -394.9885
   XY=             25.8022   XZ=             17.5203   YZ=             28.3395

 Normal termination of Gaussian 16 at Sat Apr 30 03:22:26 2022.
