 Gaussian 16, Revision A.03,
 Gaussian 16:  ES64L-G16RevA.03 25-Dec-2016

 --------------------------------
 #p wB97XD/Def2SVP td=(nstates=5)
 --------------------------------

 ----------------------------------------------------
 step_551_chromophore_23 TDDFT with wB97XD functional
 ----------------------------------------------------
 Symbolic Z-matrix:
 Charge =  0 Multiplicity = 1

                         Standard orientation:
 ---------------------------------------------------------------------
 Center     Atomic      Atomic             Coordinates (Angstroms)
 Number     Number       Type             X           Y           Z
 ---------------------------------------------------------------------
      1         12           0        4.741541    0.215213   -0.333107
      2          6           0        2.839009   -2.681278   -0.101061
      3          6           0        2.323736    1.543323   -2.431289
      4          6           0        6.321257    3.342673   -0.027316
      5          6           0        6.713956   -0.934527    2.406609
      6          7           0        2.787687   -0.472793   -1.131358
      7          6           0        2.217985   -1.683261   -0.906357
      8          6           0        0.918233   -1.949834   -1.721901
      9          6           0        0.777971   -0.537043   -2.483516
     10          6           0        1.999203    0.245662   -2.016956
     11          6           0        0.639923   -0.667731   -4.055749
     12          6           0       -0.215795   -2.412844   -0.759518
     13          6           0       -1.097542   -3.600967   -1.399976
     14          6           0       -2.234733   -3.203834   -2.265936
     15          8           0       -2.128796   -2.861102   -3.425892
     16          8           0       -3.388638   -3.279076   -1.500281
     17          7           0        4.537681    2.131330   -1.341298
     18          6           0        3.449970    2.397848   -2.153150
     19          6           0        3.723423    3.763340   -2.704008
     20          6           0        4.675710    4.335429   -1.870954
     21          6           0        5.274927    3.216959   -1.031873
     22          6           0        2.888069    4.314629   -3.886335
     23          6           0        4.988507    5.762394   -1.960312
     24          8           0        4.275252    6.506097   -2.594973
     25          6           0        6.250978    6.364139   -1.371005
     26          7           0        6.194032    1.050872    0.980806
     27          6           0        6.733197    2.351427    0.875341
     28          6           0        7.942625    2.572991    1.873120
     29          6           0        7.788061    1.305698    2.738530
     30          6           0        6.881022    0.370834    1.960951
     31          6           0        9.275885    2.734791    1.180382
     32          6           0        7.215958    1.637266    4.123988
     33          6           0        7.865700    1.015307    5.414203
     34          7           0        4.860083   -1.473403    0.844236
     35          6           0        5.649867   -1.777595    1.927229
     36          6           0        5.340138   -3.123749    2.352979
     37          6           0        4.233030   -3.540449    1.544113
     38          6           0        4.000349   -2.478630    0.713170
     39          6           0        6.059858   -3.909936    3.396812
     40          6           0        3.284627   -4.488244    1.310522
     41          8           0        3.111813   -5.571900    1.843790
     42          6           0        2.430652   -4.066035    0.188217
     43          6           0        2.843567   -4.930387   -0.998279
     44          8           0        3.958408   -5.166957   -1.438805
     45          8           0        1.713897   -5.366270   -1.647742
     46          6           0        1.827221   -5.784776   -3.056800
     47          6           0       -4.644131   -3.103520   -2.224477
     48          6           0       -5.866966   -2.760198   -1.311169
     49          6           0       -6.088746   -1.626321   -0.600089
     50          6           0       -5.100733   -0.499587   -0.603545
     51          6           0       -7.326355   -1.445096    0.272241
     52          6           0       -8.489280   -0.695481   -0.322987
     53          6           0       -9.861990   -1.264217    0.192775
     54          6           0      -10.839672   -0.262110    0.967262
     55          6           0      -12.390658   -0.627323    0.879002
     56          6           0      -10.286898   -0.112240    2.447953
     57          6           0       -9.873149    1.325811    2.812971
     58          6           0       -8.639212    1.282085    3.820260
     59          6           0       -7.300807    1.603203    3.153854
     60          6           0       -6.129174    1.112218    4.068776
     61          6           0       -7.089066    3.107581    2.846292
     62          6           0       -6.554493    3.414389    1.409162
     63          6           0       -7.579773    4.242062    0.471410
     64          6           0       -7.434232    3.756565   -1.016789
     65          6           0       -6.383243    4.591116   -1.694378
     66          6           0       -8.751578    3.740627   -1.748294
     67          1           0        1.549799    1.992185   -3.057488
     68          1           0        6.917395    4.254786    0.048282
     69          1           0        7.268125   -1.104949    3.332258
     70          1           0        1.170833   -2.760365   -2.405502
     71          1           0       -0.042385   -0.008713   -1.998761
     72          1           0        1.640058   -0.540559   -4.470888
     73          1           0       -0.080612    0.076405   -4.393136
     74          1           0        0.292328   -1.621099   -4.454377
     75          1           0       -0.913323   -1.601147   -0.555424
     76          1           0        0.110142   -2.477228    0.278480
     77          1           0       -1.422099   -4.297304   -0.627192
     78          1           0       -0.439923   -4.112786   -2.102433
     79          1           0        2.416809    5.178475   -3.416180
     80          1           0        2.028837    3.723144   -4.204329
     81          1           0        3.569798    4.621316   -4.679132
     82          1           0        7.115082    6.006130   -1.930506
     83          1           0        6.261085    6.121677   -0.307618
     84          1           0        6.142254    7.445248   -1.465408
     85          1           0        7.765983    3.392626    2.570042
     86          1           0        8.791798    0.918440    2.916727
     87          1           0        9.300118    2.333443    0.167155
     88          1           0       10.111767    2.356919    1.769307
     89          1           0        9.675366    3.749774    1.200142
     90          1           0        6.158115    1.378073    4.078922
     91          1           0        7.163349    2.709091    4.312003
     92          1           0        8.269837    1.937101    5.832098
     93          1           0        8.717073    0.335252    5.385059
     94          1           0        7.025628    0.679146    6.022241
     95          1           0        5.762007   -4.951007    3.274955
     96          1           0        5.853760   -3.581830    4.415515
     97          1           0        7.142696   -3.799849    3.339782
     98          1           0        1.408718   -4.203135    0.540922
     99          1           0        0.932929   -5.396496   -3.544084
    100          1           0        1.734341   -6.863262   -3.184404
    101          1           0        2.797613   -5.536464   -3.487386
    102          1           0       -4.968731   -3.963360   -2.811171
    103          1           0       -4.512398   -2.312953   -2.962763
    104          1           0       -6.630368   -3.536028   -1.253203
    105          1           0       -5.585121    0.357330   -1.071335
    106          1           0       -4.214047   -0.799097   -1.161686
    107          1           0       -4.746593   -0.264722    0.400018
    108          1           0       -6.997291   -0.905017    1.159815
    109          1           0       -7.550215   -2.428890    0.684733
    110          1           0       -8.408327   -0.791106   -1.405790
    111          1           0       -8.386780    0.337198    0.010929
    112          1           0       -9.664503   -2.136412    0.816151
    113          1           0      -10.371052   -1.585489   -0.715726
    114          1           0      -10.773257    0.739419    0.542216
    115          1           0      -12.739603   -1.131622    1.780158
    116          1           0      -12.582254   -1.237936   -0.003519
    117          1           0      -12.919431    0.308993    0.702060
    118          1           0       -9.523066   -0.849239    2.696180
    119          1           0      -11.153517   -0.278201    3.088262
    120          1           0      -10.764094    1.680316    3.330635
    121          1           0       -9.738220    2.016759    1.980947
    122          1           0       -8.419320    0.261348    4.131545
    123          1           0       -8.633440    1.827247    4.764616
    124          1           0       -7.165740    1.145020    2.174455
    125          1           0       -6.393355    0.170947    4.550375
    126          1           0       -5.945568    1.902741    4.796573
    127          1           0       -5.219132    0.914874    3.500263
    128          1           0       -6.428373    3.516547    3.610512
    129          1           0       -8.060343    3.575956    3.005516
    130          1           0       -6.301363    2.455053    0.958760
    131          1           0       -5.635921    3.982180    1.554299
    132          1           0       -7.395117    5.304696    0.627631
    133          1           0       -8.592636    3.956606    0.754879
    134          1           0       -7.046466    2.739227   -0.955352
    135          1           0       -5.798645    5.177134   -0.983221
    136          1           0       -6.809144    5.347678   -2.352005
    137          1           0       -5.809535    3.971112   -2.383870
    138          1           0       -8.698658    4.184508   -2.742711
    139          1           0       -9.552286    4.241484   -1.204334
    140          1           0       -9.130087    2.732813   -1.917301
 ---------------------------------------------------------------------

 SCF Done:  E(RwB97XD) =  -3007.86182948     A.U. after   17 cycles

 Excitation energies and oscillator strengths:

 Excited State   1:      Singlet-A      1.6056 eV  772.21 nm  f=0.3778  <S**2>=0.000
     245 -> 248        0.17587
     246 -> 247        0.68703
     245 <- 248        0.11806
 This state for optimization and/or second-order correction.
 Total Energy, E(TD-HF/TD-DFT) =  -3007.80282541
 Copying the excited state density for this state as the 1-particle RhoCI density.

 Excited State   2:      Singlet-A      2.1772 eV  569.47 nm  f=0.1267  <S**2>=0.000
     245 -> 247        0.64006
     246 -> 248       -0.28618

 Excited State   3:      Singlet-A      3.3173 eV  373.75 nm  f=0.0016  <S**2>=0.000
     241 -> 247        0.17650
     242 -> 247       -0.19859
     242 -> 249       -0.11959
     243 -> 247        0.46405
     244 -> 247        0.40154

 Excited State   4:      Singlet-A      3.3693 eV  367.98 nm  f=0.0049  <S**2>=0.000
     241 -> 247       -0.25333
     242 -> 247        0.52647
     243 -> 249       -0.14818
     244 -> 247        0.25653
     246 -> 248       -0.19342

 Excited State   5:      Singlet-A      3.4067 eV  363.94 nm  f=0.0264  <S**2>=0.000
     242 -> 247       -0.11321
     243 -> 247       -0.38303
     243 -> 249        0.16616
     243 -> 250       -0.14485
     244 -> 247        0.48613

 The electronic state is 1-A.
 Alpha  occ. eigenvalues --  -46.95772 -19.30736 -19.30306 -19.25898 -19.25097
 Alpha  occ. eigenvalues --  -19.23149 -19.22054 -14.47794 -14.46865 -14.45132
 Alpha  occ. eigenvalues --  -14.43824 -10.43818 -10.43598 -10.37977 -10.36301
 Alpha  occ. eigenvalues --  -10.36186 -10.36161 -10.36054 -10.35860 -10.35830
 Alpha  occ. eigenvalues --  -10.35466 -10.35293 -10.34487 -10.33609 -10.33114
 Alpha  occ. eigenvalues --  -10.33103 -10.33010 -10.32430 -10.32302 -10.32291
 Alpha  occ. eigenvalues --  -10.32203 -10.32092 -10.31760 -10.31697 -10.31554
 Alpha  occ. eigenvalues --  -10.31399 -10.31328 -10.30921 -10.30763 -10.30648
 Alpha  occ. eigenvalues --  -10.30598 -10.30337 -10.30213 -10.30101 -10.30070
 Alpha  occ. eigenvalues --  -10.29931 -10.29792 -10.29709 -10.29633 -10.29591
 Alpha  occ. eigenvalues --  -10.29536 -10.29530 -10.29480 -10.29404 -10.29387
 Alpha  occ. eigenvalues --  -10.29386 -10.29264 -10.29120 -10.29011 -10.29010
 Alpha  occ. eigenvalues --  -10.28988 -10.28481 -10.28259 -10.28107 -10.27918
 Alpha  occ. eigenvalues --  -10.27532  -3.21637  -1.95232  -1.94738  -1.94612
 Alpha  occ. eigenvalues --   -1.18694  -1.18506  -1.12720  -1.11337  -1.11266
 Alpha  occ. eigenvalues --   -1.09718  -1.06628  -1.05617  -1.05110  -1.04030
 Alpha  occ. eigenvalues --   -0.96451  -0.92362  -0.91495  -0.91100  -0.90983
 Alpha  occ. eigenvalues --   -0.90423  -0.90317  -0.89505  -0.89187  -0.88199
 Alpha  occ. eigenvalues --   -0.87871  -0.87350  -0.86226  -0.85725  -0.85435
 Alpha  occ. eigenvalues --   -0.84130  -0.83882  -0.83094  -0.82877  -0.82207
 Alpha  occ. eigenvalues --   -0.81713  -0.80040  -0.79806  -0.79404  -0.78603
 Alpha  occ. eigenvalues --   -0.77711  -0.77600  -0.77248  -0.76261  -0.76022
 Alpha  occ. eigenvalues --   -0.75497  -0.74687  -0.73741  -0.73021  -0.71143
 Alpha  occ. eigenvalues --   -0.70815  -0.70432  -0.69492  -0.68706  -0.68014
 Alpha  occ. eigenvalues --   -0.67902  -0.67262  -0.66988  -0.66491  -0.66134
 Alpha  occ. eigenvalues --   -0.65590  -0.65340  -0.65150  -0.64357  -0.62088
 Alpha  occ. eigenvalues --   -0.61766  -0.61512  -0.61273  -0.61086  -0.60740
 Alpha  occ. eigenvalues --   -0.59320  -0.58806  -0.58423  -0.58092  -0.57503
 Alpha  occ. eigenvalues --   -0.57085  -0.56788  -0.56534  -0.56243  -0.56148
 Alpha  occ. eigenvalues --   -0.56051  -0.55434  -0.54895  -0.54585  -0.54544
 Alpha  occ. eigenvalues --   -0.54143  -0.54061  -0.54047  -0.53880  -0.53809
 Alpha  occ. eigenvalues --   -0.53462  -0.53335  -0.53231  -0.53055  -0.52540
 Alpha  occ. eigenvalues --   -0.52140  -0.52010  -0.51851  -0.51749  -0.51561
 Alpha  occ. eigenvalues --   -0.51503  -0.51385  -0.51019  -0.50876  -0.50736
 Alpha  occ. eigenvalues --   -0.50322  -0.50274  -0.50003  -0.49777  -0.49585
 Alpha  occ. eigenvalues --   -0.49289  -0.48844  -0.48823  -0.48570  -0.48426
 Alpha  occ. eigenvalues --   -0.48207  -0.48115  -0.48011  -0.47865  -0.47515
 Alpha  occ. eigenvalues --   -0.47475  -0.47427  -0.47382  -0.47247  -0.46977
 Alpha  occ. eigenvalues --   -0.46529  -0.46407  -0.46238  -0.46137  -0.45976
 Alpha  occ. eigenvalues --   -0.45879  -0.45723  -0.45551  -0.45316  -0.45143
 Alpha  occ. eigenvalues --   -0.45105  -0.44750  -0.44661  -0.44546  -0.44420
 Alpha  occ. eigenvalues --   -0.44016  -0.43673  -0.43614  -0.43445  -0.43266
 Alpha  occ. eigenvalues --   -0.42830  -0.42791  -0.42431  -0.42249  -0.42017
 Alpha  occ. eigenvalues --   -0.41753  -0.41460  -0.41421  -0.40862  -0.40693
 Alpha  occ. eigenvalues --   -0.40321  -0.40247  -0.39449  -0.39412  -0.39335
 Alpha  occ. eigenvalues --   -0.39201  -0.38991  -0.38900  -0.38801  -0.38617
 Alpha  occ. eigenvalues --   -0.38359  -0.37478  -0.37161  -0.37087  -0.37001
 Alpha  occ. eigenvalues --   -0.36799  -0.36517  -0.35324  -0.33789  -0.32613
 Alpha  occ. eigenvalues --   -0.32485  -0.32129  -0.32034  -0.31535  -0.26302
 Alpha  occ. eigenvalues --   -0.23064
 Alpha virt. eigenvalues --   -0.07478   0.00179   0.02656   0.04528   0.05516
 Alpha virt. eigenvalues --    0.06228   0.06625   0.07399   0.07733   0.09604
 Alpha virt. eigenvalues --    0.09822   0.10610   0.11381   0.11560   0.12044

 Mulliken charges:
               1
     1  Mg   0.968990
     2  C   -0.087166
     3  C   -0.058058
     4  C   -0.076736
     5  C   -0.076075
     6  N   -0.348577
     7  C   -0.023968
     8  C   -0.061446
     9  C   -0.031543
    10  C    0.024152
    11  C    0.014045
    12  C    0.017912
    13  C    0.036022
    14  C    0.207162
    15  O   -0.253712
    16  O   -0.365723
    17  N   -0.425724
    18  C    0.138876
    19  C   -0.148778
    20  C   -0.100297
    21  C    0.209065
    22  C    0.089093
    23  C   -0.012908
    24  O   -0.231560
    25  C   -0.007579
    26  N   -0.400918
    27  C    0.053362
    28  C   -0.073275
    29  C   -0.091452
    30  C    0.086994
    31  C    0.029770
    32  C   -0.034411
    33  C   -0.059163
    34  N   -0.430315
    35  C    0.137758
    36  C   -0.187749
    37  C    0.061751
    38  C    0.159446
    39  C    0.077690
    40  C   -0.023949
    41  O   -0.219675
    42  C   -0.010100
    43  C    0.287083
    44  O   -0.237717
    45  O   -0.370760
    46  C    0.125828
    47  C    0.235538
    48  C   -0.146428
    49  C   -0.211899
    50  C    0.041741
    51  C    0.011482
    52  C    0.011820
    53  C   -0.004017
    54  C   -0.197613
    55  C   -0.000481
    56  C    0.006014
    57  C   -0.008118
    58  C    0.014359
    59  C   -0.219519
    60  C   -0.006919
    61  C    0.017927
    62  C   -0.032363
    63  C   -0.012514
    64  C   -0.221311
    65  C    0.010351
    66  C    0.011853
    67  H   -0.001542
    68  H   -0.002837
    69  H    0.009519
    70  H    0.041324
    71  H    0.038425
    72  H    0.040773
    73  H    0.046540
    74  H    0.057474
    75  H    0.019369
    76  H    0.042627
    77  H    0.059362
    78  H    0.040178
    79  H    0.064782
    80  H    0.030448
    81  H    0.064575
    82  H    0.067220
    83  H    0.054538
    84  H    0.048406
    85  H    0.030414
    86  H    0.019848
    87  H    0.054908
    88  H    0.023318
    89  H    0.025242
    90  H    0.035435
    91  H    0.022429
    92  H    0.033167
    93  H    0.048984
    94  H    0.049575
    95  H    0.063319
    96  H    0.040471
    97  H    0.033448
    98  H    0.064727
    99  H    0.054417
   100  H    0.053835
   101  H    0.072940
   102  H    0.041906
   103  H    0.046415
   104  H    0.017466
   105  H    0.051491
   106  H    0.027996
   107  H    0.047519
   108  H    0.013856
   109  H    0.025289
   110  H    0.033104
   111  H    0.029357
   112  H    0.025668
   113  H    0.015755
   114  H    0.019957
   115  H    0.039189
   116  H    0.026742
   117  H    0.032342
   118  H    0.027297
   119  H    0.016570
   120  H    0.022610
   121  H    0.025405
   122  H    0.006800
   123  H    0.018122
   124  H   -0.001968
   125  H    0.026142
   126  H    0.030531
   127  H    0.029267
   128  H    0.009443
   129  H    0.011768
   130  H    0.009688
   131  H    0.025418
   132  H    0.036010
   133  H    0.016136
   134  H    0.027655
   135  H    0.029899
   136  H    0.016064
   137  H    0.027376
   138  H    0.022652
   139  H    0.025574
   140  H    0.024260
 Sum of Mulliken charges =  -0.00000

 Dipole moment (field-independent basis, Debye):
    X=             -1.0761    Y=              3.2495    Z=              0.6312  Tot=              3.4807
 Quadrupole moment (field-independent basis, Debye-Ang):
   XX=           -349.9877   YY=           -447.9070   ZZ=           -394.7654
   XY=             28.2376   XZ=             15.4578   YZ=             28.0559

 Normal termination of Gaussian 16 at Sat Apr 30 03:51:32 2022.
