 Gaussian 16, Revision A.03,
 Gaussian 16:  ES64L-G16RevA.03 25-Dec-2016

 --------------------
 #p ZINDO=(nstates=5)
 --------------------

 -----------------------------
 step_551_chromophore_23 ZINDO
 -----------------------------
 Symbolic Z-matrix:
 Charge =  0 Multiplicity = 1

                         Standard orientation:
 ---------------------------------------------------------------------
 Center     Atomic      Atomic             Coordinates (Angstroms)
 Number     Number       Type             X           Y           Z
 ---------------------------------------------------------------------
      1         12           0        4.741541    0.215213   -0.333107
      2          6           0        2.839009   -2.681278   -0.101061
      3          6           0        2.323736    1.543323   -2.431289
      4          6           0        6.321257    3.342673   -0.027316
      5          6           0        6.713956   -0.934527    2.406609
      6          7           0        2.787687   -0.472793   -1.131358
      7          6           0        2.217985   -1.683261   -0.906357
      8          6           0        0.918233   -1.949834   -1.721901
      9          6           0        0.777971   -0.537043   -2.483516
     10          6           0        1.999203    0.245662   -2.016956
     11          6           0        0.639923   -0.667731   -4.055749
     12          6           0       -0.215795   -2.412844   -0.759518
     13          6           0       -1.097542   -3.600967   -1.399976
     14          6           0       -2.234733   -3.203834   -2.265936
     15          8           0       -2.128796   -2.861102   -3.425892
     16          8           0       -3.388638   -3.279076   -1.500281
     17          7           0        4.537681    2.131330   -1.341298
     18          6           0        3.449970    2.397848   -2.153150
     19          6           0        3.723423    3.763340   -2.704008
     20          6           0        4.675710    4.335429   -1.870954
     21          6           0        5.274927    3.216959   -1.031873
     22          6           0        2.888069    4.314629   -3.886335
     23          6           0        4.988507    5.762394   -1.960312
     24          8           0        4.275252    6.506097   -2.594973
     25          6           0        6.250978    6.364139   -1.371005
     26          7           0        6.194032    1.050872    0.980806
     27          6           0        6.733197    2.351427    0.875341
     28          6           0        7.942625    2.572991    1.873120
     29          6           0        7.788061    1.305698    2.738530
     30          6           0        6.881022    0.370834    1.960951
     31          6           0        9.275885    2.734791    1.180382
     32          6           0        7.215958    1.637266    4.123988
     33          6           0        7.865700    1.015307    5.414203
     34          7           0        4.860083   -1.473403    0.844236
     35          6           0        5.649867   -1.777595    1.927229
     36          6           0        5.340138   -3.123749    2.352979
     37          6           0        4.233030   -3.540449    1.544113
     38          6           0        4.000349   -2.478630    0.713170
     39          6           0        6.059858   -3.909936    3.396812
     40          6           0        3.284627   -4.488244    1.310522
     41          8           0        3.111813   -5.571900    1.843790
     42          6           0        2.430652   -4.066035    0.188217
     43          6           0        2.843567   -4.930387   -0.998279
     44          8           0        3.958408   -5.166957   -1.438805
     45          8           0        1.713897   -5.366270   -1.647742
     46          6           0        1.827221   -5.784776   -3.056800
     47          6           0       -4.644131   -3.103520   -2.224477
     48          6           0       -5.866966   -2.760198   -1.311169
     49          6           0       -6.088746   -1.626321   -0.600089
     50          6           0       -5.100733   -0.499587   -0.603545
     51          6           0       -7.326355   -1.445096    0.272241
     52          6           0       -8.489280   -0.695481   -0.322987
     53          6           0       -9.861990   -1.264217    0.192775
     54          6           0      -10.839672   -0.262110    0.967262
     55          6           0      -12.390658   -0.627323    0.879002
     56          6           0      -10.286898   -0.112240    2.447953
     57          6           0       -9.873149    1.325811    2.812971
     58          6           0       -8.639212    1.282085    3.820260
     59          6           0       -7.300807    1.603203    3.153854
     60          6           0       -6.129174    1.112218    4.068776
     61          6           0       -7.089066    3.107581    2.846292
     62          6           0       -6.554493    3.414389    1.409162
     63          6           0       -7.579773    4.242062    0.471410
     64          6           0       -7.434232    3.756565   -1.016789
     65          6           0       -6.383243    4.591116   -1.694378
     66          6           0       -8.751578    3.740627   -1.748294
     67          1           0        1.549799    1.992185   -3.057488
     68          1           0        6.917395    4.254786    0.048282
     69          1           0        7.268125   -1.104949    3.332258
     70          1           0        1.170833   -2.760365   -2.405502
     71          1           0       -0.042385   -0.008713   -1.998761
     72          1           0        1.640058   -0.540559   -4.470888
     73          1           0       -0.080612    0.076405   -4.393136
     74          1           0        0.292328   -1.621099   -4.454377
     75          1           0       -0.913323   -1.601147   -0.555424
     76          1           0        0.110142   -2.477228    0.278480
     77          1           0       -1.422099   -4.297304   -0.627192
     78          1           0       -0.439923   -4.112786   -2.102433
     79          1           0        2.416809    5.178475   -3.416180
     80          1           0        2.028837    3.723144   -4.204329
     81          1           0        3.569798    4.621316   -4.679132
     82          1           0        7.115082    6.006130   -1.930506
     83          1           0        6.261085    6.121677   -0.307618
     84          1           0        6.142254    7.445248   -1.465408
     85          1           0        7.765983    3.392626    2.570042
     86          1           0        8.791798    0.918440    2.916727
     87          1           0        9.300118    2.333443    0.167155
     88          1           0       10.111767    2.356919    1.769307
     89          1           0        9.675366    3.749774    1.200142
     90          1           0        6.158115    1.378073    4.078922
     91          1           0        7.163349    2.709091    4.312003
     92          1           0        8.269837    1.937101    5.832098
     93          1           0        8.717073    0.335252    5.385059
     94          1           0        7.025628    0.679146    6.022241
     95          1           0        5.762007   -4.951007    3.274955
     96          1           0        5.853760   -3.581830    4.415515
     97          1           0        7.142696   -3.799849    3.339782
     98          1           0        1.408718   -4.203135    0.540922
     99          1           0        0.932929   -5.396496   -3.544084
    100          1           0        1.734341   -6.863262   -3.184404
    101          1           0        2.797613   -5.536464   -3.487386
    102          1           0       -4.968731   -3.963360   -2.811171
    103          1           0       -4.512398   -2.312953   -2.962763
    104          1           0       -6.630368   -3.536028   -1.253203
    105          1           0       -5.585121    0.357330   -1.071335
    106          1           0       -4.214047   -0.799097   -1.161686
    107          1           0       -4.746593   -0.264722    0.400018
    108          1           0       -6.997291   -0.905017    1.159815
    109          1           0       -7.550215   -2.428890    0.684733
    110          1           0       -8.408327   -0.791106   -1.405790
    111          1           0       -8.386780    0.337198    0.010929
    112          1           0       -9.664503   -2.136412    0.816151
    113          1           0      -10.371052   -1.585489   -0.715726
    114          1           0      -10.773257    0.739419    0.542216
    115          1           0      -12.739603   -1.131622    1.780158
    116          1           0      -12.582254   -1.237936   -0.003519
    117          1           0      -12.919431    0.308993    0.702060
    118          1           0       -9.523066   -0.849239    2.696180
    119          1           0      -11.153517   -0.278201    3.088262
    120          1           0      -10.764094    1.680316    3.330635
    121          1           0       -9.738220    2.016759    1.980947
    122          1           0       -8.419320    0.261348    4.131545
    123          1           0       -8.633440    1.827247    4.764616
    124          1           0       -7.165740    1.145020    2.174455
    125          1           0       -6.393355    0.170947    4.550375
    126          1           0       -5.945568    1.902741    4.796573
    127          1           0       -5.219132    0.914874    3.500263
    128          1           0       -6.428373    3.516547    3.610512
    129          1           0       -8.060343    3.575956    3.005516
    130          1           0       -6.301363    2.455053    0.958760
    131          1           0       -5.635921    3.982180    1.554299
    132          1           0       -7.395117    5.304696    0.627631
    133          1           0       -8.592636    3.956606    0.754879
    134          1           0       -7.046466    2.739227   -0.955352
    135          1           0       -5.798645    5.177134   -0.983221
    136          1           0       -6.809144    5.347678   -2.352005
    137          1           0       -5.809535    3.971112   -2.383870
    138          1           0       -8.698658    4.184508   -2.742711
    139          1           0       -9.552286    4.241484   -1.204334
    140          1           0       -9.130087    2.732813   -1.917301
 ---------------------------------------------------------------------

 SCF Done:  E(RZINDO/S) =  -474.188329920     A.U. after   20 cycles

 Excitation energies and oscillator strengths:

 Excited State   1:      Singlet-A      1.2431 eV  997.35 nm  f=0.6002  <S**2>=0.000
     175 ->178        -0.16619
     176 ->177         0.66904
 This state for optimization and/or second-order correction.
 Total Energy, E(CIS/TDA) =  -474.142645318
 Copying the excited state density for this state as the 1-particle RhoCI density.

 Excited State   2:      Singlet-A      1.8998 eV  652.62 nm  f=0.0427  <S**2>=0.000
     175 ->177         0.54348
     176 ->178         0.41923

 Excited State   3:      Singlet-A      2.8557 eV  434.17 nm  f=0.1340  <S**2>=0.000
     171 ->177         0.27175
     171 ->178        -0.10655
     171 ->179         0.21043
     171 ->180         0.19218
     171 ->182         0.15663
     171 ->184        -0.12264
     171 ->186         0.12480
     171 ->187         0.13696
     173 ->177         0.21824
     173 ->179         0.13374
     173 ->180         0.11165
     175 ->177        -0.15545
     176 ->178         0.21923

 Excited State   4:      Singlet-A      2.8927 eV  428.62 nm  f=0.0009  <S**2>=0.000
     167 ->179        -0.11060
     168 ->177         0.29181
     168 ->178        -0.11359
     168 ->179        -0.43254
     168 ->180         0.23136
     168 ->182         0.10947
     168 ->186        -0.21003
     168 ->192         0.14957

 Excited State   5:      Singlet-A      2.9587 eV  419.05 nm  f=0.8812  <S**2>=0.000
     170 ->177         0.11048
     171 ->177        -0.12753
     171 ->179        -0.10692
     175 ->177        -0.36546
     176 ->178         0.48015
     176 ->179        -0.11040

 The electronic state is 1-A.
 Alpha  occ. eigenvalues --   -1.86762  -1.79490  -1.78709  -1.72911  -1.72375
 Alpha  occ. eigenvalues --   -1.70561  -1.65182  -1.62433  -1.61855  -1.59083
 Alpha  occ. eigenvalues --   -1.55825  -1.52028  -1.48731  -1.47593  -1.46158
 Alpha  occ. eigenvalues --   -1.44278  -1.42148  -1.39749  -1.37595  -1.37282
 Alpha  occ. eigenvalues --   -1.35460  -1.32943  -1.32418  -1.30335  -1.28372
 Alpha  occ. eigenvalues --   -1.27914  -1.26446  -1.23002  -1.21163  -1.18233
 Alpha  occ. eigenvalues --   -1.16633  -1.16582  -1.15085  -1.14016  -1.13283
 Alpha  occ. eigenvalues --   -1.11235  -1.10929  -1.10711  -1.05596  -1.04454
 Alpha  occ. eigenvalues --   -1.02724  -1.01256  -0.99594  -0.97595  -0.96515
 Alpha  occ. eigenvalues --   -0.96349  -0.95246  -0.94525  -0.92993  -0.92528
 Alpha  occ. eigenvalues --   -0.91096  -0.90628  -0.89661  -0.88371  -0.87052
 Alpha  occ. eigenvalues --   -0.86613  -0.85122  -0.83656  -0.82752  -0.79771
 Alpha  occ. eigenvalues --   -0.79221  -0.78925  -0.77234  -0.77123  -0.76934
 Alpha  occ. eigenvalues --   -0.76245  -0.75967  -0.75554  -0.74107  -0.73357
 Alpha  occ. eigenvalues --   -0.72929  -0.72177  -0.71570  -0.71141  -0.70880
 Alpha  occ. eigenvalues --   -0.70683  -0.70173  -0.69264  -0.67783  -0.67776
 Alpha  occ. eigenvalues --   -0.67705  -0.66602  -0.66398  -0.66348  -0.65818
 Alpha  occ. eigenvalues --   -0.65641  -0.65034  -0.64530  -0.64246  -0.64137
 Alpha  occ. eigenvalues --   -0.63315  -0.63063  -0.62938  -0.62343  -0.62111
 Alpha  occ. eigenvalues --   -0.61125  -0.60864  -0.60742  -0.60186  -0.59996
 Alpha  occ. eigenvalues --   -0.59527  -0.59214  -0.59067  -0.58819  -0.58238
 Alpha  occ. eigenvalues --   -0.58127  -0.57492  -0.57112  -0.56814  -0.56720
 Alpha  occ. eigenvalues --   -0.56245  -0.55718  -0.55649  -0.55056  -0.54789
 Alpha  occ. eigenvalues --   -0.54711  -0.54090  -0.53409  -0.53082  -0.52924
 Alpha  occ. eigenvalues --   -0.52868  -0.52567  -0.52243  -0.52114  -0.51762
 Alpha  occ. eigenvalues --   -0.51486  -0.51397  -0.51191  -0.50760  -0.50254
 Alpha  occ. eigenvalues --   -0.50091  -0.49746  -0.49347  -0.49250  -0.49159
 Alpha  occ. eigenvalues --   -0.48755  -0.48590  -0.48052  -0.47884  -0.47703
 Alpha  occ. eigenvalues --   -0.47538  -0.47192  -0.47067  -0.47038  -0.46726
 Alpha  occ. eigenvalues --   -0.46551  -0.46013  -0.45900  -0.45550  -0.45424
 Alpha  occ. eigenvalues --   -0.45147  -0.44844  -0.44446  -0.44335  -0.43962
 Alpha  occ. eigenvalues --   -0.43693  -0.43655  -0.43305  -0.42867  -0.42555
 Alpha  occ. eigenvalues --   -0.42291  -0.41431  -0.41266  -0.39666  -0.38830
 Alpha  occ. eigenvalues --   -0.38174  -0.37476  -0.35521  -0.34604  -0.33717
 Alpha  occ. eigenvalues --   -0.33469  -0.32873  -0.32809  -0.31543  -0.26967
 Alpha  occ. eigenvalues --   -0.21882
 Alpha virt. eigenvalues --   -0.08875  -0.02400  -0.00673   0.01167   0.01454
 Alpha virt. eigenvalues --    0.01674   0.02642   0.03264   0.04504   0.04632
 Alpha virt. eigenvalues --    0.06317   0.06382   0.06872   0.07203   0.07616

 Mulliken charges:
               1
     1  Mg   0.428319
     2  C   -0.040552
     3  C   -0.072963
     4  C   -0.102633
     5  C   -0.082591
     6  N   -0.276054
     7  C    0.091814
     8  C   -0.003215
     9  C    0.011412
    10  C    0.154407
    11  C   -0.047634
    12  C   -0.026599
    13  C   -0.000624
    14  C    0.481114
    15  O   -0.516093
    16  O   -0.265496
    17  N   -0.309776
    18  C    0.121699
    19  C    0.063979
    20  C   -0.045766
    21  C    0.153847
    22  C   -0.039681
    23  C    0.328003
    24  O   -0.523142
    25  C   -0.033309
    26  N   -0.293288
    27  C    0.148256
    28  C    0.003011
    29  C    0.005097
    30  C    0.114806
    31  C   -0.051545
    32  C   -0.031280
    33  C   -0.066976
    34  N   -0.310989
    35  C    0.077577
    36  C    0.007321
    37  C   -0.054284
    38  C    0.111679
    39  C   -0.038628
    40  C    0.344553
    41  O   -0.563370
    42  C    0.068127
    43  C    0.495277
    44  O   -0.518276
    45  O   -0.288421
    46  C    0.072021
    47  C    0.100307
    48  C   -0.108221
    49  C    0.007871
    50  C   -0.041810
    51  C   -0.019273
    52  C   -0.025111
    53  C   -0.039480
    54  C   -0.025125
    55  C   -0.059064
    56  C   -0.038456
    57  C   -0.034420
    58  C   -0.039926
    59  C   -0.020006
    60  C   -0.062456
    61  C   -0.043674
    62  C   -0.047527
    63  C   -0.039528
    64  C   -0.004535
    65  C   -0.053921
    66  C   -0.052384
    67  H    0.026502
    68  H    0.035091
    69  H    0.035168
    70  H    0.044030
    71  H    0.038212
    72  H    0.023836
    73  H    0.025056
    74  H    0.034153
    75  H    0.014455
    76  H    0.041993
    77  H    0.039985
    78  H    0.042000
    79  H    0.041768
    80  H    0.029998
    81  H    0.047345
    82  H    0.044572
    83  H    0.034721
    84  H    0.036553
    85  H    0.033670
    86  H    0.022701
    87  H    0.030681
    88  H    0.017612
    89  H    0.014656
    90  H    0.016926
    91  H    0.014743
    92  H    0.011274
    93  H    0.035821
    94  H    0.026037
    95  H    0.034505
    96  H    0.026753
    97  H    0.022618
    98  H    0.056476
    99  H    0.034074
   100  H    0.036502
   101  H    0.057771
   102  H    0.039589
   103  H    0.044830
   104  H    0.025283
   105  H    0.030818
   106  H    0.021962
   107  H    0.027959
   108  H    0.013676
   109  H    0.022273
   110  H    0.026356
   111  H    0.024435
   112  H    0.026125
   113  H    0.011221
   114  H    0.020417
   115  H    0.027530
   116  H    0.019162
   117  H    0.019214
   118  H    0.029366
   119  H    0.014143
   120  H    0.012499
   121  H    0.031847
   122  H    0.013377
   123  H    0.028881
   124  H    0.020784
   125  H    0.015432
   126  H    0.022750
   127  H    0.014132
   128  H    0.017876
   129  H    0.012897
   130  H    0.024007
   131  H    0.017035
   132  H    0.031462
   133  H    0.017701
   134  H    0.019838
   135  H    0.021155
   136  H    0.011669
   137  H    0.015979
   138  H    0.016439
   139  H    0.017857
   140  H    0.011372
 Sum of Mulliken charges =  -0.00000

 Dipole moment (field-independent basis, Debye):
    X=             -1.2765    Y=              7.4536    Z=              0.6054  Tot=              7.5863
 N-N= 4.494306661897D+03 E-N= 0.000000000000D+00  KE=-9.662387211795D+03
 Leave Link  601 at Sat Apr 30 04:06:12 2022, MaxMem=  6710886400 cpu:               0.9 elap:               0.1
 (Enter /sw/apps/gaussian-16.0/g16/l9999.exe)
 1\1\GINC-BP1-COMPUTE082\SP\RZINDO CIS\STO-3G\C55H74Mg1N4O6\OF15641\30-
 Apr-2022\0\\#p ZINDO=(nstates=5)\\step_551_chromophore_23 ZINDO\\0,1\M
 g,0,-9.829,40.515,43.632\C,0,-8.572,37.417,42.691\C,0,-7.604,42.001,41
 .429\C,0,-11.543,43.552,44.089\C,0,-12.551,38.856,45.231\N,0,-8.302,39
 .788,42.194\C,0,-7.961,38.492,41.983\C,0,-6.747,38.288,41.029\C,0,-6.4
 49,39.821,40.633\C,0,-7.482,40.606,41.432\C,0,-4.949,40.266,40.878\C,0
 ,-7.127,37.272,39.911\C,0,-5.917,36.257,39.587\C,0,-4.91,36.705,38.594

 Normal termination of Gaussian 16 at Sat Apr 30 04:06:12 2022.
