 Gaussian 16, Revision A.03,
 Gaussian 16:  ES64L-G16RevA.03 25-Dec-2016

 ------------------------------
 #p blyp/Def2SVP td=(nstates=5)
 ------------------------------

 ---------------------------------------------------
 step_1501_chromophore_14 TDDFT with blyp functional
 ---------------------------------------------------
 Symbolic Z-matrix:
 Charge =  0 Multiplicity = 1

                         Standard orientation:
 ---------------------------------------------------------------------
 Center     Atomic      Atomic             Coordinates (Angstroms)
 Number     Number       Type             X           Y           Z
 ---------------------------------------------------------------------
      1         12           0        5.083242    1.009721   -0.039159
      2          6           0        4.992534   -2.535541    0.313839
      3          6           0        4.384938    0.621549   -3.367823
      4          6           0        4.772018    4.299147   -0.207569
      5          6           0        5.927784    1.105030    3.388559
      6          7           0        4.634253   -0.802659   -1.314048
      7          6           0        4.760971   -2.113850   -0.990650
      8          6           0        4.357336   -2.985377   -2.175189
      9          6           0        4.482818   -1.992459   -3.363899
     10          6           0        4.571212   -0.609444   -2.699201
     11          6           0        5.605834   -2.213393   -4.321208
     12          6           0        2.961183   -3.712430   -2.109686
     13          6           0        1.796356   -3.063853   -1.213788
     14          6           0        0.404038   -3.210413   -1.701827
     15          8           0        0.090307   -4.042975   -2.523125
     16          8           0       -0.403830   -2.116828   -1.335812
     17          7           0        4.615559    2.258151   -1.528456
     18          6           0        4.408882    1.930716   -2.879891
     19          6           0        4.340438    3.071819   -3.691894
     20          6           0        4.368715    4.216132   -2.803830
     21          6           0        4.591263    3.622612   -1.418408
     22          6           0        3.999574    3.106310   -5.134391
     23          6           0        4.267052    5.712037   -3.270739
     24          8           0        4.150294    5.952119   -4.444623
     25          6           0        4.354040    6.840753   -2.272508
     26          7           0        5.300382    2.495881    1.402440
     27          6           0        5.084515    3.785365    1.119031
     28          6           0        5.280822    4.630670    2.320439
     29          6           0        5.422175    3.616319    3.546335
     30          6           0        5.574731    2.345501    2.748653
     31          6           0        6.365969    5.744058    2.225852
     32          6           0        4.390030    3.686944    4.723042
     33          6           0        4.997466    4.238974    6.004849
     34          7           0        5.471654   -0.364368    1.566979
     35          6           0        5.729462   -0.199981    2.894833
     36          6           0        5.680217   -1.434119    3.565065
     37          6           0        5.414622   -2.408317    2.610125
     38          6           0        5.328697   -1.716774    1.404044
     39          6           0        5.981297   -1.569794    5.036042
     40          6           0        5.161561   -3.776078    2.377947
     41          8           0        5.175472   -4.718056    3.164411
     42          6           0        4.947698   -3.892197    0.822365
     43          6           0        5.836739   -4.926191    0.114184
     44          8           0        5.492743   -5.724625   -0.708899
     45          8           0        7.100729   -4.899391    0.642984
     46          6           0        7.936340   -6.076436    0.273559
     47          6           0       -1.816036   -2.201967   -1.711789
     48          6           0       -2.742177   -1.172787   -0.956244
     49          6           0       -3.861212   -0.619807   -1.522084
     50          6           0       -4.369225   -0.897355   -2.932387
     51          6           0       -4.847888    0.185079   -0.642638
     52          6           0       -5.923009   -0.672849    0.065115
     53          6           0       -6.402548    0.036080    1.360030
     54          6           0       -7.875746    0.423144    1.363492
     55          6           0       -8.036272    1.686044    2.284899
     56          6           0       -8.822345   -0.804853    1.754404
     57          6           0       -9.934131   -1.117176    0.698621
     58          6           0      -11.225250   -1.634679    1.411784
     59          6           0      -12.515126   -0.810471    1.216267
     60          6           0      -13.595698   -1.089173    2.342385
     61          6           0      -13.177121   -1.090473   -0.171224
     62          6           0      -13.752272    0.181345   -0.935502
     63          6           0      -15.308407    0.259266   -0.755348
     64          6           0      -15.834779    1.529961   -0.091035
     65          6           0      -17.159272    1.161592    0.576138
     66          6           0      -16.132620    2.730389   -1.112644
     67          1           0        4.344909    0.557284   -4.457306
     68          1           0        4.534345    5.363043   -0.275436
     69          1           0        6.069272    1.180156    4.469034
     70          1           0        5.182438   -3.696935   -2.180385
     71          1           0        3.548836   -1.899184   -3.918516
     72          1           0        5.243614   -2.227029   -5.349432
     73          1           0        6.091495   -3.171202   -4.136336
     74          1           0        6.420640   -1.508989   -4.154764
     75          1           0        3.252235   -4.636135   -1.609007
     76          1           0        2.641042   -3.758228   -3.150909
     77          1           0        2.019382   -2.021353   -0.991510
     78          1           0        1.732313   -3.629085   -0.283327
     79          1           0        3.007160    3.431183   -5.445643
     80          1           0        3.981310    2.061785   -5.446507
     81          1           0        4.708808    3.634260   -5.771388
     82          1           0        5.382479    6.845980   -1.912244
     83          1           0        3.718169    6.674435   -1.402798
     84          1           0        4.205064    7.785379   -2.795616
     85          1           0        4.303538    5.098346    2.440196
     86          1           0        6.438063    3.710953    3.928550
     87          1           0        6.934934    5.555634    1.315906
     88          1           0        6.988411    5.830651    3.116323
     89          1           0        5.926229    6.697214    1.933121
     90          1           0        3.908945    2.727214    4.912491
     91          1           0        3.506890    4.276554    4.479991
     92          1           0        6.084668    4.284633    5.947034
     93          1           0        4.663587    3.645762    6.855810
     94          1           0        4.546960    5.209043    6.217765
     95          1           0        5.805018   -0.585596    5.469791
     96          1           0        6.991556   -1.952175    5.178862
     97          1           0        5.285487   -2.302023    5.446791
     98          1           0        3.980782   -4.340665    0.593527
     99          1           0        8.518898   -6.532768    1.074364
    100          1           0        8.618888   -5.816568   -0.535663
    101          1           0        7.349514   -6.888628   -0.158690
    102          1           0       -2.216183   -3.207107   -1.573555
    103          1           0       -1.793765   -2.095063   -2.796706
    104          1           0       -2.572368   -1.024137    0.109699
    105          1           0       -3.829882   -1.660390   -3.491902
    106          1           0       -4.595927   -0.011884   -3.526273
    107          1           0       -5.371820   -1.287356   -2.755109
    108          1           0       -5.347000    0.948563   -1.239004
    109          1           0       -4.131876    0.698797   -0.000107
    110          1           0       -5.403028   -1.555498    0.437214
    111          1           0       -6.818965   -0.772949   -0.546929
    112          1           0       -5.800236    0.941842    1.414192
    113          1           0       -6.168143   -0.518961    2.268605
    114          1           0       -8.219095    0.817901    0.407365
    115          1           0       -8.903713    1.513965    2.921760
    116          1           0       -8.058301    2.416297    1.475965
    117          1           0       -7.171800    1.946452    2.895815
    118          1           0       -9.275451   -0.735324    2.743670
    119          1           0       -8.304172   -1.746968    1.932304
    120          1           0       -9.619856   -1.869729   -0.024568
    121          1           0      -10.242014   -0.246911    0.118207
    122          1           0      -11.091745   -1.852381    2.470878
    123          1           0      -11.491499   -2.622773    1.036677
    124          1           0      -12.279324    0.245150    1.351818
    125          1           0      -13.421219   -2.109041    2.683100
    126          1           0      -14.612810   -1.058065    1.950350
    127          1           0      -13.501928   -0.449851    3.219871
    128          1           0      -13.936712   -1.862073   -0.048996
    129          1           0      -12.446559   -1.597866   -0.801726
    130          1           0      -13.380890    0.145510   -1.959809
    131          1           0      -13.291828    1.037377   -0.442020
    132          1           0      -15.625685   -0.534013   -0.078231
    133          1           0      -15.816630    0.193126   -1.718025
    134          1           0      -15.147211    1.790642    0.714461
    135          1           0      -17.824503    2.022574    0.503436
    136          1           0      -17.054398    0.921221    1.634573
    137          1           0      -17.658801    0.284447    0.162385
    138          1           0      -15.391798    3.516079   -0.962235
    139          1           0      -17.127308    3.170658   -1.181352
    140          1           0      -15.878175    2.465576   -2.138883
 ---------------------------------------------------------------------

 SCF Done:  E(RB-LYP) =  -3007.37985842     A.U. after   21 cycles

 Excitation energies and oscillator strengths:

 Excited State   1:      Singlet-A      1.8011 eV  688.39 nm  f=0.2693  <S**2>=0.000
     244 -> 247        0.13030
     245 -> 248       -0.20486
     246 -> 247        0.66857
     246 <- 247       -0.13987
 This state for optimization and/or second-order correction.
 Total Energy, E(TD-HF/TD-DFT) =  -3007.31366995
 Copying the excited state density for this state as the 1-particle RhoCI density.

 Excited State   2:      Singlet-A      1.9047 eV  650.95 nm  f=0.0297  <S**2>=0.000
     244 -> 247        0.65670
     245 -> 247        0.20251
     246 -> 247       -0.14281

 Excited State   3:      Singlet-A      1.9994 eV  620.10 nm  f=0.0651  <S**2>=0.000
     244 -> 247       -0.22211
     245 -> 247        0.60593
     246 -> 248        0.24326

 Excited State   4:      Singlet-A      2.0403 eV  607.69 nm  f=0.0021  <S**2>=0.000
     243 -> 247        0.70107

 Excited State   5:      Singlet-A      2.2593 eV  548.76 nm  f=0.0003  <S**2>=0.000
     242 -> 247        0.70675

 The electronic state is 1-A.
 Alpha  occ. eigenvalues --  -46.26736 -18.82350 -18.81101 -18.77700 -18.76567
 Alpha  occ. eigenvalues --  -18.75996 -18.75329 -14.03651 -14.03211 -14.01285
 Alpha  occ. eigenvalues --  -14.00470 -10.04496 -10.03554 -10.00347  -9.99178
 Alpha  occ. eigenvalues --   -9.97737  -9.97500  -9.97358  -9.97107  -9.96678
 Alpha  occ. eigenvalues --   -9.96656  -9.96124  -9.95613  -9.94800  -9.94533
 Alpha  occ. eigenvalues --   -9.94398  -9.94170  -9.93737  -9.93520  -9.93451
 Alpha  occ. eigenvalues --   -9.93385  -9.93377  -9.93369  -9.93350  -9.93255
 Alpha  occ. eigenvalues --   -9.93201  -9.93199  -9.93178  -9.93126  -9.93081
 Alpha  occ. eigenvalues --   -9.93054  -9.92939  -9.92556  -9.92466  -9.92396
 Alpha  occ. eigenvalues --   -9.92255  -9.92215  -9.92191  -9.92145  -9.92134
 Alpha  occ. eigenvalues --   -9.91986  -9.91888  -9.91842  -9.91672  -9.91655
 Alpha  occ. eigenvalues --   -9.91535  -9.91395  -9.91001  -9.90997  -9.90975
 Alpha  occ. eigenvalues --   -9.90948  -9.90945  -9.90920  -9.90849  -9.90419
 Alpha  occ. eigenvalues --   -9.90274  -2.91436  -1.71875  -1.71304  -1.71157
 Alpha  occ. eigenvalues --   -0.98657  -0.96594  -0.92850  -0.90884  -0.90583
 Alpha  occ. eigenvalues --   -0.89609  -0.87126  -0.86282  -0.85321  -0.84540
 Alpha  occ. eigenvalues --   -0.76733  -0.73289  -0.72767  -0.72405  -0.72131
 Alpha  occ. eigenvalues --   -0.71943  -0.71557  -0.71110  -0.70644  -0.70316
 Alpha  occ. eigenvalues --   -0.69613  -0.68818  -0.68198  -0.67600  -0.67186
 Alpha  occ. eigenvalues --   -0.66394  -0.65943  -0.65402  -0.64752  -0.64318
 Alpha  occ. eigenvalues --   -0.63948  -0.62615  -0.62507  -0.61441  -0.60991
 Alpha  occ. eigenvalues --   -0.60337  -0.60159  -0.59891  -0.59320  -0.58510
 Alpha  occ. eigenvalues --   -0.58264  -0.57679  -0.57346  -0.55475  -0.55381
 Alpha  occ. eigenvalues --   -0.54352  -0.53549  -0.52620  -0.52453  -0.52309
 Alpha  occ. eigenvalues --   -0.51824  -0.51228  -0.50699  -0.50602  -0.49967
 Alpha  occ. eigenvalues --   -0.49347  -0.49347  -0.48600  -0.48522  -0.46620
 Alpha  occ. eigenvalues --   -0.46162  -0.45795  -0.45604  -0.44668  -0.44224
 Alpha  occ. eigenvalues --   -0.43807  -0.43355  -0.42876  -0.42803  -0.42082
 Alpha  occ. eigenvalues --   -0.41965  -0.41823  -0.41597  -0.41456  -0.41341
 Alpha  occ. eigenvalues --   -0.41269  -0.40811  -0.40357  -0.40266  -0.39972
 Alpha  occ. eigenvalues --   -0.39883  -0.39678  -0.39391  -0.39160  -0.39071
 Alpha  occ. eigenvalues --   -0.38969  -0.38626  -0.38428  -0.38398  -0.38287
 Alpha  occ. eigenvalues --   -0.38076  -0.37843  -0.37457  -0.37287  -0.37169
 Alpha  occ. eigenvalues --   -0.36975  -0.36848  -0.36686  -0.36466  -0.36446
 Alpha  occ. eigenvalues --   -0.36350  -0.36195  -0.36003  -0.35819  -0.35614
 Alpha  occ. eigenvalues --   -0.35492  -0.35337  -0.34954  -0.34912  -0.34714
 Alpha  occ. eigenvalues --   -0.34682  -0.34449  -0.34321  -0.34131  -0.34046
 Alpha  occ. eigenvalues --   -0.33808  -0.33736  -0.33497  -0.33333  -0.33214
 Alpha  occ. eigenvalues --   -0.32892  -0.32580  -0.32439  -0.32391  -0.32299
 Alpha  occ. eigenvalues --   -0.32208  -0.31885  -0.31845  -0.31623  -0.31421
 Alpha  occ. eigenvalues --   -0.31273  -0.31221  -0.31210  -0.31081  -0.30747
 Alpha  occ. eigenvalues --   -0.30558  -0.30307  -0.30149  -0.30073  -0.30000
 Alpha  occ. eigenvalues --   -0.29980  -0.29538  -0.29398  -0.29186  -0.29023
 Alpha  occ. eigenvalues --   -0.28763  -0.28438  -0.28329  -0.27913  -0.27895
 Alpha  occ. eigenvalues --   -0.27454  -0.27295  -0.26857  -0.26800  -0.26778
 Alpha  occ. eigenvalues --   -0.26654  -0.26463  -0.25770  -0.25491  -0.25358
 Alpha  occ. eigenvalues --   -0.25257  -0.24619  -0.24436  -0.24322  -0.24189
 Alpha  occ. eigenvalues --   -0.23489  -0.23277  -0.21790  -0.21566  -0.20652
 Alpha  occ. eigenvalues --   -0.20387  -0.20026  -0.19129  -0.18615  -0.17416
 Alpha  occ. eigenvalues --   -0.16053
 Alpha virt. eigenvalues --   -0.11724  -0.07418  -0.05986  -0.04476  -0.02816
 Alpha virt. eigenvalues --   -0.02461  -0.01916  -0.01882  -0.01221  -0.00503
 Alpha virt. eigenvalues --    0.00677   0.01179   0.02324   0.02889   0.03016

 Mulliken charges:
               1
     1  Mg   0.695272
     2  C    0.049789
     3  C   -0.072198
     4  C   -0.065764
     5  C   -0.056487
     6  N   -0.221227
     7  C   -0.155727
     8  C    0.062940
     9  C   -0.022861
    10  C    0.025250
    11  C    0.156709
    12  C    0.149636
    13  C    0.105448
    14  C    0.058473
    15  O   -0.177828
    16  O   -0.296182
    17  N   -0.344550
    18  C    0.174139
    19  C   -0.125859
    20  C   -0.002596
    21  C    0.137961
    22  C    0.192455
    23  C   -0.077433
    24  O   -0.140015
    25  C    0.134870
    26  N   -0.223655
    27  C    0.021443
    28  C    0.019023
    29  C    0.043209
    30  C   -0.031841
    31  C    0.145901
    32  C    0.119815
    33  C    0.064706
    34  N   -0.228742
    35  C    0.104491
    36  C   -0.201474
    37  C    0.125310
    38  C    0.059037
    39  C    0.181619
    40  C   -0.054349
    41  O   -0.126047
    42  C    0.062562
    43  C    0.079746
    44  O   -0.150243
    45  O   -0.268988
    46  C    0.204988
    47  C    0.275654
    48  C   -0.049404
    49  C   -0.147142
    50  C    0.156573
    51  C    0.069123
    52  C    0.137064
    53  C    0.087765
    54  C   -0.081851
    55  C    0.099484
    56  C    0.103921
    57  C    0.085258
    58  C    0.084396
    59  C   -0.083473
    60  C    0.091507
    61  C    0.071995
    62  C    0.108991
    63  C    0.097194
    64  C   -0.084532
    65  C    0.089503
    66  C    0.095637
    67  H   -0.057755
    68  H   -0.097619
    69  H   -0.067793
    70  H   -0.028656
    71  H   -0.021093
    72  H   -0.001009
    73  H   -0.018289
    74  H   -0.012545
    75  H    0.001169
    76  H   -0.000078
    77  H    0.019546
    78  H    0.007344
    79  H    0.006859
    80  H   -0.055015
    81  H    0.007755
    82  H    0.007893
    83  H    0.030644
    84  H   -0.006738
    85  H   -0.025026
    86  H   -0.020077
    87  H   -0.014790
    88  H    0.007611
    89  H   -0.013541
    90  H   -0.021657
    91  H   -0.028486
    92  H    0.000147
    93  H   -0.011494
    94  H   -0.008762
    95  H   -0.016123
    96  H    0.014598
    97  H    0.002414
    98  H   -0.016657
    99  H    0.024787
   100  H    0.006072
   101  H    0.019354
   102  H    0.002138
   103  H   -0.005598
   104  H   -0.035156
   105  H   -0.008523
   106  H   -0.006264
   107  H   -0.016971
   108  H   -0.034956
   109  H   -0.014073
   110  H   -0.032037
   111  H   -0.011802
   112  H   -0.047019
   113  H   -0.028908
   114  H   -0.037813
   115  H   -0.009446
   116  H   -0.012947
   117  H   -0.012723
   118  H   -0.035025
   119  H   -0.037060
   120  H   -0.020810
   121  H   -0.022449
   122  H   -0.040706
   123  H   -0.047444
   124  H   -0.037728
   125  H   -0.025564
   126  H   -0.015532
   127  H   -0.014312
   128  H   -0.034317
   129  H   -0.047377
   130  H   -0.029242
   131  H   -0.032245
   132  H   -0.023743
   133  H   -0.029604
   134  H   -0.031168
   135  H   -0.024522
   136  H   -0.022222
   137  H   -0.014417
   138  H   -0.020816
   139  H   -0.002849
   140  H   -0.030125
 Sum of Mulliken charges =  -0.00000

 Dipole moment (field-independent basis, Debye):
    X=              0.3626    Y=              4.3985    Z=              2.3452  Tot=              4.9978
 Quadrupole moment (field-independent basis, Debye-Ang):
   XX=           -376.6257   YY=           -425.9842   ZZ=           -408.8363
   XY=             11.0400   XZ=              8.8126   YZ=             30.3144

 Normal termination of Gaussian 16 at Thu Apr 28 07:23:45 2022.
