 Gaussian 16, Revision A.03,
 Gaussian 16:  ES64L-G16RevA.03 25-Dec-2016

 -----------------------------------
 #p cam-b3lyp/Def2SVP td=(nstates=5)
 -----------------------------------

 --------------------------------------------------------
 step_1501_chromophore_14 TDDFT with cam-b3lyp functional
 --------------------------------------------------------
 Symbolic Z-matrix:
 Charge =  0 Multiplicity = 1

                         Standard orientation:
 ---------------------------------------------------------------------
 Center     Atomic      Atomic             Coordinates (Angstroms)
 Number     Number       Type             X           Y           Z
 ---------------------------------------------------------------------
      1         12           0        5.083242    1.009721   -0.039159
      2          6           0        4.992534   -2.535541    0.313839
      3          6           0        4.384938    0.621549   -3.367823
      4          6           0        4.772018    4.299147   -0.207569
      5          6           0        5.927784    1.105030    3.388559
      6          7           0        4.634253   -0.802659   -1.314048
      7          6           0        4.760971   -2.113850   -0.990650
      8          6           0        4.357336   -2.985377   -2.175189
      9          6           0        4.482818   -1.992459   -3.363899
     10          6           0        4.571212   -0.609444   -2.699201
     11          6           0        5.605834   -2.213393   -4.321208
     12          6           0        2.961183   -3.712430   -2.109686
     13          6           0        1.796356   -3.063853   -1.213788
     14          6           0        0.404038   -3.210413   -1.701827
     15          8           0        0.090307   -4.042975   -2.523125
     16          8           0       -0.403830   -2.116828   -1.335812
     17          7           0        4.615559    2.258151   -1.528456
     18          6           0        4.408882    1.930716   -2.879891
     19          6           0        4.340438    3.071819   -3.691894
     20          6           0        4.368715    4.216132   -2.803830
     21          6           0        4.591263    3.622612   -1.418408
     22          6           0        3.999574    3.106310   -5.134391
     23          6           0        4.267052    5.712037   -3.270739
     24          8           0        4.150294    5.952119   -4.444623
     25          6           0        4.354040    6.840753   -2.272508
     26          7           0        5.300382    2.495881    1.402440
     27          6           0        5.084515    3.785365    1.119031
     28          6           0        5.280822    4.630670    2.320439
     29          6           0        5.422175    3.616319    3.546335
     30          6           0        5.574731    2.345501    2.748653
     31          6           0        6.365969    5.744058    2.225852
     32          6           0        4.390030    3.686944    4.723042
     33          6           0        4.997466    4.238974    6.004849
     34          7           0        5.471654   -0.364368    1.566979
     35          6           0        5.729462   -0.199981    2.894833
     36          6           0        5.680217   -1.434119    3.565065
     37          6           0        5.414622   -2.408317    2.610125
     38          6           0        5.328697   -1.716774    1.404044
     39          6           0        5.981297   -1.569794    5.036042
     40          6           0        5.161561   -3.776078    2.377947
     41          8           0        5.175472   -4.718056    3.164411
     42          6           0        4.947698   -3.892197    0.822365
     43          6           0        5.836739   -4.926191    0.114184
     44          8           0        5.492743   -5.724625   -0.708899
     45          8           0        7.100729   -4.899391    0.642984
     46          6           0        7.936340   -6.076436    0.273559
     47          6           0       -1.816036   -2.201967   -1.711789
     48          6           0       -2.742177   -1.172787   -0.956244
     49          6           0       -3.861212   -0.619807   -1.522084
     50          6           0       -4.369225   -0.897355   -2.932387
     51          6           0       -4.847888    0.185079   -0.642638
     52          6           0       -5.923009   -0.672849    0.065115
     53          6           0       -6.402548    0.036080    1.360030
     54          6           0       -7.875746    0.423144    1.363492
     55          6           0       -8.036272    1.686044    2.284899
     56          6           0       -8.822345   -0.804853    1.754404
     57          6           0       -9.934131   -1.117176    0.698621
     58          6           0      -11.225250   -1.634679    1.411784
     59          6           0      -12.515126   -0.810471    1.216267
     60          6           0      -13.595698   -1.089173    2.342385
     61          6           0      -13.177121   -1.090473   -0.171224
     62          6           0      -13.752272    0.181345   -0.935502
     63          6           0      -15.308407    0.259266   -0.755348
     64          6           0      -15.834779    1.529961   -0.091035
     65          6           0      -17.159272    1.161592    0.576138
     66          6           0      -16.132620    2.730389   -1.112644
     67          1           0        4.344909    0.557284   -4.457306
     68          1           0        4.534345    5.363043   -0.275436
     69          1           0        6.069272    1.180156    4.469034
     70          1           0        5.182438   -3.696935   -2.180385
     71          1           0        3.548836   -1.899184   -3.918516
     72          1           0        5.243614   -2.227029   -5.349432
     73          1           0        6.091495   -3.171202   -4.136336
     74          1           0        6.420640   -1.508989   -4.154764
     75          1           0        3.252235   -4.636135   -1.609007
     76          1           0        2.641042   -3.758228   -3.150909
     77          1           0        2.019382   -2.021353   -0.991510
     78          1           0        1.732313   -3.629085   -0.283327
     79          1           0        3.007160    3.431183   -5.445643
     80          1           0        3.981310    2.061785   -5.446507
     81          1           0        4.708808    3.634260   -5.771388
     82          1           0        5.382479    6.845980   -1.912244
     83          1           0        3.718169    6.674435   -1.402798
     84          1           0        4.205064    7.785379   -2.795616
     85          1           0        4.303538    5.098346    2.440196
     86          1           0        6.438063    3.710953    3.928550
     87          1           0        6.934934    5.555634    1.315906
     88          1           0        6.988411    5.830651    3.116323
     89          1           0        5.926229    6.697214    1.933121
     90          1           0        3.908945    2.727214    4.912491
     91          1           0        3.506890    4.276554    4.479991
     92          1           0        6.084668    4.284633    5.947034
     93          1           0        4.663587    3.645762    6.855810
     94          1           0        4.546960    5.209043    6.217765
     95          1           0        5.805018   -0.585596    5.469791
     96          1           0        6.991556   -1.952175    5.178862
     97          1           0        5.285487   -2.302023    5.446791
     98          1           0        3.980782   -4.340665    0.593527
     99          1           0        8.518898   -6.532768    1.074364
    100          1           0        8.618888   -5.816568   -0.535663
    101          1           0        7.349514   -6.888628   -0.158690
    102          1           0       -2.216183   -3.207107   -1.573555
    103          1           0       -1.793765   -2.095063   -2.796706
    104          1           0       -2.572368   -1.024137    0.109699
    105          1           0       -3.829882   -1.660390   -3.491902
    106          1           0       -4.595927   -0.011884   -3.526273
    107          1           0       -5.371820   -1.287356   -2.755109
    108          1           0       -5.347000    0.948563   -1.239004
    109          1           0       -4.131876    0.698797   -0.000107
    110          1           0       -5.403028   -1.555498    0.437214
    111          1           0       -6.818965   -0.772949   -0.546929
    112          1           0       -5.800236    0.941842    1.414192
    113          1           0       -6.168143   -0.518961    2.268605
    114          1           0       -8.219095    0.817901    0.407365
    115          1           0       -8.903713    1.513965    2.921760
    116          1           0       -8.058301    2.416297    1.475965
    117          1           0       -7.171800    1.946452    2.895815
    118          1           0       -9.275451   -0.735324    2.743670
    119          1           0       -8.304172   -1.746968    1.932304
    120          1           0       -9.619856   -1.869729   -0.024568
    121          1           0      -10.242014   -0.246911    0.118207
    122          1           0      -11.091745   -1.852381    2.470878
    123          1           0      -11.491499   -2.622773    1.036677
    124          1           0      -12.279324    0.245150    1.351818
    125          1           0      -13.421219   -2.109041    2.683100
    126          1           0      -14.612810   -1.058065    1.950350
    127          1           0      -13.501928   -0.449851    3.219871
    128          1           0      -13.936712   -1.862073   -0.048996
    129          1           0      -12.446559   -1.597866   -0.801726
    130          1           0      -13.380890    0.145510   -1.959809
    131          1           0      -13.291828    1.037377   -0.442020
    132          1           0      -15.625685   -0.534013   -0.078231
    133          1           0      -15.816630    0.193126   -1.718025
    134          1           0      -15.147211    1.790642    0.714461
    135          1           0      -17.824503    2.022574    0.503436
    136          1           0      -17.054398    0.921221    1.634573
    137          1           0      -17.658801    0.284447    0.162385
    138          1           0      -15.391798    3.516079   -0.962235
    139          1           0      -17.127308    3.170658   -1.181352
    140          1           0      -15.878175    2.465576   -2.138883
 ---------------------------------------------------------------------

 SCF Done:  E(RCAM-B3LYP) =  -3007.17078504     A.U. after   18 cycles

 Excitation energies and oscillator strengths:

 Excited State   1:      Singlet-A      1.7185 eV  721.47 nm  f=0.3720  <S**2>=0.000
     245 -> 248       -0.18755
     246 -> 247        0.68300
     245 <- 248       -0.10820
 This state for optimization and/or second-order correction.
 Total Energy, E(TD-HF/TD-DFT) =  -3007.10763145
 Copying the excited state density for this state as the 1-particle RhoCI density.

 Excited State   2:      Singlet-A      2.2213 eV  558.15 nm  f=0.0927  <S**2>=0.000
     245 -> 247        0.63042
     246 -> 248        0.30646

 Excited State   3:      Singlet-A      3.3593 eV  369.08 nm  f=0.0145  <S**2>=0.000
     242 -> 247       -0.35329
     244 -> 247        0.57923
     246 -> 248       -0.11886

 Excited State   4:      Singlet-A      3.4392 eV  360.50 nm  f=0.2463  <S**2>=0.000
     242 -> 247       -0.45149
     244 -> 247       -0.16606
     245 -> 247       -0.17805
     246 -> 248        0.46913

 Excited State   5:      Singlet-A      3.4918 eV  355.07 nm  f=0.1344  <S**2>=0.000
     240 -> 247        0.18716
     240 -> 249        0.10150
     241 -> 247        0.43412
     241 -> 249        0.26303
     241 -> 250        0.15330
     242 -> 247       -0.24214
     244 -> 247       -0.12245
     245 -> 247        0.13800
     246 -> 248       -0.23438

 The electronic state is 1-A.
 Alpha  occ. eigenvalues --  -46.88295 -19.25129 -19.23916 -19.20771 -19.19543
 Alpha  occ. eigenvalues --  -19.19446 -19.18350 -14.42530 -14.42240 -14.39936
 Alpha  occ. eigenvalues --  -14.38759 -10.39847 -10.38843 -10.35760 -10.34374
 Alpha  occ. eigenvalues --  -10.32158 -10.31795 -10.31547 -10.31449 -10.31407
 Alpha  occ. eigenvalues --  -10.31398 -10.30431 -10.30297 -10.28654 -10.28440
 Alpha  occ. eigenvalues --  -10.28385 -10.28365 -10.28246 -10.28065 -10.28021
 Alpha  occ. eigenvalues --  -10.27577 -10.27571 -10.27484 -10.27417 -10.27383
 Alpha  occ. eigenvalues --  -10.27259 -10.27230 -10.27187 -10.27078 -10.27001
 Alpha  occ. eigenvalues --  -10.26966 -10.26962 -10.26764 -10.26478 -10.26014
 Alpha  occ. eigenvalues --  -10.25975 -10.25921 -10.25861 -10.25853 -10.25742
 Alpha  occ. eigenvalues --  -10.25662 -10.25643 -10.25597 -10.25490 -10.25348
 Alpha  occ. eigenvalues --  -10.25242 -10.25094 -10.24704 -10.24648 -10.24644
 Alpha  occ. eigenvalues --  -10.24625 -10.24565 -10.24503 -10.24492 -10.24208
 Alpha  occ. eigenvalues --  -10.23852  -3.16904  -1.91818  -1.91347  -1.91223
 Alpha  occ. eigenvalues --   -1.17180  -1.15030  -1.11530  -1.09039  -1.08483
 Alpha  occ. eigenvalues --   -1.07409  -1.04876  -1.03845  -1.03053  -1.02246
 Alpha  occ. eigenvalues --   -0.93859  -0.90126  -0.89513  -0.89184  -0.88903
 Alpha  occ. eigenvalues --   -0.88679  -0.88231  -0.87716  -0.87218  -0.86843
 Alpha  occ. eigenvalues --   -0.86116  -0.85341  -0.84366  -0.83849  -0.83435
 Alpha  occ. eigenvalues --   -0.82561  -0.82034  -0.81456  -0.80463  -0.80121
 Alpha  occ. eigenvalues --   -0.79687  -0.78140  -0.78063  -0.77230  -0.76439
 Alpha  occ. eigenvalues --   -0.75675  -0.75495  -0.75225  -0.74600  -0.73708
 Alpha  occ. eigenvalues --   -0.73264  -0.72712  -0.72349  -0.70307  -0.69953
 Alpha  occ. eigenvalues --   -0.69025  -0.68088  -0.67098  -0.66715  -0.66536
 Alpha  occ. eigenvalues --   -0.66116  -0.65257  -0.64925  -0.64628  -0.63976
 Alpha  occ. eigenvalues --   -0.63324  -0.62997  -0.62493  -0.62164  -0.60360
 Alpha  occ. eigenvalues --   -0.59740  -0.59224  -0.59140  -0.58071  -0.57672
 Alpha  occ. eigenvalues --   -0.57335  -0.56731  -0.56179  -0.56072  -0.55382
 Alpha  occ. eigenvalues --   -0.55260  -0.54827  -0.54552  -0.54237  -0.54178
 Alpha  occ. eigenvalues --   -0.54021  -0.53505  -0.53287  -0.53129  -0.52850
 Alpha  occ. eigenvalues --   -0.52623  -0.52226  -0.52036  -0.51996  -0.51706
 Alpha  occ. eigenvalues --   -0.51637  -0.51370  -0.50826  -0.50715  -0.50660
 Alpha  occ. eigenvalues --   -0.50435  -0.50157  -0.50035  -0.49676  -0.49649
 Alpha  occ. eigenvalues --   -0.49411  -0.49206  -0.49108  -0.48938  -0.48608
 Alpha  occ. eigenvalues --   -0.48478  -0.48286  -0.48187  -0.48142  -0.47898
 Alpha  occ. eigenvalues --   -0.47554  -0.47299  -0.47117  -0.46794  -0.46781
 Alpha  occ. eigenvalues --   -0.46524  -0.46371  -0.46269  -0.46046  -0.45928
 Alpha  occ. eigenvalues --   -0.45621  -0.45462  -0.45349  -0.44943  -0.44859
 Alpha  occ. eigenvalues --   -0.44476  -0.44144  -0.44047  -0.43973  -0.43887
 Alpha  occ. eigenvalues --   -0.43818  -0.43485  -0.43185  -0.43113  -0.42973
 Alpha  occ. eigenvalues --   -0.42855  -0.42769  -0.42589  -0.42561  -0.42333
 Alpha  occ. eigenvalues --   -0.42173  -0.41952  -0.41670  -0.41373  -0.41314
 Alpha  occ. eigenvalues --   -0.41290  -0.40895  -0.40533  -0.40497  -0.40177
 Alpha  occ. eigenvalues --   -0.39786  -0.39510  -0.39446  -0.38888  -0.38756
 Alpha  occ. eigenvalues --   -0.38505  -0.38129  -0.38077  -0.37782  -0.37551
 Alpha  occ. eigenvalues --   -0.37371  -0.37214  -0.37075  -0.36391  -0.36147
 Alpha  occ. eigenvalues --   -0.35932  -0.35753  -0.35551  -0.34993  -0.34721
 Alpha  occ. eigenvalues --   -0.34483  -0.33801  -0.33536  -0.31482  -0.30954
 Alpha  occ. eigenvalues --   -0.30651  -0.30168  -0.29668  -0.29539  -0.24224
 Alpha  occ. eigenvalues --   -0.21371
 Alpha virt. eigenvalues --   -0.08864  -0.02384   0.00474   0.02522   0.03471
 Alpha virt. eigenvalues --    0.04765   0.05180   0.05449   0.05910   0.06149
 Alpha virt. eigenvalues --    0.07638   0.08061   0.08853   0.09083   0.09244

 Mulliken charges:
               1
     1  Mg   0.830060
     2  C    0.014423
     3  C   -0.083233
     4  C   -0.089129
     5  C   -0.059161
     6  N   -0.285452
     7  C   -0.110499
     8  C    0.016882
     9  C   -0.082782
    10  C    0.045670
    11  C    0.092928
    12  C    0.097385
    13  C    0.031378
    14  C    0.147551
    15  O   -0.218102
    16  O   -0.360770
    17  N   -0.436413
    18  C    0.179941
    19  C   -0.129865
    20  C   -0.064577
    21  C    0.170777
    22  C    0.134744
    23  C    0.002169
    24  O   -0.178895
    25  C    0.050051
    26  N   -0.300107
    27  C    0.049931
    28  C   -0.039744
    29  C   -0.015442
    30  C   -0.006415
    31  C    0.085082
    32  C    0.060360
    33  C    0.001516
    34  N   -0.315364
    35  C    0.102584
    36  C   -0.199519
    37  C    0.044813
    38  C    0.097037
    39  C    0.136097
    40  C    0.048477
    41  O   -0.166770
    42  C   -0.015724
    43  C    0.170730
    44  O   -0.193081
    45  O   -0.331348
    46  C    0.167023
    47  C    0.243864
    48  C   -0.073013
    49  C   -0.168650
    50  C    0.093302
    51  C    0.014404
    52  C    0.077325
    53  C    0.035560
    54  C   -0.136176
    55  C    0.042974
    56  C    0.048755
    57  C    0.033216
    58  C    0.028942
    59  C   -0.134399
    60  C    0.038616
    61  C    0.015264
    62  C    0.054241
    63  C    0.042403
    64  C   -0.140963
    65  C    0.029858
    66  C    0.034277
    67  H   -0.022047
    68  H   -0.062180
    69  H   -0.034496
    70  H    0.007962
    71  H    0.014665
    72  H    0.023609
    73  H    0.009108
    74  H    0.014698
    75  H    0.030789
    76  H    0.030489
    77  H    0.051504
    78  H    0.035612
    79  H    0.036405
    80  H   -0.027623
    81  H    0.037343
    82  H    0.035954
    83  H    0.055068
    84  H    0.030277
    85  H    0.010420
    86  H    0.014748
    87  H    0.011685
    88  H    0.032167
    89  H    0.010287
    90  H    0.009854
    91  H    0.000787
    92  H    0.021974
    93  H    0.013364
    94  H    0.014817
    95  H    0.004850
    96  H    0.039602
    97  H    0.027980
    98  H    0.023490
    99  H    0.046598
   100  H    0.027623
   101  H    0.044822
   102  H    0.030132
   103  H    0.021693
   104  H    0.000279
   105  H    0.016034
   106  H    0.019583
   107  H    0.006474
   108  H   -0.005590
   109  H    0.015406
   110  H   -0.001157
   111  H    0.013251
   112  H   -0.016474
   113  H    0.000042
   114  H   -0.006842
   115  H    0.013792
   116  H    0.009843
   117  H    0.011199
   118  H   -0.006489
   119  H   -0.007550
   120  H    0.006542
   121  H    0.002884
   122  H   -0.011050
   123  H   -0.018069
   124  H   -0.008324
   125  H   -0.001642
   126  H    0.004297
   127  H    0.010240
   128  H   -0.005449
   129  H   -0.016765
   130  H    0.000876
   131  H   -0.005016
   132  H    0.001580
   133  H   -0.000620
   134  H   -0.001025
   135  H    0.000364
   136  H    0.002179
   137  H    0.009738
   138  H    0.003566
   139  H    0.020766
   140  H   -0.005918
 Sum of Mulliken charges =  -0.00000

 Dipole moment (field-independent basis, Debye):
    X=              0.3029    Y=              5.1107    Z=              1.8722  Tot=              5.4513
 Quadrupole moment (field-independent basis, Debye-Ang):
   XX=           -376.8052   YY=           -422.0392   ZZ=           -406.9304
   XY=             14.0435   XZ=              5.8744   YZ=             30.1406

 Normal termination of Gaussian 16 at Thu Apr 28 06:21:46 2022.
