 Gaussian 16, Revision A.03,
 Gaussian 16:  ES64L-G16RevA.03 25-Dec-2016

 ---------------------------------
 #p PBE1PBE/Def2SVP td=(nstates=5)
 ---------------------------------

 ------------------------------------------------------
 step_1501_chromophore_14 TDDFT with PBE1PBE functional
 ------------------------------------------------------
 Symbolic Z-matrix:
 Charge =  0 Multiplicity = 1

                         Standard orientation:
 ---------------------------------------------------------------------
 Center     Atomic      Atomic             Coordinates (Angstroms)
 Number     Number       Type             X           Y           Z
 ---------------------------------------------------------------------
      1         12           0        5.083242    1.009721   -0.039159
      2          6           0        4.992534   -2.535541    0.313839
      3          6           0        4.384938    0.621549   -3.367823
      4          6           0        4.772018    4.299147   -0.207569
      5          6           0        5.927784    1.105030    3.388559
      6          7           0        4.634253   -0.802659   -1.314048
      7          6           0        4.760971   -2.113850   -0.990650
      8          6           0        4.357336   -2.985377   -2.175189
      9          6           0        4.482818   -1.992459   -3.363899
     10          6           0        4.571212   -0.609444   -2.699201
     11          6           0        5.605834   -2.213393   -4.321208
     12          6           0        2.961183   -3.712430   -2.109686
     13          6           0        1.796356   -3.063853   -1.213788
     14          6           0        0.404038   -3.210413   -1.701827
     15          8           0        0.090307   -4.042975   -2.523125
     16          8           0       -0.403830   -2.116828   -1.335812
     17          7           0        4.615559    2.258151   -1.528456
     18          6           0        4.408882    1.930716   -2.879891
     19          6           0        4.340438    3.071819   -3.691894
     20          6           0        4.368715    4.216132   -2.803830
     21          6           0        4.591263    3.622612   -1.418408
     22          6           0        3.999574    3.106310   -5.134391
     23          6           0        4.267052    5.712037   -3.270739
     24          8           0        4.150294    5.952119   -4.444623
     25          6           0        4.354040    6.840753   -2.272508
     26          7           0        5.300382    2.495881    1.402440
     27          6           0        5.084515    3.785365    1.119031
     28          6           0        5.280822    4.630670    2.320439
     29          6           0        5.422175    3.616319    3.546335
     30          6           0        5.574731    2.345501    2.748653
     31          6           0        6.365969    5.744058    2.225852
     32          6           0        4.390030    3.686944    4.723042
     33          6           0        4.997466    4.238974    6.004849
     34          7           0        5.471654   -0.364368    1.566979
     35          6           0        5.729462   -0.199981    2.894833
     36          6           0        5.680217   -1.434119    3.565065
     37          6           0        5.414622   -2.408317    2.610125
     38          6           0        5.328697   -1.716774    1.404044
     39          6           0        5.981297   -1.569794    5.036042
     40          6           0        5.161561   -3.776078    2.377947
     41          8           0        5.175472   -4.718056    3.164411
     42          6           0        4.947698   -3.892197    0.822365
     43          6           0        5.836739   -4.926191    0.114184
     44          8           0        5.492743   -5.724625   -0.708899
     45          8           0        7.100729   -4.899391    0.642984
     46          6           0        7.936340   -6.076436    0.273559
     47          6           0       -1.816036   -2.201967   -1.711789
     48          6           0       -2.742177   -1.172787   -0.956244
     49          6           0       -3.861212   -0.619807   -1.522084
     50          6           0       -4.369225   -0.897355   -2.932387
     51          6           0       -4.847888    0.185079   -0.642638
     52          6           0       -5.923009   -0.672849    0.065115
     53          6           0       -6.402548    0.036080    1.360030
     54          6           0       -7.875746    0.423144    1.363492
     55          6           0       -8.036272    1.686044    2.284899
     56          6           0       -8.822345   -0.804853    1.754404
     57          6           0       -9.934131   -1.117176    0.698621
     58          6           0      -11.225250   -1.634679    1.411784
     59          6           0      -12.515126   -0.810471    1.216267
     60          6           0      -13.595698   -1.089173    2.342385
     61          6           0      -13.177121   -1.090473   -0.171224
     62          6           0      -13.752272    0.181345   -0.935502
     63          6           0      -15.308407    0.259266   -0.755348
     64          6           0      -15.834779    1.529961   -0.091035
     65          6           0      -17.159272    1.161592    0.576138
     66          6           0      -16.132620    2.730389   -1.112644
     67          1           0        4.344909    0.557284   -4.457306
     68          1           0        4.534345    5.363043   -0.275436
     69          1           0        6.069272    1.180156    4.469034
     70          1           0        5.182438   -3.696935   -2.180385
     71          1           0        3.548836   -1.899184   -3.918516
     72          1           0        5.243614   -2.227029   -5.349432
     73          1           0        6.091495   -3.171202   -4.136336
     74          1           0        6.420640   -1.508989   -4.154764
     75          1           0        3.252235   -4.636135   -1.609007
     76          1           0        2.641042   -3.758228   -3.150909
     77          1           0        2.019382   -2.021353   -0.991510
     78          1           0        1.732313   -3.629085   -0.283327
     79          1           0        3.007160    3.431183   -5.445643
     80          1           0        3.981310    2.061785   -5.446507
     81          1           0        4.708808    3.634260   -5.771388
     82          1           0        5.382479    6.845980   -1.912244
     83          1           0        3.718169    6.674435   -1.402798
     84          1           0        4.205064    7.785379   -2.795616
     85          1           0        4.303538    5.098346    2.440196
     86          1           0        6.438063    3.710953    3.928550
     87          1           0        6.934934    5.555634    1.315906
     88          1           0        6.988411    5.830651    3.116323
     89          1           0        5.926229    6.697214    1.933121
     90          1           0        3.908945    2.727214    4.912491
     91          1           0        3.506890    4.276554    4.479991
     92          1           0        6.084668    4.284633    5.947034
     93          1           0        4.663587    3.645762    6.855810
     94          1           0        4.546960    5.209043    6.217765
     95          1           0        5.805018   -0.585596    5.469791
     96          1           0        6.991556   -1.952175    5.178862
     97          1           0        5.285487   -2.302023    5.446791
     98          1           0        3.980782   -4.340665    0.593527
     99          1           0        8.518898   -6.532768    1.074364
    100          1           0        8.618888   -5.816568   -0.535663
    101          1           0        7.349514   -6.888628   -0.158690
    102          1           0       -2.216183   -3.207107   -1.573555
    103          1           0       -1.793765   -2.095063   -2.796706
    104          1           0       -2.572368   -1.024137    0.109699
    105          1           0       -3.829882   -1.660390   -3.491902
    106          1           0       -4.595927   -0.011884   -3.526273
    107          1           0       -5.371820   -1.287356   -2.755109
    108          1           0       -5.347000    0.948563   -1.239004
    109          1           0       -4.131876    0.698797   -0.000107
    110          1           0       -5.403028   -1.555498    0.437214
    111          1           0       -6.818965   -0.772949   -0.546929
    112          1           0       -5.800236    0.941842    1.414192
    113          1           0       -6.168143   -0.518961    2.268605
    114          1           0       -8.219095    0.817901    0.407365
    115          1           0       -8.903713    1.513965    2.921760
    116          1           0       -8.058301    2.416297    1.475965
    117          1           0       -7.171800    1.946452    2.895815
    118          1           0       -9.275451   -0.735324    2.743670
    119          1           0       -8.304172   -1.746968    1.932304
    120          1           0       -9.619856   -1.869729   -0.024568
    121          1           0      -10.242014   -0.246911    0.118207
    122          1           0      -11.091745   -1.852381    2.470878
    123          1           0      -11.491499   -2.622773    1.036677
    124          1           0      -12.279324    0.245150    1.351818
    125          1           0      -13.421219   -2.109041    2.683100
    126          1           0      -14.612810   -1.058065    1.950350
    127          1           0      -13.501928   -0.449851    3.219871
    128          1           0      -13.936712   -1.862073   -0.048996
    129          1           0      -12.446559   -1.597866   -0.801726
    130          1           0      -13.380890    0.145510   -1.959809
    131          1           0      -13.291828    1.037377   -0.442020
    132          1           0      -15.625685   -0.534013   -0.078231
    133          1           0      -15.816630    0.193126   -1.718025
    134          1           0      -15.147211    1.790642    0.714461
    135          1           0      -17.824503    2.022574    0.503436
    136          1           0      -17.054398    0.921221    1.634573
    137          1           0      -17.658801    0.284447    0.162385
    138          1           0      -15.391798    3.516079   -0.962235
    139          1           0      -17.127308    3.170658   -1.181352
    140          1           0      -15.878175    2.465576   -2.138883
 ---------------------------------------------------------------------

 SCF Done:  E(RPBE1PBE) =  -3005.35923509     A.U. after   15 cycles

 Excitation energies and oscillator strengths:

 Excited State   1:      Singlet-A      1.8604 eV  666.44 nm  f=0.3566  <S**2>=0.000
     245 -> 248       -0.18468
     246 -> 247        0.68867
     246 <- 247       -0.10186
 This state for optimization and/or second-order correction.
 Total Energy, E(TD-HF/TD-DFT) =  -3005.29086685
 Copying the excited state density for this state as the 1-particle RhoCI density.

 Excited State   2:      Singlet-A      2.2179 eV  559.03 nm  f=0.0945  <S**2>=0.000
     245 -> 247        0.64438
     246 -> 248        0.27449

 Excited State   3:      Singlet-A      2.9530 eV  419.86 nm  f=0.0007  <S**2>=0.000
     241 -> 247       -0.34112
     241 -> 249       -0.11080
     242 -> 247        0.28393
     243 -> 247        0.51246

 Excited State   4:      Singlet-A      3.0361 eV  408.36 nm  f=0.0061  <S**2>=0.000
     241 -> 247       -0.14527
     242 -> 247        0.53283
     243 -> 247       -0.41329
     246 -> 248        0.11179

 Excited State   5:      Singlet-A      3.1424 eV  394.56 nm  f=0.0009  <S**2>=0.000
     240 -> 247        0.58898
     240 -> 249       -0.11690
     240 -> 250       -0.10317
     241 -> 247        0.28081
     242 -> 247        0.16448

 The electronic state is 1-A.
 Alpha  occ. eigenvalues --  -46.91666 -19.25829 -19.24624 -19.21065 -19.19807
 Alpha  occ. eigenvalues --  -19.19485 -19.18733 -14.42056 -14.41694 -14.39494
 Alpha  occ. eigenvalues --  -14.38511 -10.36928 -10.35870 -10.32756 -10.31613
 Alpha  occ. eigenvalues --  -10.29684 -10.29302 -10.29204 -10.29039 -10.28981
 Alpha  occ. eigenvalues --  -10.28679 -10.28287 -10.27719 -10.26570 -10.26351
 Alpha  occ. eigenvalues --  -10.26167 -10.26101 -10.25753 -10.25723 -10.25589
 Alpha  occ. eigenvalues --  -10.25252 -10.25232 -10.25220 -10.25186 -10.24997
 Alpha  occ. eigenvalues --  -10.24988 -10.24884 -10.24862 -10.24819 -10.24759
 Alpha  occ. eigenvalues --  -10.24718 -10.24402 -10.24049 -10.23976 -10.23738
 Alpha  occ. eigenvalues --  -10.23517 -10.23470 -10.23447 -10.23441 -10.23226
 Alpha  occ. eigenvalues --  -10.23225 -10.23028 -10.23004 -10.22945 -10.22891
 Alpha  occ. eigenvalues --  -10.22827 -10.22641 -10.22293 -10.22210 -10.22201
 Alpha  occ. eigenvalues --  -10.22197 -10.22090 -10.21975 -10.21922 -10.21899
 Alpha  occ. eigenvalues --  -10.21248  -3.13855  -1.86712  -1.86217  -1.86098
 Alpha  occ. eigenvalues --   -1.11997  -1.09827  -1.06131  -1.03907  -1.03388
 Alpha  occ. eigenvalues --   -1.02297  -0.99500  -0.98592  -0.97613  -0.96779
 Alpha  occ. eigenvalues --   -0.88317  -0.84214  -0.83779  -0.83253  -0.83160
 Alpha  occ. eigenvalues --   -0.82928  -0.82339  -0.82038  -0.81333  -0.81196
 Alpha  occ. eigenvalues --   -0.80429  -0.79516  -0.78671  -0.78042  -0.77603
 Alpha  occ. eigenvalues --   -0.76794  -0.76175  -0.75691  -0.74788  -0.74322
 Alpha  occ. eigenvalues --   -0.73891  -0.72461  -0.72375  -0.71403  -0.70750
 Alpha  occ. eigenvalues --   -0.69953  -0.69707  -0.69296  -0.68724  -0.67895
 Alpha  occ. eigenvalues --   -0.67722  -0.67067  -0.66747  -0.64618  -0.64326
 Alpha  occ. eigenvalues --   -0.63524  -0.62328  -0.61531  -0.61013  -0.60932
 Alpha  occ. eigenvalues --   -0.60298  -0.59786  -0.59382  -0.59188  -0.58099
 Alpha  occ. eigenvalues --   -0.57595  -0.57449  -0.56719  -0.56684  -0.54865
 Alpha  occ. eigenvalues --   -0.54335  -0.53714  -0.53603  -0.52760  -0.52198
 Alpha  occ. eigenvalues --   -0.51796  -0.51245  -0.50675  -0.50403  -0.49992
 Alpha  occ. eigenvalues --   -0.49864  -0.49302  -0.48979  -0.48774  -0.48620
 Alpha  occ. eigenvalues --   -0.48411  -0.48118  -0.47920  -0.47675  -0.47311
 Alpha  occ. eigenvalues --   -0.47158  -0.46723  -0.46527  -0.46500  -0.46264
 Alpha  occ. eigenvalues --   -0.46137  -0.45963  -0.45400  -0.45330  -0.45194
 Alpha  occ. eigenvalues --   -0.44989  -0.44678  -0.44515  -0.44279  -0.44042
 Alpha  occ. eigenvalues --   -0.43953  -0.43803  -0.43784  -0.43595  -0.43283
 Alpha  occ. eigenvalues --   -0.43063  -0.42936  -0.42794  -0.42750  -0.42578
 Alpha  occ. eigenvalues --   -0.42217  -0.41950  -0.41735  -0.41438  -0.41340
 Alpha  occ. eigenvalues --   -0.41130  -0.41025  -0.40971  -0.40755  -0.40712
 Alpha  occ. eigenvalues --   -0.40411  -0.40203  -0.40069  -0.39670  -0.39528
 Alpha  occ. eigenvalues --   -0.39212  -0.38936  -0.38862  -0.38753  -0.38607
 Alpha  occ. eigenvalues --   -0.38529  -0.38237  -0.38055  -0.37890  -0.37782
 Alpha  occ. eigenvalues --   -0.37627  -0.37562  -0.37462  -0.37267  -0.37131
 Alpha  occ. eigenvalues --   -0.37010  -0.36798  -0.36600  -0.36285  -0.36040
 Alpha  occ. eigenvalues --   -0.35985  -0.35792  -0.35314  -0.35249  -0.35049
 Alpha  occ. eigenvalues --   -0.34540  -0.34438  -0.34278  -0.33842  -0.33541
 Alpha  occ. eigenvalues --   -0.33466  -0.33030  -0.32886  -0.32766  -0.32325
 Alpha  occ. eigenvalues --   -0.32253  -0.32069  -0.32004  -0.31446  -0.31035
 Alpha  occ. eigenvalues --   -0.30833  -0.30661  -0.30508  -0.29926  -0.29674
 Alpha  occ. eigenvalues --   -0.29638  -0.29156  -0.28577  -0.26624  -0.26117
 Alpha  occ. eigenvalues --   -0.25753  -0.25555  -0.25257  -0.24945  -0.21135
 Alpha  occ. eigenvalues --   -0.19003
 Alpha virt. eigenvalues --   -0.11336  -0.05844  -0.03740  -0.01876   0.00354
 Alpha virt. eigenvalues --    0.00723   0.00871   0.01052   0.01288   0.02263
 Alpha virt. eigenvalues --    0.03471   0.04159   0.05183   0.05851   0.05914

 Mulliken charges:
               1
     1  Mg   0.983231
     2  C   -0.011225
     3  C   -0.072669
     4  C   -0.083652
     5  C   -0.051080
     6  N   -0.384329
     7  C   -0.027683
     8  C   -0.044380
     9  C   -0.172703
    10  C    0.082855
    11  C    0.039407
    12  C    0.042440
    13  C   -0.053947
    14  C    0.220596
    15  O   -0.251196
    16  O   -0.391870
    17  N   -0.554612
    18  C    0.191516
    19  C   -0.153055
    20  C   -0.105587
    21  C    0.194820
    22  C    0.075694
    23  C    0.051577
    24  O   -0.215014
    25  C   -0.026978
    26  N   -0.408289
    27  C    0.086503
    28  C   -0.114590
    29  C   -0.091886
    30  C    0.034367
    31  C    0.023518
    32  C    0.001806
    33  C   -0.071978
    34  N   -0.439222
    35  C    0.125506
    36  C   -0.217499
    37  C   -0.007910
    38  C    0.150238
    39  C    0.083240
    40  C    0.150606
    41  O   -0.214551
    42  C   -0.123739
    43  C    0.261333
    44  O   -0.230751
    45  O   -0.361205
    46  C    0.111322
    47  C    0.206553
    48  C   -0.087134
    49  C   -0.207728
    50  C    0.028196
    51  C   -0.049480
    52  C    0.009174
    53  C   -0.016580
    54  C   -0.224422
    55  C   -0.015957
    56  C    0.001512
    57  C   -0.030009
    58  C   -0.025705
    59  C   -0.217119
    60  C   -0.023970
    61  C   -0.040784
    62  C   -0.006217
    63  C   -0.016191
    64  C   -0.232741
    65  C   -0.031135
    66  C   -0.024624
    67  H    0.009524
    68  H   -0.025629
    69  H   -0.001507
    70  H    0.049965
    71  H    0.052174
    72  H    0.050104
    73  H    0.036419
    74  H    0.042618
    75  H    0.063760
    76  H    0.062608
    77  H    0.086019
    78  H    0.069223
    79  H    0.062630
    80  H    0.001582
    81  H    0.063675
    82  H    0.063622
    83  H    0.079395
    84  H    0.057867
    85  H    0.049458
    86  H    0.053105
    87  H    0.040548
    88  H    0.058053
    89  H    0.037568
    90  H    0.041721
    91  H    0.033199
    92  H    0.048268
    93  H    0.041175
    94  H    0.043128
    95  H    0.032494
    96  H    0.068275
    97  H    0.057020
    98  H    0.064874
    99  H    0.068299
   100  H    0.050438
   101  H    0.065741
   102  H    0.056805
   103  H    0.047883
   104  H    0.029241
   105  H    0.042081
   106  H    0.047336
   107  H    0.036251
   108  H    0.027962
   109  H    0.046557
   110  H    0.033293
   111  H    0.045921
   112  H    0.017386
   113  H    0.032265
   114  H    0.030235
   115  H    0.040975
   116  H    0.037361
   117  H    0.038042
   118  H    0.024124
   119  H    0.024735
   120  H    0.038088
   121  H    0.035484
   122  H    0.020792
   123  H    0.015758
   124  H    0.029068
   125  H    0.026337
   126  H    0.034616
   127  H    0.037748
   128  H    0.026851
   129  H    0.016836
   130  H    0.032648
   131  H    0.027598
   132  H    0.034469
   133  H    0.032210
   134  H    0.036361
   135  H    0.028497
   136  H    0.030658
   137  H    0.036624
   138  H    0.031491
   139  H    0.045998
   140  H    0.021390
 Sum of Mulliken charges =  -0.00000

 Dipole moment (field-independent basis, Debye):
    X=              0.3300    Y=              4.8705    Z=              2.2626  Tot=              5.3805
 Quadrupole moment (field-independent basis, Debye-Ang):
   XX=           -373.2908   YY=           -419.1657   ZZ=           -402.3023
   XY=             13.0623   XZ=              8.0308   YZ=             31.4861

 Normal termination of Gaussian 16 at Thu Apr 28 06:42:53 2022.
