 Gaussian 16, Revision A.03,
 Gaussian 16:  ES64L-G16RevA.03 25-Dec-2016

 --------------------------------
 #p wB97XD/Def2SVP td=(nstates=5)
 --------------------------------

 -----------------------------------------------------
 step_1501_chromophore_14 TDDFT with wB97XD functional
 -----------------------------------------------------
 Symbolic Z-matrix:
 Charge =  0 Multiplicity = 1

                         Standard orientation:
 ---------------------------------------------------------------------
 Center     Atomic      Atomic             Coordinates (Angstroms)
 Number     Number       Type             X           Y           Z
 ---------------------------------------------------------------------
      1         12           0        5.083242    1.009721   -0.039159
      2          6           0        4.992534   -2.535541    0.313839
      3          6           0        4.384938    0.621549   -3.367823
      4          6           0        4.772018    4.299147   -0.207569
      5          6           0        5.927784    1.105030    3.388559
      6          7           0        4.634253   -0.802659   -1.314048
      7          6           0        4.760971   -2.113850   -0.990650
      8          6           0        4.357336   -2.985377   -2.175189
      9          6           0        4.482818   -1.992459   -3.363899
     10          6           0        4.571212   -0.609444   -2.699201
     11          6           0        5.605834   -2.213393   -4.321208
     12          6           0        2.961183   -3.712430   -2.109686
     13          6           0        1.796356   -3.063853   -1.213788
     14          6           0        0.404038   -3.210413   -1.701827
     15          8           0        0.090307   -4.042975   -2.523125
     16          8           0       -0.403830   -2.116828   -1.335812
     17          7           0        4.615559    2.258151   -1.528456
     18          6           0        4.408882    1.930716   -2.879891
     19          6           0        4.340438    3.071819   -3.691894
     20          6           0        4.368715    4.216132   -2.803830
     21          6           0        4.591263    3.622612   -1.418408
     22          6           0        3.999574    3.106310   -5.134391
     23          6           0        4.267052    5.712037   -3.270739
     24          8           0        4.150294    5.952119   -4.444623
     25          6           0        4.354040    6.840753   -2.272508
     26          7           0        5.300382    2.495881    1.402440
     27          6           0        5.084515    3.785365    1.119031
     28          6           0        5.280822    4.630670    2.320439
     29          6           0        5.422175    3.616319    3.546335
     30          6           0        5.574731    2.345501    2.748653
     31          6           0        6.365969    5.744058    2.225852
     32          6           0        4.390030    3.686944    4.723042
     33          6           0        4.997466    4.238974    6.004849
     34          7           0        5.471654   -0.364368    1.566979
     35          6           0        5.729462   -0.199981    2.894833
     36          6           0        5.680217   -1.434119    3.565065
     37          6           0        5.414622   -2.408317    2.610125
     38          6           0        5.328697   -1.716774    1.404044
     39          6           0        5.981297   -1.569794    5.036042
     40          6           0        5.161561   -3.776078    2.377947
     41          8           0        5.175472   -4.718056    3.164411
     42          6           0        4.947698   -3.892197    0.822365
     43          6           0        5.836739   -4.926191    0.114184
     44          8           0        5.492743   -5.724625   -0.708899
     45          8           0        7.100729   -4.899391    0.642984
     46          6           0        7.936340   -6.076436    0.273559
     47          6           0       -1.816036   -2.201967   -1.711789
     48          6           0       -2.742177   -1.172787   -0.956244
     49          6           0       -3.861212   -0.619807   -1.522084
     50          6           0       -4.369225   -0.897355   -2.932387
     51          6           0       -4.847888    0.185079   -0.642638
     52          6           0       -5.923009   -0.672849    0.065115
     53          6           0       -6.402548    0.036080    1.360030
     54          6           0       -7.875746    0.423144    1.363492
     55          6           0       -8.036272    1.686044    2.284899
     56          6           0       -8.822345   -0.804853    1.754404
     57          6           0       -9.934131   -1.117176    0.698621
     58          6           0      -11.225250   -1.634679    1.411784
     59          6           0      -12.515126   -0.810471    1.216267
     60          6           0      -13.595698   -1.089173    2.342385
     61          6           0      -13.177121   -1.090473   -0.171224
     62          6           0      -13.752272    0.181345   -0.935502
     63          6           0      -15.308407    0.259266   -0.755348
     64          6           0      -15.834779    1.529961   -0.091035
     65          6           0      -17.159272    1.161592    0.576138
     66          6           0      -16.132620    2.730389   -1.112644
     67          1           0        4.344909    0.557284   -4.457306
     68          1           0        4.534345    5.363043   -0.275436
     69          1           0        6.069272    1.180156    4.469034
     70          1           0        5.182438   -3.696935   -2.180385
     71          1           0        3.548836   -1.899184   -3.918516
     72          1           0        5.243614   -2.227029   -5.349432
     73          1           0        6.091495   -3.171202   -4.136336
     74          1           0        6.420640   -1.508989   -4.154764
     75          1           0        3.252235   -4.636135   -1.609007
     76          1           0        2.641042   -3.758228   -3.150909
     77          1           0        2.019382   -2.021353   -0.991510
     78          1           0        1.732313   -3.629085   -0.283327
     79          1           0        3.007160    3.431183   -5.445643
     80          1           0        3.981310    2.061785   -5.446507
     81          1           0        4.708808    3.634260   -5.771388
     82          1           0        5.382479    6.845980   -1.912244
     83          1           0        3.718169    6.674435   -1.402798
     84          1           0        4.205064    7.785379   -2.795616
     85          1           0        4.303538    5.098346    2.440196
     86          1           0        6.438063    3.710953    3.928550
     87          1           0        6.934934    5.555634    1.315906
     88          1           0        6.988411    5.830651    3.116323
     89          1           0        5.926229    6.697214    1.933121
     90          1           0        3.908945    2.727214    4.912491
     91          1           0        3.506890    4.276554    4.479991
     92          1           0        6.084668    4.284633    5.947034
     93          1           0        4.663587    3.645762    6.855810
     94          1           0        4.546960    5.209043    6.217765
     95          1           0        5.805018   -0.585596    5.469791
     96          1           0        6.991556   -1.952175    5.178862
     97          1           0        5.285487   -2.302023    5.446791
     98          1           0        3.980782   -4.340665    0.593527
     99          1           0        8.518898   -6.532768    1.074364
    100          1           0        8.618888   -5.816568   -0.535663
    101          1           0        7.349514   -6.888628   -0.158690
    102          1           0       -2.216183   -3.207107   -1.573555
    103          1           0       -1.793765   -2.095063   -2.796706
    104          1           0       -2.572368   -1.024137    0.109699
    105          1           0       -3.829882   -1.660390   -3.491902
    106          1           0       -4.595927   -0.011884   -3.526273
    107          1           0       -5.371820   -1.287356   -2.755109
    108          1           0       -5.347000    0.948563   -1.239004
    109          1           0       -4.131876    0.698797   -0.000107
    110          1           0       -5.403028   -1.555498    0.437214
    111          1           0       -6.818965   -0.772949   -0.546929
    112          1           0       -5.800236    0.941842    1.414192
    113          1           0       -6.168143   -0.518961    2.268605
    114          1           0       -8.219095    0.817901    0.407365
    115          1           0       -8.903713    1.513965    2.921760
    116          1           0       -8.058301    2.416297    1.475965
    117          1           0       -7.171800    1.946452    2.895815
    118          1           0       -9.275451   -0.735324    2.743670
    119          1           0       -8.304172   -1.746968    1.932304
    120          1           0       -9.619856   -1.869729   -0.024568
    121          1           0      -10.242014   -0.246911    0.118207
    122          1           0      -11.091745   -1.852381    2.470878
    123          1           0      -11.491499   -2.622773    1.036677
    124          1           0      -12.279324    0.245150    1.351818
    125          1           0      -13.421219   -2.109041    2.683100
    126          1           0      -14.612810   -1.058065    1.950350
    127          1           0      -13.501928   -0.449851    3.219871
    128          1           0      -13.936712   -1.862073   -0.048996
    129          1           0      -12.446559   -1.597866   -0.801726
    130          1           0      -13.380890    0.145510   -1.959809
    131          1           0      -13.291828    1.037377   -0.442020
    132          1           0      -15.625685   -0.534013   -0.078231
    133          1           0      -15.816630    0.193126   -1.718025
    134          1           0      -15.147211    1.790642    0.714461
    135          1           0      -17.824503    2.022574    0.503436
    136          1           0      -17.054398    0.921221    1.634573
    137          1           0      -17.658801    0.284447    0.162385
    138          1           0      -15.391798    3.516079   -0.962235
    139          1           0      -17.127308    3.170658   -1.181352
    140          1           0      -15.878175    2.465576   -2.138883
 ---------------------------------------------------------------------

 SCF Done:  E(RwB97XD) =  -3007.86651570     A.U. after   18 cycles

 Excitation energies and oscillator strengths:

 Excited State   1:      Singlet-A      1.6664 eV  744.01 nm  f=0.3709  <S**2>=0.000
     245 -> 248       -0.19182
     246 -> 247        0.68120
     245 <- 248       -0.11718
 This state for optimization and/or second-order correction.
 Total Energy, E(TD-HF/TD-DFT) =  -3007.80527578
 Copying the excited state density for this state as the 1-particle RhoCI density.

 Excited State   2:      Singlet-A      2.1670 eV  572.16 nm  f=0.0890  <S**2>=0.000
     245 -> 247        0.62820
     246 -> 248        0.30901

 Excited State   3:      Singlet-A      3.3820 eV  366.60 nm  f=0.0063  <S**2>=0.000
     241 -> 247       -0.11730
     242 -> 247       -0.42083
     243 -> 247       -0.10639
     244 -> 247        0.51718

 Excited State   4:      Singlet-A      3.4488 eV  359.50 nm  f=0.3103  <S**2>=0.000
     241 -> 247       -0.12661
     242 -> 247       -0.35041
     244 -> 247       -0.21951
     245 -> 247       -0.19895
     246 -> 248        0.50828

 Excited State   5:      Singlet-A      3.5374 eV  350.50 nm  f=0.1177  <S**2>=0.000
     240 -> 247        0.11339
     241 -> 247        0.38538
     241 -> 249        0.28903
     241 -> 250       -0.17295
     242 -> 247       -0.31992
     244 -> 247       -0.16806
     245 -> 247        0.12916
     246 -> 248       -0.19723

 The electronic state is 1-A.
 Alpha  occ. eigenvalues --  -46.94630 -19.30344 -19.29179 -19.25694 -19.24494
 Alpha  occ. eigenvalues --  -19.24476 -19.23378 -14.47101 -14.46860 -14.44594
 Alpha  occ. eigenvalues --  -14.43347 -10.43681 -10.42648 -10.39768 -10.38353
 Alpha  occ. eigenvalues --  -10.36206 -10.35705 -10.35666 -10.35545 -10.35378
 Alpha  occ. eigenvalues --  -10.35136 -10.34409 -10.34402 -10.32581 -10.32561
 Alpha  occ. eigenvalues --  -10.32489 -10.32418 -10.32215 -10.32192 -10.32079
 Alpha  occ. eigenvalues --  -10.31653 -10.31586 -10.31579 -10.31512 -10.31458
 Alpha  occ. eigenvalues --  -10.31309 -10.31146 -10.31098 -10.31085 -10.31024
 Alpha  occ. eigenvalues --  -10.30991 -10.30828 -10.30671 -10.30442 -10.30008
 Alpha  occ. eigenvalues --  -10.29861 -10.29801 -10.29773 -10.29719 -10.29690
 Alpha  occ. eigenvalues --  -10.29630 -10.29472 -10.29453 -10.29416 -10.29265
 Alpha  occ. eigenvalues --  -10.29186 -10.29010 -10.28636 -10.28576 -10.28573
 Alpha  occ. eigenvalues --  -10.28555 -10.28394 -10.28331 -10.28327 -10.28176
 Alpha  occ. eigenvalues --  -10.27670  -3.20666  -1.94275  -1.93781  -1.93655
 Alpha  occ. eigenvalues --   -1.19325  -1.17198  -1.13788  -1.11236  -1.10686
 Alpha  occ. eigenvalues --   -1.09629  -1.06860  -1.05844  -1.05091  -1.04310
 Alpha  occ. eigenvalues --   -0.95826  -0.91904  -0.91418  -0.90935  -0.90814
 Alpha  occ. eigenvalues --   -0.90555  -0.90015  -0.89623  -0.88998  -0.88789
 Alpha  occ. eigenvalues --   -0.88046  -0.87254  -0.86234  -0.85728  -0.85302
 Alpha  occ. eigenvalues --   -0.84493  -0.83894  -0.83362  -0.82402  -0.81967
 Alpha  occ. eigenvalues --   -0.81540  -0.80039  -0.79966  -0.79218  -0.78366
 Alpha  occ. eigenvalues --   -0.77580  -0.77382  -0.77002  -0.76412  -0.75546
 Alpha  occ. eigenvalues --   -0.75213  -0.74666  -0.74317  -0.72249  -0.71842
 Alpha  occ. eigenvalues --   -0.71022  -0.69960  -0.69111  -0.68594  -0.68444
 Alpha  occ. eigenvalues --   -0.67955  -0.67236  -0.66944  -0.66632  -0.65780
 Alpha  occ. eigenvalues --   -0.65128  -0.64975  -0.64323  -0.64152  -0.62360
 Alpha  occ. eigenvalues --   -0.61747  -0.61170  -0.61094  -0.60065  -0.59669
 Alpha  occ. eigenvalues --   -0.59245  -0.58718  -0.58115  -0.57933  -0.57362
 Alpha  occ. eigenvalues --   -0.57231  -0.56701  -0.56425  -0.56143  -0.56065
 Alpha  occ. eigenvalues --   -0.55881  -0.55431  -0.55242  -0.55065  -0.54735
 Alpha  occ. eigenvalues --   -0.54543  -0.54144  -0.53940  -0.53897  -0.53655
 Alpha  occ. eigenvalues --   -0.53536  -0.53312  -0.52720  -0.52594  -0.52543
 Alpha  occ. eigenvalues --   -0.52324  -0.52027  -0.52005  -0.51677  -0.51570
 Alpha  occ. eigenvalues --   -0.51301  -0.51087  -0.51076  -0.50847  -0.50491
 Alpha  occ. eigenvalues --   -0.50361  -0.50205  -0.50086  -0.50047  -0.49807
 Alpha  occ. eigenvalues --   -0.49453  -0.49194  -0.49044  -0.48732  -0.48643
 Alpha  occ. eigenvalues --   -0.48434  -0.48273  -0.48199  -0.47987  -0.47842
 Alpha  occ. eigenvalues --   -0.47532  -0.47377  -0.47242  -0.46799  -0.46751
 Alpha  occ. eigenvalues --   -0.46363  -0.46066  -0.45964  -0.45877  -0.45790
 Alpha  occ. eigenvalues --   -0.45684  -0.45382  -0.45090  -0.45076  -0.44924
 Alpha  occ. eigenvalues --   -0.44808  -0.44719  -0.44499  -0.44424  -0.44300
 Alpha  occ. eigenvalues --   -0.44102  -0.43875  -0.43605  -0.43337  -0.43166
 Alpha  occ. eigenvalues --   -0.43140  -0.42777  -0.42414  -0.42351  -0.42093
 Alpha  occ. eigenvalues --   -0.41634  -0.41407  -0.41318  -0.40816  -0.40595
 Alpha  occ. eigenvalues --   -0.40416  -0.40050  -0.39956  -0.39813  -0.39384
 Alpha  occ. eigenvalues --   -0.39214  -0.39051  -0.39038  -0.38409  -0.38050
 Alpha  occ. eigenvalues --   -0.37852  -0.37609  -0.37539  -0.36837  -0.36556
 Alpha  occ. eigenvalues --   -0.36463  -0.35795  -0.35677  -0.33466  -0.33157
 Alpha  occ. eigenvalues --   -0.32631  -0.32391  -0.31693  -0.31673  -0.26145
 Alpha  occ. eigenvalues --   -0.23171
 Alpha virt. eigenvalues --   -0.07214  -0.00477   0.02521   0.04634   0.06504
 Alpha virt. eigenvalues --    0.07379   0.07429   0.07677   0.08106   0.08689
 Alpha virt. eigenvalues --    0.10108   0.10930   0.11896   0.12576   0.12672

 Mulliken charges:
               1
     1  Mg   0.971333
     2  C   -0.007500
     3  C   -0.091095
     4  C   -0.100825
     5  C   -0.065586
     6  N   -0.350468
     7  C   -0.066951
     8  C   -0.018659
     9  C   -0.140556
    10  C    0.070863
    11  C    0.045017
    12  C    0.056704
    13  C   -0.032665
    14  C    0.210428
    15  O   -0.248622
    16  O   -0.391021
    17  N   -0.523782
    18  C    0.190230
    19  C   -0.143648
    20  C   -0.102945
    21  C    0.195529
    22  C    0.084807
    23  C    0.049219
    24  O   -0.209613
    25  C   -0.013922
    26  N   -0.376619
    27  C    0.077313
    28  C   -0.092140
    29  C   -0.061519
    30  C    0.019620
    31  C    0.036403
    32  C    0.012463
    33  C   -0.054977
    34  N   -0.401713
    35  C    0.115975
    36  C   -0.216191
    37  C   -0.002276
    38  C    0.130938
    39  C    0.095902
    40  C    0.130522
    41  O   -0.205211
    42  C   -0.081439
    43  C    0.237806
    44  O   -0.225456
    45  O   -0.361259
    46  C    0.128247
    47  C    0.219503
    48  C   -0.097752
    49  C   -0.194982
    50  C    0.042808
    51  C   -0.028611
    52  C    0.025379
    53  C   -0.000160
    54  C   -0.192850
    55  C   -0.003849
    56  C    0.011336
    57  C   -0.014197
    58  C   -0.008181
    59  C   -0.190848
    60  C   -0.007192
    61  C   -0.023245
    62  C    0.008659
    63  C    0.003529
    64  C   -0.203881
    65  C   -0.017198
    66  C   -0.013589
    67  H    0.002718
    68  H   -0.038317
    69  H   -0.010113
    70  H    0.034424
    71  H    0.041289
    72  H    0.045913
    73  H    0.031822
    74  H    0.036573
    75  H    0.053939
    76  H    0.054852
    77  H    0.075859
    78  H    0.062113
    79  H    0.060535
    80  H   -0.003905
    81  H    0.061782
    82  H    0.057925
    83  H    0.075196
    84  H    0.057650
    85  H    0.037662
    86  H    0.038462
    87  H    0.032836
    88  H    0.054027
    89  H    0.031871
    90  H    0.034415
    91  H    0.025659
    92  H    0.041740
    93  H    0.035773
    94  H    0.036820
    95  H    0.024846
    96  H    0.062646
    97  H    0.051633
    98  H    0.052094
    99  H    0.064857
   100  H    0.045812
   101  H    0.061115
   102  H    0.051734
   103  H    0.041313
   104  H    0.028118
   105  H    0.037363
   106  H    0.042469
   107  H    0.028064
   108  H    0.020118
   109  H    0.037665
   110  H    0.024311
   111  H    0.035701
   112  H    0.004962
   113  H    0.024923
   114  H    0.016945
   115  H    0.035347
   116  H    0.031393
   117  H    0.032240
   118  H    0.014303
   119  H    0.016771
   120  H    0.031451
   121  H    0.023902
   122  H    0.011247
   123  H    0.005531
   124  H    0.015515
   125  H    0.019192
   126  H    0.023962
   127  H    0.033097
   128  H    0.016551
   129  H    0.007903
   130  H    0.027521
   131  H    0.015922
   132  H    0.018376
   133  H    0.023944
   134  H    0.024697
   135  H    0.021601
   136  H    0.024865
   137  H    0.030141
   138  H    0.025537
   139  H    0.040910
   140  H    0.014530
 Sum of Mulliken charges =  -0.00000

 Dipole moment (field-independent basis, Debye):
    X=              0.2696    Y=              5.2691    Z=              1.7841  Tot=              5.5695
 Quadrupole moment (field-independent basis, Debye-Ang):
   XX=           -373.4128   YY=           -417.7729   ZZ=           -402.2107
   XY=             14.4121   XZ=              5.4240   YZ=             30.1959

 Normal termination of Gaussian 16 at Thu Apr 28 07:11:37 2022.
