 Gaussian 16, Revision A.03,
 Gaussian 16:  ES64L-G16RevA.03 25-Dec-2016

 --------------------
 #p ZINDO=(nstates=5)
 --------------------

 ------------------------------
 step_1501_chromophore_14 ZINDO
 ------------------------------
 Symbolic Z-matrix:
 Charge =  0 Multiplicity = 1

                         Standard orientation:
 ---------------------------------------------------------------------
 Center     Atomic      Atomic             Coordinates (Angstroms)
 Number     Number       Type             X           Y           Z
 ---------------------------------------------------------------------
      1         12           0        5.083242    1.009721   -0.039159
      2          6           0        4.992534   -2.535541    0.313839
      3          6           0        4.384938    0.621549   -3.367823
      4          6           0        4.772018    4.299147   -0.207569
      5          6           0        5.927784    1.105030    3.388559
      6          7           0        4.634253   -0.802659   -1.314048
      7          6           0        4.760971   -2.113850   -0.990650
      8          6           0        4.357336   -2.985377   -2.175189
      9          6           0        4.482818   -1.992459   -3.363899
     10          6           0        4.571212   -0.609444   -2.699201
     11          6           0        5.605834   -2.213393   -4.321208
     12          6           0        2.961183   -3.712430   -2.109686
     13          6           0        1.796356   -3.063853   -1.213788
     14          6           0        0.404038   -3.210413   -1.701827
     15          8           0        0.090307   -4.042975   -2.523125
     16          8           0       -0.403830   -2.116828   -1.335812
     17          7           0        4.615559    2.258151   -1.528456
     18          6           0        4.408882    1.930716   -2.879891
     19          6           0        4.340438    3.071819   -3.691894
     20          6           0        4.368715    4.216132   -2.803830
     21          6           0        4.591263    3.622612   -1.418408
     22          6           0        3.999574    3.106310   -5.134391
     23          6           0        4.267052    5.712037   -3.270739
     24          8           0        4.150294    5.952119   -4.444623
     25          6           0        4.354040    6.840753   -2.272508
     26          7           0        5.300382    2.495881    1.402440
     27          6           0        5.084515    3.785365    1.119031
     28          6           0        5.280822    4.630670    2.320439
     29          6           0        5.422175    3.616319    3.546335
     30          6           0        5.574731    2.345501    2.748653
     31          6           0        6.365969    5.744058    2.225852
     32          6           0        4.390030    3.686944    4.723042
     33          6           0        4.997466    4.238974    6.004849
     34          7           0        5.471654   -0.364368    1.566979
     35          6           0        5.729462   -0.199981    2.894833
     36          6           0        5.680217   -1.434119    3.565065
     37          6           0        5.414622   -2.408317    2.610125
     38          6           0        5.328697   -1.716774    1.404044
     39          6           0        5.981297   -1.569794    5.036042
     40          6           0        5.161561   -3.776078    2.377947
     41          8           0        5.175472   -4.718056    3.164411
     42          6           0        4.947698   -3.892197    0.822365
     43          6           0        5.836739   -4.926191    0.114184
     44          8           0        5.492743   -5.724625   -0.708899
     45          8           0        7.100729   -4.899391    0.642984
     46          6           0        7.936340   -6.076436    0.273559
     47          6           0       -1.816036   -2.201967   -1.711789
     48          6           0       -2.742177   -1.172787   -0.956244
     49          6           0       -3.861212   -0.619807   -1.522084
     50          6           0       -4.369225   -0.897355   -2.932387
     51          6           0       -4.847888    0.185079   -0.642638
     52          6           0       -5.923009   -0.672849    0.065115
     53          6           0       -6.402548    0.036080    1.360030
     54          6           0       -7.875746    0.423144    1.363492
     55          6           0       -8.036272    1.686044    2.284899
     56          6           0       -8.822345   -0.804853    1.754404
     57          6           0       -9.934131   -1.117176    0.698621
     58          6           0      -11.225250   -1.634679    1.411784
     59          6           0      -12.515126   -0.810471    1.216267
     60          6           0      -13.595698   -1.089173    2.342385
     61          6           0      -13.177121   -1.090473   -0.171224
     62          6           0      -13.752272    0.181345   -0.935502
     63          6           0      -15.308407    0.259266   -0.755348
     64          6           0      -15.834779    1.529961   -0.091035
     65          6           0      -17.159272    1.161592    0.576138
     66          6           0      -16.132620    2.730389   -1.112644
     67          1           0        4.344909    0.557284   -4.457306
     68          1           0        4.534345    5.363043   -0.275436
     69          1           0        6.069272    1.180156    4.469034
     70          1           0        5.182438   -3.696935   -2.180385
     71          1           0        3.548836   -1.899184   -3.918516
     72          1           0        5.243614   -2.227029   -5.349432
     73          1           0        6.091495   -3.171202   -4.136336
     74          1           0        6.420640   -1.508989   -4.154764
     75          1           0        3.252235   -4.636135   -1.609007
     76          1           0        2.641042   -3.758228   -3.150909
     77          1           0        2.019382   -2.021353   -0.991510
     78          1           0        1.732313   -3.629085   -0.283327
     79          1           0        3.007160    3.431183   -5.445643
     80          1           0        3.981310    2.061785   -5.446507
     81          1           0        4.708808    3.634260   -5.771388
     82          1           0        5.382479    6.845980   -1.912244
     83          1           0        3.718169    6.674435   -1.402798
     84          1           0        4.205064    7.785379   -2.795616
     85          1           0        4.303538    5.098346    2.440196
     86          1           0        6.438063    3.710953    3.928550
     87          1           0        6.934934    5.555634    1.315906
     88          1           0        6.988411    5.830651    3.116323
     89          1           0        5.926229    6.697214    1.933121
     90          1           0        3.908945    2.727214    4.912491
     91          1           0        3.506890    4.276554    4.479991
     92          1           0        6.084668    4.284633    5.947034
     93          1           0        4.663587    3.645762    6.855810
     94          1           0        4.546960    5.209043    6.217765
     95          1           0        5.805018   -0.585596    5.469791
     96          1           0        6.991556   -1.952175    5.178862
     97          1           0        5.285487   -2.302023    5.446791
     98          1           0        3.980782   -4.340665    0.593527
     99          1           0        8.518898   -6.532768    1.074364
    100          1           0        8.618888   -5.816568   -0.535663
    101          1           0        7.349514   -6.888628   -0.158690
    102          1           0       -2.216183   -3.207107   -1.573555
    103          1           0       -1.793765   -2.095063   -2.796706
    104          1           0       -2.572368   -1.024137    0.109699
    105          1           0       -3.829882   -1.660390   -3.491902
    106          1           0       -4.595927   -0.011884   -3.526273
    107          1           0       -5.371820   -1.287356   -2.755109
    108          1           0       -5.347000    0.948563   -1.239004
    109          1           0       -4.131876    0.698797   -0.000107
    110          1           0       -5.403028   -1.555498    0.437214
    111          1           0       -6.818965   -0.772949   -0.546929
    112          1           0       -5.800236    0.941842    1.414192
    113          1           0       -6.168143   -0.518961    2.268605
    114          1           0       -8.219095    0.817901    0.407365
    115          1           0       -8.903713    1.513965    2.921760
    116          1           0       -8.058301    2.416297    1.475965
    117          1           0       -7.171800    1.946452    2.895815
    118          1           0       -9.275451   -0.735324    2.743670
    119          1           0       -8.304172   -1.746968    1.932304
    120          1           0       -9.619856   -1.869729   -0.024568
    121          1           0      -10.242014   -0.246911    0.118207
    122          1           0      -11.091745   -1.852381    2.470878
    123          1           0      -11.491499   -2.622773    1.036677
    124          1           0      -12.279324    0.245150    1.351818
    125          1           0      -13.421219   -2.109041    2.683100
    126          1           0      -14.612810   -1.058065    1.950350
    127          1           0      -13.501928   -0.449851    3.219871
    128          1           0      -13.936712   -1.862073   -0.048996
    129          1           0      -12.446559   -1.597866   -0.801726
    130          1           0      -13.380890    0.145510   -1.959809
    131          1           0      -13.291828    1.037377   -0.442020
    132          1           0      -15.625685   -0.534013   -0.078231
    133          1           0      -15.816630    0.193126   -1.718025
    134          1           0      -15.147211    1.790642    0.714461
    135          1           0      -17.824503    2.022574    0.503436
    136          1           0      -17.054398    0.921221    1.634573
    137          1           0      -17.658801    0.284447    0.162385
    138          1           0      -15.391798    3.516079   -0.962235
    139          1           0      -17.127308    3.170658   -1.181352
    140          1           0      -15.878175    2.465576   -2.138883
 ---------------------------------------------------------------------

 SCF Done:  E(RZINDO/S) =  -474.225935376     A.U. after   19 cycles

 Excitation energies and oscillator strengths:

 Excited State   1:      Singlet-A      1.2770 eV  970.93 nm  f=0.5842  <S**2>=0.000
     175 ->178         0.18342
     176 ->177         0.66531
 This state for optimization and/or second-order correction.
 Total Energy, E(CIS/TDA) =  -474.179007841
 Copying the excited state density for this state as the 1-particle RhoCI density.

 Excited State   2:      Singlet-A      1.9059 eV  650.53 nm  f=0.0282  <S**2>=0.000
     175 ->177         0.52726
     176 ->178        -0.44469

 Excited State   3:      Singlet-A      2.9876 eV  415.00 nm  f=1.2416  <S**2>=0.000
     175 ->177         0.41695
     176 ->178         0.51982
     176 ->179         0.13189

 Excited State   4:      Singlet-A      3.0236 eV  410.06 nm  f=0.0379  <S**2>=0.000
     170 ->177         0.30921
     170 ->179         0.35566
     170 ->180        -0.32134
     170 ->186         0.16530
     170 ->187        -0.14484
     170 ->202        -0.12285
     176 ->179        -0.16393

 Excited State   5:      Singlet-A      3.0575 eV  405.51 nm  f=0.0590  <S**2>=0.000
     168 ->177         0.19251
     168 ->179        -0.20078
     168 ->180        -0.19704
     168 ->186        -0.15606
     170 ->179         0.10192
     176 ->179         0.46881
     176 ->180        -0.13315

 The electronic state is 1-A.
 Alpha  occ. eigenvalues --   -1.85486  -1.81712  -1.80475  -1.72596  -1.72302
 Alpha  occ. eigenvalues --   -1.70342  -1.63617  -1.60633  -1.60488  -1.58787
 Alpha  occ. eigenvalues --   -1.54364  -1.50813  -1.48818  -1.47978  -1.47497
 Alpha  occ. eigenvalues --   -1.45972  -1.41303  -1.40908  -1.39632  -1.37757
 Alpha  occ. eigenvalues --   -1.36508  -1.34199  -1.31442  -1.30587  -1.29208
 Alpha  occ. eigenvalues --   -1.27782  -1.27523  -1.23667  -1.20649  -1.18308
 Alpha  occ. eigenvalues --   -1.16245  -1.15704  -1.14663  -1.13842  -1.13226
 Alpha  occ. eigenvalues --   -1.12600  -1.09341  -1.08739  -1.06148  -1.04611
 Alpha  occ. eigenvalues --   -1.02657  -1.01274  -0.98359  -0.98012  -0.97024
 Alpha  occ. eigenvalues --   -0.95384  -0.94932  -0.94255  -0.93152  -0.92996
 Alpha  occ. eigenvalues --   -0.91791  -0.90526  -0.89901  -0.88461  -0.86778
 Alpha  occ. eigenvalues --   -0.86166  -0.83893  -0.83315  -0.82364  -0.80692
 Alpha  occ. eigenvalues --   -0.79769  -0.77919  -0.77502  -0.77232  -0.76504
 Alpha  occ. eigenvalues --   -0.76003  -0.75032  -0.74545  -0.73623  -0.73022
 Alpha  occ. eigenvalues --   -0.72311  -0.71777  -0.71189  -0.70922  -0.70406
 Alpha  occ. eigenvalues --   -0.70194  -0.69405  -0.68875  -0.68492  -0.68205
 Alpha  occ. eigenvalues --   -0.67232  -0.66821  -0.66490  -0.65902  -0.65492
 Alpha  occ. eigenvalues --   -0.65235  -0.64612  -0.64130  -0.63617  -0.63221
 Alpha  occ. eigenvalues --   -0.63065  -0.62892  -0.62491  -0.62176  -0.61918
 Alpha  occ. eigenvalues --   -0.61618  -0.60990  -0.60943  -0.60271  -0.60116
 Alpha  occ. eigenvalues --   -0.60014  -0.59195  -0.59022  -0.58657  -0.58263
 Alpha  occ. eigenvalues --   -0.58096  -0.57754  -0.57521  -0.56925  -0.56083
 Alpha  occ. eigenvalues --   -0.56010  -0.55651  -0.55309  -0.54966  -0.54733
 Alpha  occ. eigenvalues --   -0.54537  -0.54020  -0.53756  -0.53332  -0.52794
 Alpha  occ. eigenvalues --   -0.52659  -0.52525  -0.52029  -0.51794  -0.51665
 Alpha  occ. eigenvalues --   -0.51435  -0.51211  -0.50678  -0.50653  -0.50117
 Alpha  occ. eigenvalues --   -0.49580  -0.49572  -0.49391  -0.49249  -0.49020
 Alpha  occ. eigenvalues --   -0.48880  -0.48535  -0.48254  -0.47941  -0.47691
 Alpha  occ. eigenvalues --   -0.47326  -0.47240  -0.47022  -0.46561  -0.46496
 Alpha  occ. eigenvalues --   -0.46351  -0.46297  -0.45940  -0.45811  -0.45627
 Alpha  occ. eigenvalues --   -0.45380  -0.44891  -0.44753  -0.44404  -0.44039
 Alpha  occ. eigenvalues --   -0.43907  -0.43746  -0.43005  -0.42713  -0.42381
 Alpha  occ. eigenvalues --   -0.42162  -0.41888  -0.41672  -0.39466  -0.38567
 Alpha  occ. eigenvalues --   -0.38380  -0.37299  -0.36196  -0.35266  -0.34571
 Alpha  occ. eigenvalues --   -0.33845  -0.32380  -0.32224  -0.32145  -0.26950
 Alpha  occ. eigenvalues --   -0.22034
 Alpha virt. eigenvalues --   -0.08692  -0.02683  -0.00553   0.01417   0.01895
 Alpha virt. eigenvalues --    0.02464   0.02753   0.02986   0.04350   0.04391
 Alpha virt. eigenvalues --    0.05758   0.06023   0.06477   0.07773   0.07946

 Mulliken charges:
               1
     1  Mg   0.422810
     2  C   -0.029194
     3  C   -0.071108
     4  C   -0.108507
     5  C   -0.074117
     6  N   -0.292753
     7  C    0.102462
     8  C   -0.001508
     9  C    0.012384
    10  C    0.142776
    11  C   -0.044183
    12  C   -0.023972
    13  C    0.003749
    14  C    0.469638
    15  O   -0.510400
    16  O   -0.285384
    17  N   -0.337854
    18  C    0.134589
    19  C    0.050028
    20  C   -0.065552
    21  C    0.145349
    22  C   -0.035879
    23  C    0.331716
    24  O   -0.503346
    25  C   -0.027297
    26  N   -0.259133
    27  C    0.174430
    28  C    0.008818
    29  C   -0.002240
    30  C    0.094864
    31  C   -0.051091
    32  C   -0.020925
    33  C   -0.056405
    34  N   -0.336699
    35  C    0.088428
    36  C    0.015449
    37  C   -0.052051
    38  C    0.094980
    39  C   -0.045686
    40  C    0.330479
    41  O   -0.530030
    42  C    0.053730
    43  C    0.488148
    44  O   -0.514537
    45  O   -0.261899
    46  C    0.070221
    47  C    0.100213
    48  C   -0.099444
    49  C   -0.007116
    50  C   -0.045720
    51  C   -0.023725
    52  C   -0.034352
    53  C   -0.036010
    54  C   -0.015928
    55  C   -0.072047
    56  C   -0.041444
    57  C   -0.034270
    58  C   -0.037246
    59  C   -0.010694
    60  C   -0.065902
    61  C   -0.039131
    62  C   -0.043337
    63  C   -0.030947
    64  C   -0.007919
    65  C   -0.059198
    66  C   -0.064609
    67  H    0.031152
    68  H    0.025277
    69  H    0.020504
    70  H    0.039773
    71  H    0.030441
    72  H    0.024058
    73  H    0.018733
    74  H    0.023026
    75  H    0.041050
    76  H    0.043099
    77  H    0.043558
    78  H    0.047651
    79  H    0.042427
    80  H    0.008827
    81  H    0.042365
    82  H    0.036024
    83  H    0.040952
    84  H    0.041173
    85  H    0.025425
    86  H    0.031069
    87  H    0.021279
    88  H    0.034534
    89  H    0.018685
    90  H    0.024886
    91  H    0.018342
    92  H    0.027991
    93  H    0.018718
    94  H    0.017194
    95  H    0.023646
    96  H    0.038126
    97  H    0.030172
    98  H    0.051044
    99  H    0.042725
   100  H    0.031170
   101  H    0.046367
   102  H    0.048696
   103  H    0.043407
   104  H    0.040185
   105  H    0.029351
   106  H    0.031285
   107  H    0.020208
   108  H    0.017792
   109  H    0.024935
   110  H    0.029054
   111  H    0.036401
   112  H    0.010836
   113  H    0.021459
   114  H    0.022956
   115  H    0.028168
   116  H    0.024086
   117  H    0.020467
   118  H    0.022198
   119  H    0.015595
   120  H    0.021409
   121  H    0.021002
   122  H    0.017595
   123  H    0.009045
   124  H    0.018507
   125  H    0.013698
   126  H    0.021660
   127  H    0.018297
   128  H    0.020000
   129  H    0.008525
   130  H    0.024640
   131  H    0.019902
   132  H    0.023581
   133  H    0.022580
   134  H    0.027752
   135  H    0.012722
   136  H    0.011450
   137  H    0.019103
   138  H    0.011665
   139  H    0.031918
   140  H    0.011937
 Sum of Mulliken charges =  -0.00000

 Dipole moment (field-independent basis, Debye):
    X=             -0.2630    Y=              8.2217    Z=              1.3148  Tot=              8.3303
 N-N= 4.266536779370D+03 E-N= 0.000000000000D+00  KE=-9.207145090416D+03
 Leave Link  601 at Thu Apr 28 07:23:53 2022, MaxMem=  6710886400 cpu:               0.8 elap:               0.1
 (Enter /sw/apps/gaussian-16.0/g16/l9999.exe)
 1\1\GINC-BP1-COMPUTE070\SP\RZINDO CIS\STO-3G\C55H74Mg1N4O6\OF15641\28-
 Apr-2022\0\\#p ZINDO=(nstates=5)\\step_1501_chromophore_14 ZINDO\\0,1\
 Mg,0,46.573,44.659,43.132\C,0,43.105,43.843,43.226\C,0,47.271,41.327,4
 2.773\C,0,49.728,45.523,42.637\C,0,45.57,48.006,43.645\N,0,45.263,42.8
 29,42.916\C,0,43.922,42.726,43.092\C,0,43.473,41.288,42.855\C,0,44.802
 ,40.502,43.03\C,0,45.895,41.581,42.971\C,0,44.936,39.652,44.249\C,0,42
 .726,40.965,41.506\C,0,43.015,41.89,40.225\C,0,42.997,41.233,38.896\O,

 Normal termination of Gaussian 16 at Thu Apr 28 07:23:53 2022.
