 Gaussian 16, Revision A.03,
 Gaussian 16:  ES64L-G16RevA.03 25-Dec-2016

 ------------------------------
 #p blyp/Def2SVP td=(nstates=5)
 ------------------------------

 ---------------------------------------------------
 step_1651_chromophore_15 TDDFT with blyp functional
 ---------------------------------------------------
 Symbolic Z-matrix:
 Charge =  0 Multiplicity = 1

                         Standard orientation:
 ---------------------------------------------------------------------
 Center     Atomic      Atomic             Coordinates (Angstroms)
 Number     Number       Type             X           Y           Z
 ---------------------------------------------------------------------
      1         12           0       -4.733546    1.062351   -0.106065
      2          6           0       -4.298234   -2.423076    0.341724
      3          6           0       -1.276566    1.328990   -0.512752
      4          6           0       -5.007056    4.352701   -0.021591
      5          6           0       -7.979645    0.641972    0.839471
      6          7           0       -2.983487   -0.330219   -0.182091
      7          6           0       -3.141583   -1.684096    0.032041
      8          6           0       -1.744508   -2.345586   -0.198047
      9          6           0       -0.770834   -1.173953   -0.000252
     10          6           0       -1.717441   -0.015456   -0.310330
     11          6           0        0.066017   -1.026003    1.354265
     12          6           0       -1.765554   -2.908251   -1.665230
     13          6           0       -0.550636   -3.786381   -2.165474
     14          6           0        0.610780   -4.105166   -1.210227
     15          8           0        0.591678   -5.011717   -0.407508
     16          8           0        1.532921   -3.105927   -1.380658
     17          7           0       -3.324581    2.669863   -0.397769
     18          6           0       -2.011810    2.610283   -0.658365
     19          6           0       -1.490177    3.894967   -0.980438
     20          6           0       -2.502498    4.851946   -0.775618
     21          6           0       -3.674286    3.977256   -0.429070
     22          6           0       -0.040439    4.191093   -1.214214
     23          6           0       -2.462114    6.380890   -0.802948
     24          8           0       -3.387119    7.113065   -0.509241
     25          6           0       -1.184387    7.113766   -1.304540
     26          7           0       -6.273461    2.230389    0.449532
     27          6           0       -6.183980    3.600581    0.281581
     28          6           0       -7.577487    4.240617    0.331725
     29          6           0       -8.512557    3.063511    0.619537
     30          6           0       -7.526761    1.880235    0.614581
     31          6           0       -7.671853    5.527453    1.280261
     32          6           0       -9.619488    2.760859   -0.493059
     33          6           0      -11.019270    2.322283    0.064370
     34          7           0       -5.939260   -0.579529    0.473064
     35          6           0       -7.250282   -0.592599    0.801725
     36          6           0       -7.683086   -1.927045    1.101839
     37          6           0       -6.526893   -2.741878    1.029836
     38          6           0       -5.536884   -1.837448    0.499167
     39          6           0       -9.067303   -2.421534    1.401833
     40          6           0       -5.974110   -4.064036    1.286187
     41          8           0       -6.440090   -5.117152    1.699218
     42          6           0       -4.452312   -3.831149    0.927539
     43          6           0       -4.033379   -4.967772    0.140982
     44          8           0       -4.307990   -5.143709   -1.060901
     45          8           0       -3.242179   -5.773984    0.985277
     46          6           0       -2.644872   -6.925736    0.396983
     47          6           0        2.796818   -3.470980   -0.757455
     48          6           0        3.836021   -3.069818   -1.781016
     49          6           0        5.117564   -3.503622   -1.779845
     50          6           0        5.747696   -4.270238   -0.565809
     51          6           0        6.089581   -2.753946   -2.700206
     52          6           0        6.486513   -1.372683   -2.202304
     53          6           0        7.725093   -0.923894   -2.931804
     54          6           0        8.228668    0.445155   -2.337963
     55          6           0        7.683746    1.638907   -3.111091
     56          6           0        9.855697    0.504659   -2.257318
     57          6           0       10.519310    0.351269   -0.827627
     58          6           0       11.593469    1.422145   -0.518497
     59          6           0       11.009409    2.785529    0.118456
     60          6           0       11.570848    3.984200   -0.637694
     61          6           0       11.404045    2.907652    1.618781
     62          6           0       10.496264    2.169418    2.629069
     63          6           0       11.207247    0.906629    3.285086
     64          6           0       10.199213    0.013151    3.964527
     65          6           0        9.206794    0.773252    4.969873
     66          6           0       10.908106   -1.125107    4.772485
     67          1           0       -0.190079    1.406655   -0.597298
     68          1           0       -5.067626    5.437388   -0.133280
     69          1           0       -9.046214    0.543758    1.050473
     70          1           0       -1.698499   -3.158751    0.526329
     71          1           0       -0.070772   -1.337327   -0.819528
     72          1           0        0.033981    0.030065    1.621314
     73          1           0        1.070212   -1.390620    1.141842
     74          1           0       -0.374603   -1.644229    2.135922
     75          1           0       -1.772848   -2.074056   -2.367361
     76          1           0       -2.660445   -3.515171   -1.804511
     77          1           0       -0.153139   -3.307740   -3.060456
     78          1           0       -0.959435   -4.719020   -2.554473
     79          1           0        0.150197    4.712583   -2.151655
     80          1           0        0.663751    3.360917   -1.253672
     81          1           0        0.349937    4.755964   -0.366892
     82          1           0       -1.091554    6.741119   -2.324304
     83          1           0       -0.332203    6.660806   -0.797846
     84          1           0       -1.076312    8.190370   -1.171014
     85          1           0       -7.856399    4.632081   -0.646660
     86          1           0       -9.015406    3.088527    1.587187
     87          1           0       -7.955109    6.425017    0.731565
     88          1           0       -6.707194    5.641187    1.774802
     89          1           0       -8.348870    5.333332    2.111680
     90          1           0       -9.129322    2.008479   -1.109988
     91          1           0       -9.733432    3.722188   -0.995089
     92          1           0      -11.659245    3.157043    0.350058
     93          1           0      -10.953504    1.711094    0.964579
     94          1           0      -11.613150    1.728000   -0.630416
     95          1           0       -8.947669   -3.292707    2.045814
     96          1           0       -9.690827   -2.683662    0.546936
     97          1           0       -9.516374   -1.711206    2.096864
     98          1           0       -3.936985   -3.939674    1.881595
     99          1           0       -3.209715   -7.423891   -0.390848
    100          1           0       -2.288651   -7.587591    1.186810
    101          1           0       -1.704934   -6.653242   -0.081879
    102          1           0        2.921801   -4.554006   -0.781196
    103          1           0        2.872417   -3.051085    0.245205
    104          1           0        3.576389   -2.274568   -2.479266
    105          1           0        5.555795   -5.323368   -0.765699
    106          1           0        5.272029   -3.927096    0.354069
    107          1           0        6.822595   -4.180905   -0.404944
    108          1           0        5.539182   -2.774107   -3.640771
    109          1           0        6.949574   -3.421757   -2.735194
    110          1           0        6.438138   -1.273230   -1.117976
    111          1           0        5.686616   -0.713614   -2.541271
    112          1           0        7.624063   -1.096968   -4.003970
    113          1           0        8.458669   -1.653953   -2.588494
    114          1           0        7.865832    0.460315   -1.310856
    115          1           0        8.433118    2.070022   -3.775344
    116          1           0        7.314903    2.363547   -2.385717
    117          1           0        6.787380    1.470010   -3.707579
    118          1           0       10.185691    1.480009   -2.614959
    119          1           0       10.261013   -0.271028   -2.907373
    120          1           0       11.056188   -0.596620   -0.826759
    121          1           0        9.802654    0.276655   -0.009365
    122          1           0       12.109443    1.591047   -1.463415
    123          1           0       12.261871    0.929323    0.187045
    124          1           0        9.934064    2.951444    0.183134
    125          1           0       12.369503    4.406715   -0.026229
    126          1           0       10.755733    4.699944   -0.752110
    127          1           0       11.941957    3.719834   -1.627372
    128          1           0       11.622690    3.943303    1.877119
    129          1           0       12.398935    2.505191    1.813099
    130          1           0        9.502845    1.851269    2.313011
    131          1           0       10.395760    2.888603    3.442729
    132          1           0       11.802703    1.189913    4.152737
    133          1           0       11.755972    0.353310    2.522890
    134          1           0        9.638284   -0.464169    3.160708
    135          1           0        8.302605    1.199885    4.534791
    136          1           0        9.779112    1.629999    5.326026
    137          1           0        8.876153    0.247907    5.865208
    138          1           0       11.967267   -1.165352    4.518537
    139          1           0       10.437198   -2.090681    4.590684
    140          1           0       10.922893   -0.853279    5.827571
 ---------------------------------------------------------------------

 SCF Done:  E(RB-LYP) =  -3007.37273945     A.U. after   22 cycles

 Excitation energies and oscillator strengths:

 Excited State   1:      Singlet-A      1.8128 eV  683.93 nm  f=0.3261  <S**2>=0.000
     245 -> 248       -0.19222
     246 -> 247        0.68694
     246 <- 247       -0.15289
 This state for optimization and/or second-order correction.
 Total Energy, E(TD-HF/TD-DFT) =  -3007.30611943
 Copying the excited state density for this state as the 1-particle RhoCI density.

 Excited State   2:      Singlet-A      1.9310 eV  642.07 nm  f=0.0227  <S**2>=0.000
     244 -> 247        0.63116
     245 -> 247        0.29474

 Excited State   3:      Singlet-A      1.9727 eV  628.49 nm  f=0.0808  <S**2>=0.000
     244 -> 247       -0.31384
     245 -> 247        0.59077
     246 -> 248        0.19661

 Excited State   4:      Singlet-A      2.0927 eV  592.46 nm  f=0.0004  <S**2>=0.000
     243 -> 247        0.70429

 Excited State   5:      Singlet-A      2.3867 eV  519.47 nm  f=0.0001  <S**2>=0.000
     242 -> 247        0.70707

 The electronic state is 1-A.
 Alpha  occ. eigenvalues --  -46.27815 -18.83414 -18.81825 -18.78220 -18.76825
 Alpha  occ. eigenvalues --  -18.76358 -18.75918 -14.03494 -14.03286 -14.01251
 Alpha  occ. eigenvalues --  -14.00905 -10.04765 -10.03555 -10.00626 -10.00153
 Alpha  occ. eigenvalues --   -9.98423  -9.97099  -9.96576  -9.96517  -9.96175
 Alpha  occ. eigenvalues --   -9.96101  -9.95896  -9.95534  -9.95359  -9.94124
 Alpha  occ. eigenvalues --   -9.94039  -9.93908  -9.93665  -9.93581  -9.93558
 Alpha  occ. eigenvalues --   -9.93493  -9.93491  -9.93486  -9.93371  -9.93355
 Alpha  occ. eigenvalues --   -9.93287  -9.93232  -9.93100  -9.93086  -9.93083
 Alpha  occ. eigenvalues --   -9.92925  -9.92809  -9.92800  -9.92545  -9.92460
 Alpha  occ. eigenvalues --   -9.92405  -9.92190  -9.92183  -9.92054  -9.92009
 Alpha  occ. eigenvalues --   -9.91974  -9.91960  -9.91879  -9.91876  -9.91795
 Alpha  occ. eigenvalues --   -9.91785  -9.91566  -9.91559  -9.91494  -9.91427
 Alpha  occ. eigenvalues --   -9.91308  -9.91220  -9.91136  -9.91069  -9.90929
 Alpha  occ. eigenvalues --   -9.90648  -2.92442  -1.72868  -1.72306  -1.72171
 Alpha  occ. eigenvalues --   -0.99310  -0.96383  -0.92129  -0.91959  -0.91586
 Alpha  occ. eigenvalues --   -0.89273  -0.87814  -0.87029  -0.86849  -0.86193
 Alpha  occ. eigenvalues --   -0.75723  -0.74096  -0.72822  -0.72258  -0.72148
 Alpha  occ. eigenvalues --   -0.71739  -0.71657  -0.71026  -0.70989  -0.70531
 Alpha  occ. eigenvalues --   -0.69569  -0.69018  -0.68046  -0.67546  -0.66827
 Alpha  occ. eigenvalues --   -0.66304  -0.65624  -0.64920  -0.64819  -0.64518
 Alpha  occ. eigenvalues --   -0.64034  -0.62694  -0.62192  -0.61707  -0.61101
 Alpha  occ. eigenvalues --   -0.60283  -0.60144  -0.60022  -0.59299  -0.59180
 Alpha  occ. eigenvalues --   -0.58100  -0.57665  -0.56780  -0.55399  -0.54918
 Alpha  occ. eigenvalues --   -0.54399  -0.53694  -0.53180  -0.52806  -0.51663
 Alpha  occ. eigenvalues --   -0.51561  -0.51406  -0.51027  -0.50542  -0.50039
 Alpha  occ. eigenvalues --   -0.49778  -0.49697  -0.48532  -0.48254  -0.46918
 Alpha  occ. eigenvalues --   -0.46320  -0.45810  -0.45715  -0.45568  -0.44869
 Alpha  occ. eigenvalues --   -0.44059  -0.43924  -0.43069  -0.42881  -0.42460
 Alpha  occ. eigenvalues --   -0.42426  -0.42178  -0.41787  -0.41307  -0.41230
 Alpha  occ. eigenvalues --   -0.40784  -0.40678  -0.40350  -0.39997  -0.39880
 Alpha  occ. eigenvalues --   -0.39692  -0.39375  -0.39279  -0.39153  -0.38950
 Alpha  occ. eigenvalues --   -0.38769  -0.38664  -0.38433  -0.38247  -0.38031
 Alpha  occ. eigenvalues --   -0.37986  -0.37796  -0.37628  -0.37577  -0.37263
 Alpha  occ. eigenvalues --   -0.36992  -0.36775  -0.36740  -0.36622  -0.36497
 Alpha  occ. eigenvalues --   -0.36388  -0.36132  -0.36073  -0.35977  -0.35743
 Alpha  occ. eigenvalues --   -0.35711  -0.35516  -0.35301  -0.35231  -0.34960
 Alpha  occ. eigenvalues --   -0.34556  -0.34468  -0.34266  -0.34055  -0.33902
 Alpha  occ. eigenvalues --   -0.33814  -0.33590  -0.33340  -0.33295  -0.33084
 Alpha  occ. eigenvalues --   -0.33062  -0.33011  -0.32789  -0.32381  -0.32250
 Alpha  occ. eigenvalues --   -0.32193  -0.31961  -0.31882  -0.31846  -0.31594
 Alpha  occ. eigenvalues --   -0.31524  -0.31456  -0.31182  -0.31002  -0.30659
 Alpha  occ. eigenvalues --   -0.30634  -0.30406  -0.30300  -0.30229  -0.30214
 Alpha  occ. eigenvalues --   -0.30098  -0.29655  -0.29617  -0.29439  -0.28884
 Alpha  occ. eigenvalues --   -0.28825  -0.28704  -0.28491  -0.28249  -0.28172
 Alpha  occ. eigenvalues --   -0.27954  -0.27700  -0.27221  -0.26827  -0.26717
 Alpha  occ. eigenvalues --   -0.26419  -0.26118  -0.26019  -0.25758  -0.25687
 Alpha  occ. eigenvalues --   -0.25444  -0.25058  -0.24343  -0.24067  -0.23684
 Alpha  occ. eigenvalues --   -0.23629  -0.22759  -0.22293  -0.21661  -0.21326
 Alpha  occ. eigenvalues --   -0.20795  -0.20525  -0.19321  -0.18804  -0.17175
 Alpha  occ. eigenvalues --   -0.15991
 Alpha virt. eigenvalues --   -0.11754  -0.06824  -0.06474  -0.04405  -0.03721
 Alpha virt. eigenvalues --   -0.03267  -0.02803  -0.02696  -0.00933   0.00154
 Alpha virt. eigenvalues --    0.00855   0.01737   0.01929   0.02440   0.02834

 Mulliken charges:
               1
     1  Mg   0.706202
     2  C    0.076530
     3  C   -0.046947
     4  C   -0.028225
     5  C   -0.093253
     6  N   -0.162748
     7  C   -0.081515
     8  C   -0.024608
     9  C    0.048765
    10  C   -0.043016
    11  C    0.147840
    12  C    0.092138
    13  C    0.141911
    14  C    0.075627
    15  O   -0.167458
    16  O   -0.269135
    17  N   -0.223532
    18  C    0.094567
    19  C   -0.110701
    20  C    0.036351
    21  C    0.005097
    22  C    0.143593
    23  C   -0.064049
    24  O   -0.148050
    25  C    0.131839
    26  N   -0.244338
    27  C    0.069667
    28  C    0.033752
    29  C    0.000572
    30  C    0.036508
    31  C    0.127707
    32  C    0.094029
    33  C    0.055482
    34  N   -0.205653
    35  C    0.107253
    36  C   -0.181240
    37  C    0.045690
    38  C    0.033502
    39  C    0.173728
    40  C   -0.008577
    41  O   -0.117655
    42  C    0.018181
    43  C    0.136206
    44  O   -0.205344
    45  O   -0.274114
    46  C    0.220578
    47  C    0.310936
    48  C   -0.140795
    49  C   -0.157232
    50  C    0.108328
    51  C    0.127218
    52  C    0.075290
    53  C    0.103994
    54  C   -0.038664
    55  C    0.114511
    56  C    0.096050
    57  C    0.048032
    58  C    0.101085
    59  C   -0.051668
    60  C    0.113606
    61  C    0.085932
    62  C    0.088625
    63  C    0.068955
    64  C   -0.111586
    65  C    0.089829
    66  C    0.116365
    67  H   -0.072457
    68  H   -0.046353
    69  H   -0.082904
    70  H   -0.029044
    71  H   -0.031226
    72  H   -0.003150
    73  H   -0.006274
    74  H   -0.000764
    75  H   -0.024563
    76  H    0.013645
    77  H   -0.021827
    78  H   -0.008009
    79  H   -0.001395
    80  H   -0.025325
    81  H    0.016224
    82  H    0.003893
    83  H   -0.022088
    84  H    0.001150
    85  H   -0.018842
    86  H   -0.023280
    87  H    0.003472
    88  H   -0.001061
    89  H   -0.020535
    90  H   -0.002961
    91  H   -0.016905
    92  H   -0.009529
    93  H   -0.004938
    94  H   -0.005421
    95  H   -0.004014
    96  H    0.022100
    97  H   -0.016438
    98  H    0.008163
    99  H    0.013088
   100  H    0.004526
   101  H   -0.003701
   102  H    0.010170
   103  H    0.026210
   104  H   -0.023940
   105  H    0.010781
   106  H    0.002498
   107  H   -0.005035
   108  H   -0.016485
   109  H   -0.039716
   110  H   -0.026591
   111  H   -0.046952
   112  H   -0.024313
   113  H   -0.043203
   114  H   -0.039460
   115  H   -0.008237
   116  H   -0.021782
   117  H   -0.026624
   118  H   -0.032247
   119  H   -0.024142
   120  H   -0.042430
   121  H   -0.023524
   122  H   -0.027336
   123  H   -0.028194
   124  H   -0.031667
   125  H   -0.014775
   126  H   -0.019724
   127  H   -0.019492
   128  H   -0.045800
   129  H   -0.048884
   130  H   -0.022047
   131  H   -0.036461
   132  H   -0.031911
   133  H   -0.014756
   134  H   -0.038898
   135  H   -0.016835
   136  H   -0.025222
   137  H   -0.009750
   138  H   -0.031306
   139  H   -0.006695
   140  H   -0.020450
 Sum of Mulliken charges =  -0.00000

 Dipole moment (field-independent basis, Debye):
    X=              4.3270    Y=              2.8369    Z=             -1.0933  Tot=              5.2883
 Quadrupole moment (field-independent basis, Debye-Ang):
   XX=           -377.6253   YY=           -449.0449   ZZ=           -405.1849
   XY=            -31.0117   XZ=              1.3932   YZ=              3.6074

 Normal termination of Gaussian 16 at Thu Apr 28 17:06:34 2022.
