 Gaussian 16, Revision A.03,
 Gaussian 16:  ES64L-G16RevA.03 25-Dec-2016

 -----------------------------------
 #p cam-b3lyp/Def2SVP td=(nstates=5)
 -----------------------------------

 --------------------------------------------------------
 step_1651_chromophore_15 TDDFT with cam-b3lyp functional
 --------------------------------------------------------
 Symbolic Z-matrix:
 Charge =  0 Multiplicity = 1

                         Standard orientation:
 ---------------------------------------------------------------------
 Center     Atomic      Atomic             Coordinates (Angstroms)
 Number     Number       Type             X           Y           Z
 ---------------------------------------------------------------------
      1         12           0       -4.733546    1.062351   -0.106065
      2          6           0       -4.298234   -2.423076    0.341724
      3          6           0       -1.276566    1.328990   -0.512752
      4          6           0       -5.007056    4.352701   -0.021591
      5          6           0       -7.979645    0.641972    0.839471
      6          7           0       -2.983487   -0.330219   -0.182091
      7          6           0       -3.141583   -1.684096    0.032041
      8          6           0       -1.744508   -2.345586   -0.198047
      9          6           0       -0.770834   -1.173953   -0.000252
     10          6           0       -1.717441   -0.015456   -0.310330
     11          6           0        0.066017   -1.026003    1.354265
     12          6           0       -1.765554   -2.908251   -1.665230
     13          6           0       -0.550636   -3.786381   -2.165474
     14          6           0        0.610780   -4.105166   -1.210227
     15          8           0        0.591678   -5.011717   -0.407508
     16          8           0        1.532921   -3.105927   -1.380658
     17          7           0       -3.324581    2.669863   -0.397769
     18          6           0       -2.011810    2.610283   -0.658365
     19          6           0       -1.490177    3.894967   -0.980438
     20          6           0       -2.502498    4.851946   -0.775618
     21          6           0       -3.674286    3.977256   -0.429070
     22          6           0       -0.040439    4.191093   -1.214214
     23          6           0       -2.462114    6.380890   -0.802948
     24          8           0       -3.387119    7.113065   -0.509241
     25          6           0       -1.184387    7.113766   -1.304540
     26          7           0       -6.273461    2.230389    0.449532
     27          6           0       -6.183980    3.600581    0.281581
     28          6           0       -7.577487    4.240617    0.331725
     29          6           0       -8.512557    3.063511    0.619537
     30          6           0       -7.526761    1.880235    0.614581
     31          6           0       -7.671853    5.527453    1.280261
     32          6           0       -9.619488    2.760859   -0.493059
     33          6           0      -11.019270    2.322283    0.064370
     34          7           0       -5.939260   -0.579529    0.473064
     35          6           0       -7.250282   -0.592599    0.801725
     36          6           0       -7.683086   -1.927045    1.101839
     37          6           0       -6.526893   -2.741878    1.029836
     38          6           0       -5.536884   -1.837448    0.499167
     39          6           0       -9.067303   -2.421534    1.401833
     40          6           0       -5.974110   -4.064036    1.286187
     41          8           0       -6.440090   -5.117152    1.699218
     42          6           0       -4.452312   -3.831149    0.927539
     43          6           0       -4.033379   -4.967772    0.140982
     44          8           0       -4.307990   -5.143709   -1.060901
     45          8           0       -3.242179   -5.773984    0.985277
     46          6           0       -2.644872   -6.925736    0.396983
     47          6           0        2.796818   -3.470980   -0.757455
     48          6           0        3.836021   -3.069818   -1.781016
     49          6           0        5.117564   -3.503622   -1.779845
     50          6           0        5.747696   -4.270238   -0.565809
     51          6           0        6.089581   -2.753946   -2.700206
     52          6           0        6.486513   -1.372683   -2.202304
     53          6           0        7.725093   -0.923894   -2.931804
     54          6           0        8.228668    0.445155   -2.337963
     55          6           0        7.683746    1.638907   -3.111091
     56          6           0        9.855697    0.504659   -2.257318
     57          6           0       10.519310    0.351269   -0.827627
     58          6           0       11.593469    1.422145   -0.518497
     59          6           0       11.009409    2.785529    0.118456
     60          6           0       11.570848    3.984200   -0.637694
     61          6           0       11.404045    2.907652    1.618781
     62          6           0       10.496264    2.169418    2.629069
     63          6           0       11.207247    0.906629    3.285086
     64          6           0       10.199213    0.013151    3.964527
     65          6           0        9.206794    0.773252    4.969873
     66          6           0       10.908106   -1.125107    4.772485
     67          1           0       -0.190079    1.406655   -0.597298
     68          1           0       -5.067626    5.437388   -0.133280
     69          1           0       -9.046214    0.543758    1.050473
     70          1           0       -1.698499   -3.158751    0.526329
     71          1           0       -0.070772   -1.337327   -0.819528
     72          1           0        0.033981    0.030065    1.621314
     73          1           0        1.070212   -1.390620    1.141842
     74          1           0       -0.374603   -1.644229    2.135922
     75          1           0       -1.772848   -2.074056   -2.367361
     76          1           0       -2.660445   -3.515171   -1.804511
     77          1           0       -0.153139   -3.307740   -3.060456
     78          1           0       -0.959435   -4.719020   -2.554473
     79          1           0        0.150197    4.712583   -2.151655
     80          1           0        0.663751    3.360917   -1.253672
     81          1           0        0.349937    4.755964   -0.366892
     82          1           0       -1.091554    6.741119   -2.324304
     83          1           0       -0.332203    6.660806   -0.797846
     84          1           0       -1.076312    8.190370   -1.171014
     85          1           0       -7.856399    4.632081   -0.646660
     86          1           0       -9.015406    3.088527    1.587187
     87          1           0       -7.955109    6.425017    0.731565
     88          1           0       -6.707194    5.641187    1.774802
     89          1           0       -8.348870    5.333332    2.111680
     90          1           0       -9.129322    2.008479   -1.109988
     91          1           0       -9.733432    3.722188   -0.995089
     92          1           0      -11.659245    3.157043    0.350058
     93          1           0      -10.953504    1.711094    0.964579
     94          1           0      -11.613150    1.728000   -0.630416
     95          1           0       -8.947669   -3.292707    2.045814
     96          1           0       -9.690827   -2.683662    0.546936
     97          1           0       -9.516374   -1.711206    2.096864
     98          1           0       -3.936985   -3.939674    1.881595
     99          1           0       -3.209715   -7.423891   -0.390848
    100          1           0       -2.288651   -7.587591    1.186810
    101          1           0       -1.704934   -6.653242   -0.081879
    102          1           0        2.921801   -4.554006   -0.781196
    103          1           0        2.872417   -3.051085    0.245205
    104          1           0        3.576389   -2.274568   -2.479266
    105          1           0        5.555795   -5.323368   -0.765699
    106          1           0        5.272029   -3.927096    0.354069
    107          1           0        6.822595   -4.180905   -0.404944
    108          1           0        5.539182   -2.774107   -3.640771
    109          1           0        6.949574   -3.421757   -2.735194
    110          1           0        6.438138   -1.273230   -1.117976
    111          1           0        5.686616   -0.713614   -2.541271
    112          1           0        7.624063   -1.096968   -4.003970
    113          1           0        8.458669   -1.653953   -2.588494
    114          1           0        7.865832    0.460315   -1.310856
    115          1           0        8.433118    2.070022   -3.775344
    116          1           0        7.314903    2.363547   -2.385717
    117          1           0        6.787380    1.470010   -3.707579
    118          1           0       10.185691    1.480009   -2.614959
    119          1           0       10.261013   -0.271028   -2.907373
    120          1           0       11.056188   -0.596620   -0.826759
    121          1           0        9.802654    0.276655   -0.009365
    122          1           0       12.109443    1.591047   -1.463415
    123          1           0       12.261871    0.929323    0.187045
    124          1           0        9.934064    2.951444    0.183134
    125          1           0       12.369503    4.406715   -0.026229
    126          1           0       10.755733    4.699944   -0.752110
    127          1           0       11.941957    3.719834   -1.627372
    128          1           0       11.622690    3.943303    1.877119
    129          1           0       12.398935    2.505191    1.813099
    130          1           0        9.502845    1.851269    2.313011
    131          1           0       10.395760    2.888603    3.442729
    132          1           0       11.802703    1.189913    4.152737
    133          1           0       11.755972    0.353310    2.522890
    134          1           0        9.638284   -0.464169    3.160708
    135          1           0        8.302605    1.199885    4.534791
    136          1           0        9.779112    1.629999    5.326026
    137          1           0        8.876153    0.247907    5.865208
    138          1           0       11.967267   -1.165352    4.518537
    139          1           0       10.437198   -2.090681    4.590684
    140          1           0       10.922893   -0.853279    5.827571
 ---------------------------------------------------------------------

 SCF Done:  E(RCAM-B3LYP) =  -3007.16305184     A.U. after   17 cycles

 Excitation energies and oscillator strengths:

 Excited State   1:      Singlet-A      1.7066 eV  726.49 nm  f=0.4213  <S**2>=0.000
     245 -> 248       -0.17989
     246 -> 247        0.68616
     245 <- 248       -0.10653
 This state for optimization and/or second-order correction.
 Total Energy, E(TD-HF/TD-DFT) =  -3007.10033467
 Copying the excited state density for this state as the 1-particle RhoCI density.

 Excited State   2:      Singlet-A      2.1702 eV  571.30 nm  f=0.1452  <S**2>=0.000
     245 -> 247        0.65531
     246 -> 248        0.25667

 Excited State   3:      Singlet-A      3.4550 eV  358.85 nm  f=0.0030  <S**2>=0.000
     240 -> 247       -0.12866
     240 -> 249        0.10602
     244 -> 247        0.66547

 Excited State   4:      Singlet-A      3.5358 eV  350.65 nm  f=0.3868  <S**2>=0.000
     239 -> 247       -0.11144
     242 -> 247       -0.31687
     245 -> 247       -0.20244
     246 -> 248        0.57433

 Excited State   5:      Singlet-A      3.6101 eV  343.44 nm  f=0.0499  <S**2>=0.000
     240 -> 247        0.52233
     240 -> 249       -0.27191
     240 -> 251       -0.16337
     242 -> 247       -0.15679
     244 -> 247        0.17009
     246 -> 248       -0.17521

 The electronic state is 1-A.
 Alpha  occ. eigenvalues --  -46.89378 -19.26355 -19.24832 -19.21234 -19.20059
 Alpha  occ. eigenvalues --  -19.19617 -19.19180 -14.42402 -14.42041 -14.39755
 Alpha  occ. eigenvalues --  -14.39311 -10.40065 -10.39276 -10.35905 -10.35626
 Alpha  occ. eigenvalues --  -10.32522 -10.31622 -10.31100 -10.30945 -10.30660
 Alpha  occ. eigenvalues --  -10.30226 -10.30015 -10.29720 -10.29531 -10.28684
 Alpha  occ. eigenvalues --  -10.28382 -10.27969 -10.27919 -10.27897 -10.27783
 Alpha  occ. eigenvalues --  -10.27756 -10.27652 -10.27641 -10.27559 -10.27431
 Alpha  occ. eigenvalues --  -10.27337 -10.27074 -10.27060 -10.27012 -10.26841
 Alpha  occ. eigenvalues --  -10.26770 -10.26646 -10.26631 -10.26612 -10.26168
 Alpha  occ. eigenvalues --  -10.26112 -10.26059 -10.26010 -10.25948 -10.25847
 Alpha  occ. eigenvalues --  -10.25808 -10.25757 -10.25744 -10.25552 -10.25535
 Alpha  occ. eigenvalues --  -10.25512 -10.25356 -10.25250 -10.25234 -10.25229
 Alpha  occ. eigenvalues --  -10.25130 -10.24982 -10.24774 -10.24717 -10.24554
 Alpha  occ. eigenvalues --  -10.24242  -3.17908  -1.92810  -1.92356  -1.92219
 Alpha  occ. eigenvalues --   -1.17812  -1.14951  -1.10604  -1.10044  -1.09910
 Alpha  occ. eigenvalues --   -1.07342  -1.05552  -1.04734  -1.04494  -1.03775
 Alpha  occ. eigenvalues --   -0.92937  -0.91011  -0.89633  -0.88981  -0.88795
 Alpha  occ. eigenvalues --   -0.88426  -0.88309  -0.87731  -0.87583  -0.87135
 Alpha  occ. eigenvalues --   -0.86051  -0.85325  -0.84350  -0.83760  -0.82934
 Alpha  occ. eigenvalues --   -0.82348  -0.81567  -0.80954  -0.80783  -0.80309
 Alpha  occ. eigenvalues --   -0.79949  -0.78471  -0.77804  -0.77151  -0.76515
 Alpha  occ. eigenvalues --   -0.75683  -0.75406  -0.75372  -0.74569  -0.74443
 Alpha  occ. eigenvalues --   -0.73144  -0.72700  -0.71663  -0.70205  -0.69470
 Alpha  occ. eigenvalues --   -0.69103  -0.68259  -0.67723  -0.67222  -0.65723
 Alpha  occ. eigenvalues --   -0.65660  -0.65631  -0.65154  -0.64504  -0.64049
 Alpha  occ. eigenvalues --   -0.63750  -0.63688  -0.62428  -0.62020  -0.60574
 Alpha  occ. eigenvalues --   -0.60027  -0.59293  -0.59134  -0.59054  -0.58297
 Alpha  occ. eigenvalues --   -0.57760  -0.57235  -0.56297  -0.55961  -0.55888
 Alpha  occ. eigenvalues --   -0.55649  -0.55316  -0.54943  -0.54263  -0.54085
 Alpha  occ. eigenvalues --   -0.53815  -0.53530  -0.53074  -0.53016  -0.52645
 Alpha  occ. eigenvalues --   -0.52316  -0.51965  -0.51918  -0.51762  -0.51457
 Alpha  occ. eigenvalues --   -0.51321  -0.51131  -0.51015  -0.50677  -0.50565
 Alpha  occ. eigenvalues --   -0.50421  -0.50220  -0.50077  -0.49800  -0.49621
 Alpha  occ. eigenvalues --   -0.49456  -0.49279  -0.49169  -0.48932  -0.48809
 Alpha  occ. eigenvalues --   -0.48627  -0.48556  -0.48322  -0.48073  -0.47930
 Alpha  occ. eigenvalues --   -0.47827  -0.47482  -0.47368  -0.47346  -0.47168
 Alpha  occ. eigenvalues --   -0.46500  -0.46291  -0.46151  -0.45865  -0.45614
 Alpha  occ. eigenvalues --   -0.45522  -0.45284  -0.45142  -0.44976  -0.44938
 Alpha  occ. eigenvalues --   -0.44828  -0.44660  -0.44578  -0.44093  -0.43801
 Alpha  occ. eigenvalues --   -0.43743  -0.43633  -0.43569  -0.43330  -0.43207
 Alpha  occ. eigenvalues --   -0.43059  -0.42931  -0.42743  -0.42534  -0.42200
 Alpha  occ. eigenvalues --   -0.42156  -0.41972  -0.41798  -0.41509  -0.41404
 Alpha  occ. eigenvalues --   -0.41377  -0.41301  -0.40702  -0.40694  -0.40172
 Alpha  occ. eigenvalues --   -0.39870  -0.39787  -0.39544  -0.39187  -0.39031
 Alpha  occ. eigenvalues --   -0.38857  -0.38536  -0.38154  -0.37978  -0.37756
 Alpha  occ. eigenvalues --   -0.37508  -0.36828  -0.36680  -0.36465  -0.36356
 Alpha  occ. eigenvalues --   -0.36037  -0.35563  -0.35508  -0.34805  -0.34668
 Alpha  occ. eigenvalues --   -0.34476  -0.34236  -0.32845  -0.31580  -0.31369
 Alpha  occ. eigenvalues --   -0.31006  -0.30641  -0.30217  -0.30070  -0.23867
 Alpha  occ. eigenvalues --   -0.21320
 Alpha virt. eigenvalues --   -0.08977  -0.01532  -0.00043   0.02235   0.02502
 Alpha virt. eigenvalues --    0.04024   0.04273   0.04838   0.05727   0.06881
 Alpha virt. eigenvalues --    0.07888   0.07959   0.08499   0.08810   0.09268

 Mulliken charges:
               1
     1  Mg   0.839873
     2  C    0.054395
     3  C   -0.055240
     4  C   -0.045623
     5  C   -0.094689
     6  N   -0.231714
     7  C   -0.032812
     8  C   -0.083754
     9  C   -0.008534
    10  C   -0.024708
    11  C    0.098489
    12  C    0.045115
    13  C    0.077793
    14  C    0.147841
    15  O   -0.208316
    16  O   -0.332072
    17  N   -0.308278
    18  C    0.099796
    19  C   -0.116172
    20  C   -0.031405
    21  C    0.031539
    22  C    0.080473
    23  C    0.013001
    24  O   -0.188690
    25  C    0.056018
    26  N   -0.324517
    27  C    0.086880
    28  C   -0.023010
    29  C   -0.048158
    30  C    0.052358
    31  C    0.068351
    32  C    0.036929
    33  C   -0.004553
    34  N   -0.294501
    35  C    0.108247
    36  C   -0.177136
    37  C   -0.029597
    38  C    0.064849
    39  C    0.122542
    40  C    0.092862
    41  O   -0.156769
    42  C   -0.066636
    43  C    0.226361
    44  O   -0.242169
    45  O   -0.337868
    46  C    0.178925
    47  C    0.274552
    48  C   -0.153544
    49  C   -0.173743
    50  C    0.042301
    51  C    0.066750
    52  C    0.022920
    53  C    0.045444
    54  C   -0.094044
    55  C    0.055862
    56  C    0.045200
    57  C    0.001534
    58  C    0.049514
    59  C   -0.110819
    60  C    0.056747
    61  C    0.035212
    62  C    0.028608
    63  C    0.020315
    64  C   -0.164429
    65  C    0.025854
    66  C    0.054803
    67  H   -0.037817
    68  H   -0.007242
    69  H   -0.047628
    70  H    0.004623
    71  H    0.006953
    72  H    0.021514
    73  H    0.013419
    74  H    0.023335
    75  H    0.006731
    76  H    0.043956
    77  H    0.012430
    78  H    0.024007
    79  H    0.025669
    80  H    0.005512
    81  H    0.041713
    82  H    0.029312
    83  H    0.004837
    84  H    0.035628
    85  H    0.016300
    86  H    0.011494
    87  H    0.027453
    88  H    0.024258
    89  H    0.004803
    90  H    0.026637
    91  H    0.010626
    92  H    0.014621
    93  H    0.013657
    94  H    0.019397
    95  H    0.023889
    96  H    0.047800
    97  H    0.008418
    98  H    0.053808
    99  H    0.038373
   100  H    0.029194
   101  H    0.017757
   102  H    0.041394
   103  H    0.049106
   104  H    0.009848
   105  H    0.035069
   106  H    0.024936
   107  H    0.021201
   108  H    0.013179
   109  H   -0.010063
   110  H    0.002053
   111  H   -0.020170
   112  H    0.005428
   113  H   -0.015089
   114  H   -0.007430
   115  H    0.015267
   116  H    0.001963
   117  H   -0.001902
   118  H   -0.006420
   119  H    0.004299
   120  H   -0.012366
   121  H   -0.002210
   122  H    0.000180
   123  H   -0.001619
   124  H   -0.001860
   125  H    0.008335
   126  H    0.005075
   127  H    0.003944
   128  H   -0.014008
   129  H   -0.018878
   130  H    0.003845
   131  H   -0.006222
   132  H   -0.005076
   133  H    0.009495
   134  H   -0.009212
   135  H    0.007540
   136  H   -0.002257
   137  H    0.015961
   138  H   -0.005027
   139  H    0.017912
   140  H    0.003596
 Sum of Mulliken charges =  -0.00000

 Dipole moment (field-independent basis, Debye):
    X=              4.7831    Y=              3.1104    Z=             -1.2397  Tot=              5.8386
 Quadrupole moment (field-independent basis, Debye-Ang):
   XX=           -377.6697   YY=           -446.1473   ZZ=           -404.9249
   XY=            -31.0466   XZ=              1.7057   YZ=              3.2018

 Normal termination of Gaussian 16 at Thu Apr 28 16:06:40 2022.
