 Gaussian 16, Revision A.03,
 Gaussian 16:  ES64L-G16RevA.03 25-Dec-2016

 ---------------------------------
 #p PBE1PBE/Def2SVP td=(nstates=5)
 ---------------------------------

 ------------------------------------------------------
 step_1651_chromophore_15 TDDFT with PBE1PBE functional
 ------------------------------------------------------
 Symbolic Z-matrix:
 Charge =  0 Multiplicity = 1

                         Standard orientation:
 ---------------------------------------------------------------------
 Center     Atomic      Atomic             Coordinates (Angstroms)
 Number     Number       Type             X           Y           Z
 ---------------------------------------------------------------------
      1         12           0       -4.733546    1.062351   -0.106065
      2          6           0       -4.298234   -2.423076    0.341724
      3          6           0       -1.276566    1.328990   -0.512752
      4          6           0       -5.007056    4.352701   -0.021591
      5          6           0       -7.979645    0.641972    0.839471
      6          7           0       -2.983487   -0.330219   -0.182091
      7          6           0       -3.141583   -1.684096    0.032041
      8          6           0       -1.744508   -2.345586   -0.198047
      9          6           0       -0.770834   -1.173953   -0.000252
     10          6           0       -1.717441   -0.015456   -0.310330
     11          6           0        0.066017   -1.026003    1.354265
     12          6           0       -1.765554   -2.908251   -1.665230
     13          6           0       -0.550636   -3.786381   -2.165474
     14          6           0        0.610780   -4.105166   -1.210227
     15          8           0        0.591678   -5.011717   -0.407508
     16          8           0        1.532921   -3.105927   -1.380658
     17          7           0       -3.324581    2.669863   -0.397769
     18          6           0       -2.011810    2.610283   -0.658365
     19          6           0       -1.490177    3.894967   -0.980438
     20          6           0       -2.502498    4.851946   -0.775618
     21          6           0       -3.674286    3.977256   -0.429070
     22          6           0       -0.040439    4.191093   -1.214214
     23          6           0       -2.462114    6.380890   -0.802948
     24          8           0       -3.387119    7.113065   -0.509241
     25          6           0       -1.184387    7.113766   -1.304540
     26          7           0       -6.273461    2.230389    0.449532
     27          6           0       -6.183980    3.600581    0.281581
     28          6           0       -7.577487    4.240617    0.331725
     29          6           0       -8.512557    3.063511    0.619537
     30          6           0       -7.526761    1.880235    0.614581
     31          6           0       -7.671853    5.527453    1.280261
     32          6           0       -9.619488    2.760859   -0.493059
     33          6           0      -11.019270    2.322283    0.064370
     34          7           0       -5.939260   -0.579529    0.473064
     35          6           0       -7.250282   -0.592599    0.801725
     36          6           0       -7.683086   -1.927045    1.101839
     37          6           0       -6.526893   -2.741878    1.029836
     38          6           0       -5.536884   -1.837448    0.499167
     39          6           0       -9.067303   -2.421534    1.401833
     40          6           0       -5.974110   -4.064036    1.286187
     41          8           0       -6.440090   -5.117152    1.699218
     42          6           0       -4.452312   -3.831149    0.927539
     43          6           0       -4.033379   -4.967772    0.140982
     44          8           0       -4.307990   -5.143709   -1.060901
     45          8           0       -3.242179   -5.773984    0.985277
     46          6           0       -2.644872   -6.925736    0.396983
     47          6           0        2.796818   -3.470980   -0.757455
     48          6           0        3.836021   -3.069818   -1.781016
     49          6           0        5.117564   -3.503622   -1.779845
     50          6           0        5.747696   -4.270238   -0.565809
     51          6           0        6.089581   -2.753946   -2.700206
     52          6           0        6.486513   -1.372683   -2.202304
     53          6           0        7.725093   -0.923894   -2.931804
     54          6           0        8.228668    0.445155   -2.337963
     55          6           0        7.683746    1.638907   -3.111091
     56          6           0        9.855697    0.504659   -2.257318
     57          6           0       10.519310    0.351269   -0.827627
     58          6           0       11.593469    1.422145   -0.518497
     59          6           0       11.009409    2.785529    0.118456
     60          6           0       11.570848    3.984200   -0.637694
     61          6           0       11.404045    2.907652    1.618781
     62          6           0       10.496264    2.169418    2.629069
     63          6           0       11.207247    0.906629    3.285086
     64          6           0       10.199213    0.013151    3.964527
     65          6           0        9.206794    0.773252    4.969873
     66          6           0       10.908106   -1.125107    4.772485
     67          1           0       -0.190079    1.406655   -0.597298
     68          1           0       -5.067626    5.437388   -0.133280
     69          1           0       -9.046214    0.543758    1.050473
     70          1           0       -1.698499   -3.158751    0.526329
     71          1           0       -0.070772   -1.337327   -0.819528
     72          1           0        0.033981    0.030065    1.621314
     73          1           0        1.070212   -1.390620    1.141842
     74          1           0       -0.374603   -1.644229    2.135922
     75          1           0       -1.772848   -2.074056   -2.367361
     76          1           0       -2.660445   -3.515171   -1.804511
     77          1           0       -0.153139   -3.307740   -3.060456
     78          1           0       -0.959435   -4.719020   -2.554473
     79          1           0        0.150197    4.712583   -2.151655
     80          1           0        0.663751    3.360917   -1.253672
     81          1           0        0.349937    4.755964   -0.366892
     82          1           0       -1.091554    6.741119   -2.324304
     83          1           0       -0.332203    6.660806   -0.797846
     84          1           0       -1.076312    8.190370   -1.171014
     85          1           0       -7.856399    4.632081   -0.646660
     86          1           0       -9.015406    3.088527    1.587187
     87          1           0       -7.955109    6.425017    0.731565
     88          1           0       -6.707194    5.641187    1.774802
     89          1           0       -8.348870    5.333332    2.111680
     90          1           0       -9.129322    2.008479   -1.109988
     91          1           0       -9.733432    3.722188   -0.995089
     92          1           0      -11.659245    3.157043    0.350058
     93          1           0      -10.953504    1.711094    0.964579
     94          1           0      -11.613150    1.728000   -0.630416
     95          1           0       -8.947669   -3.292707    2.045814
     96          1           0       -9.690827   -2.683662    0.546936
     97          1           0       -9.516374   -1.711206    2.096864
     98          1           0       -3.936985   -3.939674    1.881595
     99          1           0       -3.209715   -7.423891   -0.390848
    100          1           0       -2.288651   -7.587591    1.186810
    101          1           0       -1.704934   -6.653242   -0.081879
    102          1           0        2.921801   -4.554006   -0.781196
    103          1           0        2.872417   -3.051085    0.245205
    104          1           0        3.576389   -2.274568   -2.479266
    105          1           0        5.555795   -5.323368   -0.765699
    106          1           0        5.272029   -3.927096    0.354069
    107          1           0        6.822595   -4.180905   -0.404944
    108          1           0        5.539182   -2.774107   -3.640771
    109          1           0        6.949574   -3.421757   -2.735194
    110          1           0        6.438138   -1.273230   -1.117976
    111          1           0        5.686616   -0.713614   -2.541271
    112          1           0        7.624063   -1.096968   -4.003970
    113          1           0        8.458669   -1.653953   -2.588494
    114          1           0        7.865832    0.460315   -1.310856
    115          1           0        8.433118    2.070022   -3.775344
    116          1           0        7.314903    2.363547   -2.385717
    117          1           0        6.787380    1.470010   -3.707579
    118          1           0       10.185691    1.480009   -2.614959
    119          1           0       10.261013   -0.271028   -2.907373
    120          1           0       11.056188   -0.596620   -0.826759
    121          1           0        9.802654    0.276655   -0.009365
    122          1           0       12.109443    1.591047   -1.463415
    123          1           0       12.261871    0.929323    0.187045
    124          1           0        9.934064    2.951444    0.183134
    125          1           0       12.369503    4.406715   -0.026229
    126          1           0       10.755733    4.699944   -0.752110
    127          1           0       11.941957    3.719834   -1.627372
    128          1           0       11.622690    3.943303    1.877119
    129          1           0       12.398935    2.505191    1.813099
    130          1           0        9.502845    1.851269    2.313011
    131          1           0       10.395760    2.888603    3.442729
    132          1           0       11.802703    1.189913    4.152737
    133          1           0       11.755972    0.353310    2.522890
    134          1           0        9.638284   -0.464169    3.160708
    135          1           0        8.302605    1.199885    4.534791
    136          1           0        9.779112    1.629999    5.326026
    137          1           0        8.876153    0.247907    5.865208
    138          1           0       11.967267   -1.165352    4.518537
    139          1           0       10.437198   -2.090681    4.590684
    140          1           0       10.922893   -0.853279    5.827571
 ---------------------------------------------------------------------

 SCF Done:  E(RPBE1PBE) =  -3005.35207584     A.U. after   15 cycles

 Excitation energies and oscillator strengths:

 Excited State   1:      Singlet-A      1.8615 eV  666.03 nm  f=0.4047  <S**2>=0.000
     245 -> 248       -0.17448
     246 -> 247        0.69341
     246 <- 247       -0.11120
 This state for optimization and/or second-order correction.
 Total Energy, E(TD-HF/TD-DFT) =  -3005.28366526
 Copying the excited state density for this state as the 1-particle RhoCI density.

 Excited State   2:      Singlet-A      2.1752 eV  570.00 nm  f=0.1363  <S**2>=0.000
     245 -> 247        0.66521
     246 -> 248        0.23217

 Excited State   3:      Singlet-A      3.0560 eV  405.71 nm  f=0.0004  <S**2>=0.000
     240 -> 247        0.23483
     241 -> 247       -0.26304
     243 -> 247        0.58420

 Excited State   4:      Singlet-A      3.0778 eV  402.83 nm  f=0.0000  <S**2>=0.000
     242 -> 247        0.67370
     242 -> 249        0.15390

 Excited State   5:      Singlet-A      3.1904 eV  388.62 nm  f=0.0011  <S**2>=0.000
     240 -> 247       -0.27256
     241 -> 247        0.51428
     243 -> 247        0.37193

 The electronic state is 1-A.
 Alpha  occ. eigenvalues --  -46.92786 -19.27028 -19.25477 -19.21464 -19.20248
 Alpha  occ. eigenvalues --  -19.19836 -19.19371 -14.41860 -14.41586 -14.39371
 Alpha  occ. eigenvalues --  -14.38953 -10.37087 -10.36230 -10.33042 -10.32756
 Alpha  occ. eigenvalues --  -10.29910 -10.29379 -10.28894 -10.28643 -10.28355
 Alpha  occ. eigenvalues --  -10.27912 -10.27463 -10.27285 -10.27219 -10.26288
 Alpha  occ. eigenvalues --  -10.26074 -10.25694 -10.25654 -10.25635 -10.25624
 Alpha  occ. eigenvalues --  -10.25460 -10.25444 -10.25364 -10.25213 -10.25206
 Alpha  occ. eigenvalues --  -10.25140 -10.24782 -10.24678 -10.24462 -10.24360
 Alpha  occ. eigenvalues --  -10.24332 -10.24294 -10.24232 -10.24104 -10.23846
 Alpha  occ. eigenvalues --  -10.23657 -10.23576 -10.23547 -10.23491 -10.23393
 Alpha  occ. eigenvalues --  -10.23372 -10.23303 -10.23189 -10.23140 -10.23129
 Alpha  occ. eigenvalues --  -10.23122 -10.23050 -10.22791 -10.22791 -10.22787
 Alpha  occ. eigenvalues --  -10.22681 -10.22407 -10.22353 -10.22090 -10.21956
 Alpha  occ. eigenvalues --  -10.21634  -3.14896  -1.87739  -1.87264  -1.87129
 Alpha  occ. eigenvalues --   -1.12602  -1.09670  -1.05335  -1.04778  -1.04753
 Alpha  occ. eigenvalues --   -1.02104  -1.00229  -0.99363  -0.99206  -0.98477
 Alpha  occ. eigenvalues --   -0.87290  -0.85143  -0.83701  -0.83182  -0.83093
 Alpha  occ. eigenvalues --   -0.82636  -0.82561  -0.82031  -0.81698  -0.81478
 Alpha  occ. eigenvalues --   -0.80380  -0.79528  -0.78601  -0.78014  -0.77188
 Alpha  occ. eigenvalues --   -0.76542  -0.75852  -0.75128  -0.74972  -0.74499
 Alpha  occ. eigenvalues --   -0.74240  -0.72747  -0.72055  -0.71467  -0.70663
 Alpha  occ. eigenvalues --   -0.69996  -0.69777  -0.69446  -0.68714  -0.68603
 Alpha  occ. eigenvalues --   -0.67497  -0.67121  -0.66116  -0.64527  -0.63854
 Alpha  occ. eigenvalues --   -0.63568  -0.62508  -0.62174  -0.61455  -0.60193
 Alpha  occ. eigenvalues --   -0.60089  -0.59847  -0.59685  -0.58981  -0.58277
 Alpha  occ. eigenvalues --   -0.58203  -0.57802  -0.56627  -0.56562  -0.55135
 Alpha  occ. eigenvalues --   -0.54491  -0.53851  -0.53750  -0.53516  -0.52909
 Alpha  occ. eigenvalues --   -0.52157  -0.51688  -0.50902  -0.50483  -0.50358
 Alpha  occ. eigenvalues --   -0.50198  -0.49619  -0.49588  -0.48778  -0.48527
 Alpha  occ. eigenvalues --   -0.48412  -0.48028  -0.47671  -0.47508  -0.46967
 Alpha  occ. eigenvalues --   -0.46819  -0.46518  -0.46439  -0.46259  -0.46013
 Alpha  occ. eigenvalues --   -0.45922  -0.45653  -0.45585  -0.45238  -0.45176
 Alpha  occ. eigenvalues --   -0.44997  -0.44758  -0.44712  -0.44343  -0.44198
 Alpha  occ. eigenvalues --   -0.44061  -0.43838  -0.43713  -0.43535  -0.43396
 Alpha  occ. eigenvalues --   -0.43214  -0.43169  -0.42839  -0.42631  -0.42539
 Alpha  occ. eigenvalues --   -0.42469  -0.42120  -0.42038  -0.41982  -0.41853
 Alpha  occ. eigenvalues --   -0.41205  -0.40991  -0.40845  -0.40584  -0.40345
 Alpha  occ. eigenvalues --   -0.40288  -0.40029  -0.39849  -0.39726  -0.39646
 Alpha  occ. eigenvalues --   -0.39563  -0.39350  -0.39293  -0.38809  -0.38544
 Alpha  occ. eigenvalues --   -0.38434  -0.38398  -0.38384  -0.38025  -0.37985
 Alpha  occ. eigenvalues --   -0.37791  -0.37699  -0.37499  -0.37387  -0.37034
 Alpha  occ. eigenvalues --   -0.36913  -0.36666  -0.36617  -0.36437  -0.36263
 Alpha  occ. eigenvalues --   -0.36216  -0.36143  -0.35649  -0.35463  -0.35059
 Alpha  occ. eigenvalues --   -0.34797  -0.34664  -0.34385  -0.34104  -0.33965
 Alpha  occ. eigenvalues --   -0.33679  -0.33366  -0.33088  -0.32877  -0.32637
 Alpha  occ. eigenvalues --   -0.32300  -0.31902  -0.31598  -0.31499  -0.31299
 Alpha  occ. eigenvalues --   -0.30932  -0.30517  -0.30431  -0.29725  -0.29715
 Alpha  occ. eigenvalues --   -0.29498  -0.29133  -0.28350  -0.27218  -0.26403
 Alpha  occ. eigenvalues --   -0.26214  -0.25773  -0.25659  -0.25488  -0.20828
 Alpha  occ. eigenvalues --   -0.18949
 Alpha virt. eigenvalues --   -0.11401  -0.05106  -0.04254  -0.01893  -0.00596
 Alpha virt. eigenvalues --   -0.00437  -0.00318   0.00288   0.01875   0.03205
 Alpha virt. eigenvalues --    0.03483   0.04669   0.04818   0.05405   0.05796

 Mulliken charges:
               1
     1  Mg   0.986692
     2  C    0.055191
     3  C   -0.051811
     4  C   -0.036674
     5  C   -0.079085
     6  N   -0.336946
     7  C    0.042518
     8  C   -0.169999
     9  C   -0.077612
    10  C    0.015090
    11  C    0.035722
    12  C    0.000239
    13  C    0.007501
    14  C    0.207900
    15  O   -0.242015
    16  O   -0.361041
    17  N   -0.420915
    18  C    0.127324
    19  C   -0.149767
    20  C   -0.078086
    21  C    0.066991
    22  C    0.023641
    23  C    0.064090
    24  O   -0.226540
    25  C   -0.020356
    26  N   -0.438838
    27  C    0.109646
    28  C   -0.094041
    29  C   -0.116097
    30  C    0.083059
    31  C    0.009104
    32  C   -0.026887
    33  C   -0.075296
    34  N   -0.422990
    35  C    0.132102
    36  C   -0.197188
    37  C   -0.063463
    38  C    0.108603
    39  C    0.070303
    40  C    0.179909
    41  O   -0.204601
    42  C   -0.178180
    43  C    0.314568
    44  O   -0.278678
    45  O   -0.371112
    46  C    0.123317
    47  C    0.229364
    48  C   -0.159567
    49  C   -0.209659
    50  C   -0.023160
    51  C   -0.002675
    52  C   -0.037298
    53  C   -0.015332
    54  C   -0.178664
    55  C   -0.000986
    56  C   -0.008778
    57  C   -0.060561
    58  C   -0.008032
    59  C   -0.197459
    60  C   -0.001896
    61  C   -0.014560
    62  C   -0.033581
    63  C   -0.040948
    64  C   -0.254356
    65  C   -0.037622
    66  C   -0.006157
    67  H   -0.004533
    68  H    0.025356
    69  H   -0.010736
    70  H    0.043888
    71  H    0.048103
    72  H    0.049286
    73  H    0.044254
    74  H    0.050863
    75  H    0.039874
    76  H    0.080099
    77  H    0.044591
    78  H    0.056053
    79  H    0.053099
    80  H    0.032886
    81  H    0.068655
    82  H    0.057733
    83  H    0.032745
    84  H    0.062315
    85  H    0.053489
    86  H    0.048375
    87  H    0.053909
    88  H    0.051906
    89  H    0.032941
    90  H    0.060427
    91  H    0.044555
    92  H    0.042907
    93  H    0.038813
    94  H    0.047667
    95  H    0.052288
    96  H    0.074450
    97  H    0.035621
    98  H    0.090793
    99  H    0.059685
   100  H    0.051596
   101  H    0.043332
   102  H    0.069753
   103  H    0.073338
   104  H    0.038938
   105  H    0.062919
   106  H    0.051774
   107  H    0.047418
   108  H    0.045625
   109  H    0.023791
   110  H    0.032818
   111  H    0.015353
   112  H    0.036313
   113  H    0.021433
   114  H    0.030090
   115  H    0.041530
   116  H    0.029794
   117  H    0.025320
   118  H    0.027225
   119  H    0.035976
   120  H    0.021283
   121  H    0.031144
   122  H    0.031608
   123  H    0.030198
   124  H    0.035531
   125  H    0.035448
   126  H    0.033161
   127  H    0.030739
   128  H    0.017751
   129  H    0.014436
   130  H    0.034149
   131  H    0.027985
   132  H    0.028867
   133  H    0.043973
   134  H    0.029617
   135  H    0.035163
   136  H    0.026042
   137  H    0.043368
   138  H    0.022914
   139  H    0.045355
   140  H    0.031211
 Sum of Mulliken charges =  -0.00000

 Dipole moment (field-independent basis, Debye):
    X=              4.6690    Y=              3.1541    Z=             -1.1746  Tot=              5.7557
 Quadrupole moment (field-independent basis, Debye-Ang):
   XX=           -370.9604   YY=           -443.5865   ZZ=           -402.4052
   XY=            -32.0436   XZ=              1.6355   YZ=              3.2023

 Normal termination of Gaussian 16 at Thu Apr 28 16:23:07 2022.
