 Gaussian 16, Revision A.03,
 Gaussian 16:  ES64L-G16RevA.03 25-Dec-2016

 --------------------------------
 #p wB97XD/Def2SVP td=(nstates=5)
 --------------------------------

 -----------------------------------------------------
 step_1651_chromophore_15 TDDFT with wB97XD functional
 -----------------------------------------------------
 Symbolic Z-matrix:
 Charge =  0 Multiplicity = 1

                         Standard orientation:
 ---------------------------------------------------------------------
 Center     Atomic      Atomic             Coordinates (Angstroms)
 Number     Number       Type             X           Y           Z
 ---------------------------------------------------------------------
      1         12           0       -4.733546    1.062351   -0.106065
      2          6           0       -4.298234   -2.423076    0.341724
      3          6           0       -1.276566    1.328990   -0.512752
      4          6           0       -5.007056    4.352701   -0.021591
      5          6           0       -7.979645    0.641972    0.839471
      6          7           0       -2.983487   -0.330219   -0.182091
      7          6           0       -3.141583   -1.684096    0.032041
      8          6           0       -1.744508   -2.345586   -0.198047
      9          6           0       -0.770834   -1.173953   -0.000252
     10          6           0       -1.717441   -0.015456   -0.310330
     11          6           0        0.066017   -1.026003    1.354265
     12          6           0       -1.765554   -2.908251   -1.665230
     13          6           0       -0.550636   -3.786381   -2.165474
     14          6           0        0.610780   -4.105166   -1.210227
     15          8           0        0.591678   -5.011717   -0.407508
     16          8           0        1.532921   -3.105927   -1.380658
     17          7           0       -3.324581    2.669863   -0.397769
     18          6           0       -2.011810    2.610283   -0.658365
     19          6           0       -1.490177    3.894967   -0.980438
     20          6           0       -2.502498    4.851946   -0.775618
     21          6           0       -3.674286    3.977256   -0.429070
     22          6           0       -0.040439    4.191093   -1.214214
     23          6           0       -2.462114    6.380890   -0.802948
     24          8           0       -3.387119    7.113065   -0.509241
     25          6           0       -1.184387    7.113766   -1.304540
     26          7           0       -6.273461    2.230389    0.449532
     27          6           0       -6.183980    3.600581    0.281581
     28          6           0       -7.577487    4.240617    0.331725
     29          6           0       -8.512557    3.063511    0.619537
     30          6           0       -7.526761    1.880235    0.614581
     31          6           0       -7.671853    5.527453    1.280261
     32          6           0       -9.619488    2.760859   -0.493059
     33          6           0      -11.019270    2.322283    0.064370
     34          7           0       -5.939260   -0.579529    0.473064
     35          6           0       -7.250282   -0.592599    0.801725
     36          6           0       -7.683086   -1.927045    1.101839
     37          6           0       -6.526893   -2.741878    1.029836
     38          6           0       -5.536884   -1.837448    0.499167
     39          6           0       -9.067303   -2.421534    1.401833
     40          6           0       -5.974110   -4.064036    1.286187
     41          8           0       -6.440090   -5.117152    1.699218
     42          6           0       -4.452312   -3.831149    0.927539
     43          6           0       -4.033379   -4.967772    0.140982
     44          8           0       -4.307990   -5.143709   -1.060901
     45          8           0       -3.242179   -5.773984    0.985277
     46          6           0       -2.644872   -6.925736    0.396983
     47          6           0        2.796818   -3.470980   -0.757455
     48          6           0        3.836021   -3.069818   -1.781016
     49          6           0        5.117564   -3.503622   -1.779845
     50          6           0        5.747696   -4.270238   -0.565809
     51          6           0        6.089581   -2.753946   -2.700206
     52          6           0        6.486513   -1.372683   -2.202304
     53          6           0        7.725093   -0.923894   -2.931804
     54          6           0        8.228668    0.445155   -2.337963
     55          6           0        7.683746    1.638907   -3.111091
     56          6           0        9.855697    0.504659   -2.257318
     57          6           0       10.519310    0.351269   -0.827627
     58          6           0       11.593469    1.422145   -0.518497
     59          6           0       11.009409    2.785529    0.118456
     60          6           0       11.570848    3.984200   -0.637694
     61          6           0       11.404045    2.907652    1.618781
     62          6           0       10.496264    2.169418    2.629069
     63          6           0       11.207247    0.906629    3.285086
     64          6           0       10.199213    0.013151    3.964527
     65          6           0        9.206794    0.773252    4.969873
     66          6           0       10.908106   -1.125107    4.772485
     67          1           0       -0.190079    1.406655   -0.597298
     68          1           0       -5.067626    5.437388   -0.133280
     69          1           0       -9.046214    0.543758    1.050473
     70          1           0       -1.698499   -3.158751    0.526329
     71          1           0       -0.070772   -1.337327   -0.819528
     72          1           0        0.033981    0.030065    1.621314
     73          1           0        1.070212   -1.390620    1.141842
     74          1           0       -0.374603   -1.644229    2.135922
     75          1           0       -1.772848   -2.074056   -2.367361
     76          1           0       -2.660445   -3.515171   -1.804511
     77          1           0       -0.153139   -3.307740   -3.060456
     78          1           0       -0.959435   -4.719020   -2.554473
     79          1           0        0.150197    4.712583   -2.151655
     80          1           0        0.663751    3.360917   -1.253672
     81          1           0        0.349937    4.755964   -0.366892
     82          1           0       -1.091554    6.741119   -2.324304
     83          1           0       -0.332203    6.660806   -0.797846
     84          1           0       -1.076312    8.190370   -1.171014
     85          1           0       -7.856399    4.632081   -0.646660
     86          1           0       -9.015406    3.088527    1.587187
     87          1           0       -7.955109    6.425017    0.731565
     88          1           0       -6.707194    5.641187    1.774802
     89          1           0       -8.348870    5.333332    2.111680
     90          1           0       -9.129322    2.008479   -1.109988
     91          1           0       -9.733432    3.722188   -0.995089
     92          1           0      -11.659245    3.157043    0.350058
     93          1           0      -10.953504    1.711094    0.964579
     94          1           0      -11.613150    1.728000   -0.630416
     95          1           0       -8.947669   -3.292707    2.045814
     96          1           0       -9.690827   -2.683662    0.546936
     97          1           0       -9.516374   -1.711206    2.096864
     98          1           0       -3.936985   -3.939674    1.881595
     99          1           0       -3.209715   -7.423891   -0.390848
    100          1           0       -2.288651   -7.587591    1.186810
    101          1           0       -1.704934   -6.653242   -0.081879
    102          1           0        2.921801   -4.554006   -0.781196
    103          1           0        2.872417   -3.051085    0.245205
    104          1           0        3.576389   -2.274568   -2.479266
    105          1           0        5.555795   -5.323368   -0.765699
    106          1           0        5.272029   -3.927096    0.354069
    107          1           0        6.822595   -4.180905   -0.404944
    108          1           0        5.539182   -2.774107   -3.640771
    109          1           0        6.949574   -3.421757   -2.735194
    110          1           0        6.438138   -1.273230   -1.117976
    111          1           0        5.686616   -0.713614   -2.541271
    112          1           0        7.624063   -1.096968   -4.003970
    113          1           0        8.458669   -1.653953   -2.588494
    114          1           0        7.865832    0.460315   -1.310856
    115          1           0        8.433118    2.070022   -3.775344
    116          1           0        7.314903    2.363547   -2.385717
    117          1           0        6.787380    1.470010   -3.707579
    118          1           0       10.185691    1.480009   -2.614959
    119          1           0       10.261013   -0.271028   -2.907373
    120          1           0       11.056188   -0.596620   -0.826759
    121          1           0        9.802654    0.276655   -0.009365
    122          1           0       12.109443    1.591047   -1.463415
    123          1           0       12.261871    0.929323    0.187045
    124          1           0        9.934064    2.951444    0.183134
    125          1           0       12.369503    4.406715   -0.026229
    126          1           0       10.755733    4.699944   -0.752110
    127          1           0       11.941957    3.719834   -1.627372
    128          1           0       11.622690    3.943303    1.877119
    129          1           0       12.398935    2.505191    1.813099
    130          1           0        9.502845    1.851269    2.313011
    131          1           0       10.395760    2.888603    3.442729
    132          1           0       11.802703    1.189913    4.152737
    133          1           0       11.755972    0.353310    2.522890
    134          1           0        9.638284   -0.464169    3.160708
    135          1           0        8.302605    1.199885    4.534791
    136          1           0        9.779112    1.629999    5.326026
    137          1           0        8.876153    0.247907    5.865208
    138          1           0       11.967267   -1.165352    4.518537
    139          1           0       10.437198   -2.090681    4.590684
    140          1           0       10.922893   -0.853279    5.827571
 ---------------------------------------------------------------------

 SCF Done:  E(RwB97XD) =  -3007.86262680     A.U. after   19 cycles

 Excitation energies and oscillator strengths:

 Excited State   1:      Singlet-A      1.6464 eV  753.04 nm  f=0.4193  <S**2>=0.000
     245 -> 248       -0.18569
     246 -> 247        0.68375
     245 <- 248       -0.11573
 This state for optimization and/or second-order correction.
 Total Energy, E(TD-HF/TD-DFT) =  -3007.80212095
 Copying the excited state density for this state as the 1-particle RhoCI density.

 Excited State   2:      Singlet-A      2.1154 eV  586.11 nm  f=0.1406  <S**2>=0.000
     245 -> 247        0.65303
     246 -> 248        0.26048

 Excited State   3:      Singlet-A      3.4858 eV  355.69 nm  f=0.0017  <S**2>=0.000
     243 -> 247        0.52033
     244 -> 247       -0.41401

 Excited State   4:      Singlet-A      3.5491 eV  349.34 nm  f=0.4338  <S**2>=0.000
     239 -> 247       -0.10734
     242 -> 247       -0.29669
     245 -> 247       -0.21173
     246 -> 248        0.58907
     245 <- 247        0.10803

 Excited State   5:      Singlet-A      3.6443 eV  340.21 nm  f=0.0329  <S**2>=0.000
     240 -> 247        0.50974
     240 -> 249       -0.29553
     240 -> 250       -0.17513
     242 -> 247       -0.20445
     243 -> 247        0.10054
     246 -> 248       -0.13346

 The electronic state is 1-A.
 Alpha  occ. eigenvalues --  -46.95724 -19.31570 -19.30067 -19.26124 -19.25025
 Alpha  occ. eigenvalues --  -19.24685 -19.24215 -14.46989 -14.46631 -14.44352
 Alpha  occ. eigenvalues --  -14.43898 -10.43862 -10.43145 -10.39903 -10.39669
 Alpha  occ. eigenvalues --  -10.36404 -10.35684 -10.35139 -10.34970 -10.34738
 Alpha  occ. eigenvalues --  -10.34283 -10.33733 -10.33684 -10.33543 -10.32846
 Alpha  occ. eigenvalues --  -10.32363 -10.32105 -10.32054 -10.32024 -10.31829
 Alpha  occ. eigenvalues --  -10.31807 -10.31714 -10.31702 -10.31671 -10.31443
 Alpha  occ. eigenvalues --  -10.31380 -10.31033 -10.31021 -10.31009 -10.30715
 Alpha  occ. eigenvalues --  -10.30679 -10.30676 -10.30620 -10.30500 -10.30120
 Alpha  occ. eigenvalues --  -10.30002 -10.29953 -10.29940 -10.29910 -10.29825
 Alpha  occ. eigenvalues --  -10.29717 -10.29687 -10.29634 -10.29506 -10.29488
 Alpha  occ. eigenvalues --  -10.29440 -10.29430 -10.29176 -10.29169 -10.29160
 Alpha  occ. eigenvalues --  -10.29054 -10.28835 -10.28716 -10.28535 -10.28375
 Alpha  occ. eigenvalues --  -10.28067  -3.21696  -1.95289  -1.94811  -1.94676
 Alpha  occ. eigenvalues --   -1.19968  -1.17122  -1.12838  -1.12298  -1.12079
 Alpha  occ. eigenvalues --   -1.09539  -1.07565  -1.06742  -1.06547  -1.05832
 Alpha  occ. eigenvalues --   -0.94924  -0.92817  -0.91386  -0.90815  -0.90690
 Alpha  occ. eigenvalues --   -0.90244  -0.90203  -0.89686  -0.89366  -0.89080
 Alpha  occ. eigenvalues --   -0.87998  -0.87180  -0.86246  -0.85659  -0.84818
 Alpha  occ. eigenvalues --   -0.84194  -0.83481  -0.82879  -0.82635  -0.82167
 Alpha  occ. eigenvalues --   -0.81906  -0.80438  -0.79707  -0.79057  -0.78352
 Alpha  occ. eigenvalues --   -0.77623  -0.77343  -0.77160  -0.76399  -0.76278
 Alpha  occ. eigenvalues --   -0.75080  -0.74682  -0.73641  -0.72136  -0.71389
 Alpha  occ. eigenvalues --   -0.71114  -0.70141  -0.69734  -0.69096  -0.67672
 Alpha  occ. eigenvalues --   -0.67562  -0.67509  -0.67155  -0.66455  -0.65879
 Alpha  occ. eigenvalues --   -0.65730  -0.65494  -0.64267  -0.64003  -0.62590
 Alpha  occ. eigenvalues --   -0.61972  -0.61277  -0.61119  -0.60992  -0.60294
 Alpha  occ. eigenvalues --   -0.59730  -0.59135  -0.58298  -0.57887  -0.57816
 Alpha  occ. eigenvalues --   -0.57595  -0.57147  -0.56952  -0.56188  -0.55980
 Alpha  occ. eigenvalues --   -0.55763  -0.55444  -0.55009  -0.54938  -0.54592
 Alpha  occ. eigenvalues --   -0.54197  -0.53880  -0.53837  -0.53639  -0.53371
 Alpha  occ. eigenvalues --   -0.53236  -0.53049  -0.52929  -0.52559  -0.52534
 Alpha  occ. eigenvalues --   -0.52373  -0.52106  -0.51992  -0.51686  -0.51519
 Alpha  occ. eigenvalues --   -0.51420  -0.51196  -0.51118  -0.50843  -0.50698
 Alpha  occ. eigenvalues --   -0.50510  -0.50462  -0.50259  -0.49932  -0.49831
 Alpha  occ. eigenvalues --   -0.49766  -0.49437  -0.49303  -0.49256  -0.49083
 Alpha  occ. eigenvalues --   -0.48402  -0.48192  -0.48041  -0.47768  -0.47497
 Alpha  occ. eigenvalues --   -0.47484  -0.47176  -0.47035  -0.46876  -0.46843
 Alpha  occ. eigenvalues --   -0.46735  -0.46558  -0.46502  -0.46002  -0.45681
 Alpha  occ. eigenvalues --   -0.45641  -0.45573  -0.45504  -0.45192  -0.45109
 Alpha  occ. eigenvalues --   -0.44938  -0.44839  -0.44649  -0.44481  -0.44139
 Alpha  occ. eigenvalues --   -0.44104  -0.43846  -0.43789  -0.43449  -0.43281
 Alpha  occ. eigenvalues --   -0.43253  -0.43204  -0.42618  -0.42558  -0.42072
 Alpha  occ. eigenvalues --   -0.41768  -0.41676  -0.41420  -0.41055  -0.40955
 Alpha  occ. eigenvalues --   -0.40724  -0.40384  -0.40072  -0.39862  -0.39653
 Alpha  occ. eigenvalues --   -0.39350  -0.38834  -0.38529  -0.38518  -0.38215
 Alpha  occ. eigenvalues --   -0.37894  -0.37524  -0.37381  -0.36662  -0.36574
 Alpha  occ. eigenvalues --   -0.36462  -0.36218  -0.35105  -0.33796  -0.33384
 Alpha  occ. eigenvalues --   -0.32967  -0.32852  -0.32255  -0.32250  -0.25793
 Alpha  occ. eigenvalues --   -0.23127
 Alpha virt. eigenvalues --   -0.07347   0.00380   0.02003   0.04561   0.05403
 Alpha virt. eigenvalues --    0.06241   0.06406   0.07093   0.08439   0.09583
 Alpha virt. eigenvalues --    0.10190   0.11400   0.11546   0.12175   0.12546

 Mulliken charges:
               1
     1  Mg   0.977893
     2  C    0.045281
     3  C   -0.065006
     4  C   -0.054084
     5  C   -0.097283
     6  N   -0.302224
     7  C    0.009884
     8  C   -0.136821
     9  C   -0.055588
    10  C    0.000294
    11  C    0.051958
    12  C    0.011093
    13  C    0.021963
    14  C    0.196525
    15  O   -0.239042
    16  O   -0.359424
    17  N   -0.388283
    18  C    0.117627
    19  C   -0.136348
    20  C   -0.073580
    21  C    0.057057
    22  C    0.034815
    23  C    0.059223
    24  O   -0.220691
    25  C   -0.003596
    26  N   -0.404850
    27  C    0.104404
    28  C   -0.073936
    29  C   -0.095701
    30  C    0.078244
    31  C    0.021377
    32  C   -0.009405
    33  C   -0.059836
    34  N   -0.382556
    35  C    0.121470
    36  C   -0.192514
    37  C   -0.066669
    38  C    0.095831
    39  C    0.080206
    40  C    0.165038
    41  O   -0.194193
    42  C   -0.136051
    43  C    0.288656
    44  O   -0.271075
    45  O   -0.369145
    46  C    0.139127
    47  C    0.244471
    48  C   -0.169924
    49  C   -0.197657
    50  C   -0.010580
    51  C    0.020002
    52  C   -0.020859
    53  C    0.001059
    54  C   -0.149168
    55  C    0.008673
    56  C    0.007882
    57  C   -0.042589
    58  C    0.010445
    59  C   -0.171382
    60  C    0.010879
    61  C    0.002709
    62  C   -0.018688
    63  C   -0.020218
    64  C   -0.225326
    65  C   -0.024166
    66  C    0.005331
    67  H   -0.012323
    68  H    0.018184
    69  H   -0.024176
    70  H    0.031247
    71  H    0.032660
    72  H    0.042390
    73  H    0.035941
    74  H    0.045470
    75  H    0.031670
    76  H    0.068322
    77  H    0.039106
    78  H    0.051094
    79  H    0.047731
    80  H    0.029501
    81  H    0.062800
    82  H    0.050356
    83  H    0.024660
    84  H    0.062298
    85  H    0.042801
    86  H    0.037403
    87  H    0.049650
    88  H    0.044721
    89  H    0.027259
    90  H    0.050487
    91  H    0.035624
    92  H    0.037413
    93  H    0.031781
    94  H    0.042448
    95  H    0.048013
    96  H    0.071065
    97  H    0.029887
    98  H    0.084257
    99  H    0.056098
   100  H    0.048396
   101  H    0.036954
   102  H    0.062202
   103  H    0.069595
   104  H    0.035319
   105  H    0.057310
   106  H    0.045442
   107  H    0.043398
   108  H    0.037747
   109  H    0.013880
   110  H    0.024720
   111  H    0.003436
   112  H    0.030591
   113  H    0.007720
   114  H    0.016366
   115  H    0.035880
   116  H    0.024061
   117  H    0.019656
   118  H    0.013512
   119  H    0.028655
   120  H    0.014192
   121  H    0.018636
   122  H    0.022064
   123  H    0.020499
   124  H    0.022918
   125  H    0.028515
   126  H    0.028040
   127  H    0.024491
   128  H    0.010089
   129  H    0.002880
   130  H    0.024102
   131  H    0.018788
   132  H    0.017512
   133  H    0.031414
   134  H    0.017708
   135  H    0.029558
   136  H    0.016611
   137  H    0.038278
   138  H    0.016925
   139  H    0.040844
   140  H    0.024297
 Sum of Mulliken charges =  -0.00000

 Dipole moment (field-independent basis, Debye):
    X=              4.8372    Y=              3.2059    Z=             -1.2387  Tot=              5.9339
 Quadrupole moment (field-independent basis, Debye-Ang):
   XX=           -372.5794   YY=           -442.1540   ZZ=           -402.0238
   XY=            -31.1444   XZ=              1.6886   YZ=              2.7754

 Normal termination of Gaussian 16 at Thu Apr 28 16:53:35 2022.
