 Gaussian 16, Revision A.03,
 Gaussian 16:  ES64L-G16RevA.03 25-Dec-2016

 --------------------
 #p ZINDO=(nstates=5)
 --------------------

 ------------------------------
 step_1651_chromophore_15 ZINDO
 ------------------------------
 Symbolic Z-matrix:
 Charge =  0 Multiplicity = 1

                         Standard orientation:
 ---------------------------------------------------------------------
 Center     Atomic      Atomic             Coordinates (Angstroms)
 Number     Number       Type             X           Y           Z
 ---------------------------------------------------------------------
      1         12           0       -4.733546    1.062351   -0.106065
      2          6           0       -4.298234   -2.423076    0.341724
      3          6           0       -1.276566    1.328990   -0.512752
      4          6           0       -5.007056    4.352701   -0.021591
      5          6           0       -7.979645    0.641972    0.839471
      6          7           0       -2.983487   -0.330219   -0.182091
      7          6           0       -3.141583   -1.684096    0.032041
      8          6           0       -1.744508   -2.345586   -0.198047
      9          6           0       -0.770834   -1.173953   -0.000252
     10          6           0       -1.717441   -0.015456   -0.310330
     11          6           0        0.066017   -1.026003    1.354265
     12          6           0       -1.765554   -2.908251   -1.665230
     13          6           0       -0.550636   -3.786381   -2.165474
     14          6           0        0.610780   -4.105166   -1.210227
     15          8           0        0.591678   -5.011717   -0.407508
     16          8           0        1.532921   -3.105927   -1.380658
     17          7           0       -3.324581    2.669863   -0.397769
     18          6           0       -2.011810    2.610283   -0.658365
     19          6           0       -1.490177    3.894967   -0.980438
     20          6           0       -2.502498    4.851946   -0.775618
     21          6           0       -3.674286    3.977256   -0.429070
     22          6           0       -0.040439    4.191093   -1.214214
     23          6           0       -2.462114    6.380890   -0.802948
     24          8           0       -3.387119    7.113065   -0.509241
     25          6           0       -1.184387    7.113766   -1.304540
     26          7           0       -6.273461    2.230389    0.449532
     27          6           0       -6.183980    3.600581    0.281581
     28          6           0       -7.577487    4.240617    0.331725
     29          6           0       -8.512557    3.063511    0.619537
     30          6           0       -7.526761    1.880235    0.614581
     31          6           0       -7.671853    5.527453    1.280261
     32          6           0       -9.619488    2.760859   -0.493059
     33          6           0      -11.019270    2.322283    0.064370
     34          7           0       -5.939260   -0.579529    0.473064
     35          6           0       -7.250282   -0.592599    0.801725
     36          6           0       -7.683086   -1.927045    1.101839
     37          6           0       -6.526893   -2.741878    1.029836
     38          6           0       -5.536884   -1.837448    0.499167
     39          6           0       -9.067303   -2.421534    1.401833
     40          6           0       -5.974110   -4.064036    1.286187
     41          8           0       -6.440090   -5.117152    1.699218
     42          6           0       -4.452312   -3.831149    0.927539
     43          6           0       -4.033379   -4.967772    0.140982
     44          8           0       -4.307990   -5.143709   -1.060901
     45          8           0       -3.242179   -5.773984    0.985277
     46          6           0       -2.644872   -6.925736    0.396983
     47          6           0        2.796818   -3.470980   -0.757455
     48          6           0        3.836021   -3.069818   -1.781016
     49          6           0        5.117564   -3.503622   -1.779845
     50          6           0        5.747696   -4.270238   -0.565809
     51          6           0        6.089581   -2.753946   -2.700206
     52          6           0        6.486513   -1.372683   -2.202304
     53          6           0        7.725093   -0.923894   -2.931804
     54          6           0        8.228668    0.445155   -2.337963
     55          6           0        7.683746    1.638907   -3.111091
     56          6           0        9.855697    0.504659   -2.257318
     57          6           0       10.519310    0.351269   -0.827627
     58          6           0       11.593469    1.422145   -0.518497
     59          6           0       11.009409    2.785529    0.118456
     60          6           0       11.570848    3.984200   -0.637694
     61          6           0       11.404045    2.907652    1.618781
     62          6           0       10.496264    2.169418    2.629069
     63          6           0       11.207247    0.906629    3.285086
     64          6           0       10.199213    0.013151    3.964527
     65          6           0        9.206794    0.773252    4.969873
     66          6           0       10.908106   -1.125107    4.772485
     67          1           0       -0.190079    1.406655   -0.597298
     68          1           0       -5.067626    5.437388   -0.133280
     69          1           0       -9.046214    0.543758    1.050473
     70          1           0       -1.698499   -3.158751    0.526329
     71          1           0       -0.070772   -1.337327   -0.819528
     72          1           0        0.033981    0.030065    1.621314
     73          1           0        1.070212   -1.390620    1.141842
     74          1           0       -0.374603   -1.644229    2.135922
     75          1           0       -1.772848   -2.074056   -2.367361
     76          1           0       -2.660445   -3.515171   -1.804511
     77          1           0       -0.153139   -3.307740   -3.060456
     78          1           0       -0.959435   -4.719020   -2.554473
     79          1           0        0.150197    4.712583   -2.151655
     80          1           0        0.663751    3.360917   -1.253672
     81          1           0        0.349937    4.755964   -0.366892
     82          1           0       -1.091554    6.741119   -2.324304
     83          1           0       -0.332203    6.660806   -0.797846
     84          1           0       -1.076312    8.190370   -1.171014
     85          1           0       -7.856399    4.632081   -0.646660
     86          1           0       -9.015406    3.088527    1.587187
     87          1           0       -7.955109    6.425017    0.731565
     88          1           0       -6.707194    5.641187    1.774802
     89          1           0       -8.348870    5.333332    2.111680
     90          1           0       -9.129322    2.008479   -1.109988
     91          1           0       -9.733432    3.722188   -0.995089
     92          1           0      -11.659245    3.157043    0.350058
     93          1           0      -10.953504    1.711094    0.964579
     94          1           0      -11.613150    1.728000   -0.630416
     95          1           0       -8.947669   -3.292707    2.045814
     96          1           0       -9.690827   -2.683662    0.546936
     97          1           0       -9.516374   -1.711206    2.096864
     98          1           0       -3.936985   -3.939674    1.881595
     99          1           0       -3.209715   -7.423891   -0.390848
    100          1           0       -2.288651   -7.587591    1.186810
    101          1           0       -1.704934   -6.653242   -0.081879
    102          1           0        2.921801   -4.554006   -0.781196
    103          1           0        2.872417   -3.051085    0.245205
    104          1           0        3.576389   -2.274568   -2.479266
    105          1           0        5.555795   -5.323368   -0.765699
    106          1           0        5.272029   -3.927096    0.354069
    107          1           0        6.822595   -4.180905   -0.404944
    108          1           0        5.539182   -2.774107   -3.640771
    109          1           0        6.949574   -3.421757   -2.735194
    110          1           0        6.438138   -1.273230   -1.117976
    111          1           0        5.686616   -0.713614   -2.541271
    112          1           0        7.624063   -1.096968   -4.003970
    113          1           0        8.458669   -1.653953   -2.588494
    114          1           0        7.865832    0.460315   -1.310856
    115          1           0        8.433118    2.070022   -3.775344
    116          1           0        7.314903    2.363547   -2.385717
    117          1           0        6.787380    1.470010   -3.707579
    118          1           0       10.185691    1.480009   -2.614959
    119          1           0       10.261013   -0.271028   -2.907373
    120          1           0       11.056188   -0.596620   -0.826759
    121          1           0        9.802654    0.276655   -0.009365
    122          1           0       12.109443    1.591047   -1.463415
    123          1           0       12.261871    0.929323    0.187045
    124          1           0        9.934064    2.951444    0.183134
    125          1           0       12.369503    4.406715   -0.026229
    126          1           0       10.755733    4.699944   -0.752110
    127          1           0       11.941957    3.719834   -1.627372
    128          1           0       11.622690    3.943303    1.877119
    129          1           0       12.398935    2.505191    1.813099
    130          1           0        9.502845    1.851269    2.313011
    131          1           0       10.395760    2.888603    3.442729
    132          1           0       11.802703    1.189913    4.152737
    133          1           0       11.755972    0.353310    2.522890
    134          1           0        9.638284   -0.464169    3.160708
    135          1           0        8.302605    1.199885    4.534791
    136          1           0        9.779112    1.629999    5.326026
    137          1           0        8.876153    0.247907    5.865208
    138          1           0       11.967267   -1.165352    4.518537
    139          1           0       10.437198   -2.090681    4.590684
    140          1           0       10.922893   -0.853279    5.827571
 ---------------------------------------------------------------------

 SCF Done:  E(RZINDO/S) =  -474.220775535     A.U. after   19 cycles

 Excitation energies and oscillator strengths:

 Excited State   1:      Singlet-A      1.2353 eV 1003.70 nm  f=0.6479  <S**2>=0.000
     175 ->178         0.19358
     176 ->177         0.66167
 This state for optimization and/or second-order correction.
 Total Energy, E(CIS/TDA) =  -474.175380223
 Copying the excited state density for this state as the 1-particle RhoCI density.

 Excited State   2:      Singlet-A      1.8827 eV  658.55 nm  f=0.0719  <S**2>=0.000
     175 ->177         0.56583
     176 ->178        -0.39517

 Excited State   3:      Singlet-A      2.9500 eV  420.29 nm  f=0.4565  <S**2>=0.000
     175 ->177         0.25004
     176 ->178         0.42475
     176 ->179         0.45711

 Excited State   4:      Singlet-A      3.0220 eV  410.27 nm  f=0.1532  <S**2>=0.000
     168 ->177         0.21728
     168 ->179         0.32975
     168 ->180         0.25081
     168 ->183         0.12145
     168 ->186         0.23142
     169 ->177         0.12895
     169 ->180         0.11860
     175 ->177        -0.13721
     176 ->178        -0.18706
     176 ->179         0.21245

 Excited State   5:      Singlet-A      3.0298 eV  409.22 nm  f=0.2429  <S**2>=0.000
     168 ->177        -0.18848
     168 ->179        -0.14934
     168 ->180        -0.19596
     168 ->186        -0.11766
     169 ->177         0.15960
     169 ->179        -0.23727
     169 ->180         0.12064
     169 ->186        -0.12389
     175 ->177        -0.16965
     176 ->178        -0.22758
     176 ->179         0.32533

 The electronic state is 1-A.
 Alpha  occ. eigenvalues --   -1.86389  -1.82833  -1.81524  -1.75279  -1.72544
 Alpha  occ. eigenvalues --   -1.71501  -1.63877  -1.61269  -1.58414  -1.57969
 Alpha  occ. eigenvalues --   -1.55071  -1.51396  -1.48473  -1.48065  -1.46408
 Alpha  occ. eigenvalues --   -1.44814  -1.42680  -1.40927  -1.38930  -1.38699
 Alpha  occ. eigenvalues --   -1.36001  -1.33470  -1.32274  -1.30874  -1.29473
 Alpha  occ. eigenvalues --   -1.27503  -1.24838  -1.21329  -1.20044  -1.18785
 Alpha  occ. eigenvalues --   -1.18229  -1.16087  -1.15316  -1.14962  -1.13459
 Alpha  occ. eigenvalues --   -1.11851  -1.10823  -1.10569  -1.04367  -1.03469
 Alpha  occ. eigenvalues --   -1.01938  -1.00555  -0.97964  -0.97589  -0.97258
 Alpha  occ. eigenvalues --   -0.95419  -0.94422  -0.93681  -0.92921  -0.92203
 Alpha  occ. eigenvalues --   -0.91990  -0.90151  -0.89160  -0.89066  -0.86522
 Alpha  occ. eigenvalues --   -0.86324  -0.85352  -0.83196  -0.82638  -0.81386
 Alpha  occ. eigenvalues --   -0.79845  -0.78447  -0.77848  -0.77112  -0.76443
 Alpha  occ. eigenvalues --   -0.75616  -0.75180  -0.74085  -0.73456  -0.72776
 Alpha  occ. eigenvalues --   -0.72505  -0.72298  -0.71730  -0.71259  -0.70510
 Alpha  occ. eigenvalues --   -0.70124  -0.69789  -0.68822  -0.67875  -0.67333
 Alpha  occ. eigenvalues --   -0.66719  -0.66450  -0.66303  -0.66015  -0.65855
 Alpha  occ. eigenvalues --   -0.65649  -0.64901  -0.64470  -0.64072  -0.63713
 Alpha  occ. eigenvalues --   -0.63216  -0.62794  -0.62509  -0.62293  -0.62202
 Alpha  occ. eigenvalues --   -0.61582  -0.60975  -0.60644  -0.60552  -0.60197
 Alpha  occ. eigenvalues --   -0.59934  -0.59523  -0.58747  -0.58611  -0.57720
 Alpha  occ. eigenvalues --   -0.57697  -0.57521  -0.57421  -0.57117  -0.56752
 Alpha  occ. eigenvalues --   -0.56518  -0.56124  -0.55214  -0.54878  -0.54554
 Alpha  occ. eigenvalues --   -0.54375  -0.53964  -0.53701  -0.53417  -0.53055
 Alpha  occ. eigenvalues --   -0.52831  -0.52270  -0.52084  -0.51695  -0.51449
 Alpha  occ. eigenvalues --   -0.51391  -0.51130  -0.51020  -0.50545  -0.50403
 Alpha  occ. eigenvalues --   -0.49893  -0.49718  -0.49509  -0.49242  -0.48877
 Alpha  occ. eigenvalues --   -0.48741  -0.48508  -0.48344  -0.47766  -0.47717
 Alpha  occ. eigenvalues --   -0.47527  -0.47425  -0.47359  -0.46925  -0.46820
 Alpha  occ. eigenvalues --   -0.46777  -0.46464  -0.46351  -0.45736  -0.45528
 Alpha  occ. eigenvalues --   -0.45334  -0.45063  -0.44987  -0.44627  -0.44514
 Alpha  occ. eigenvalues --   -0.44390  -0.43729  -0.43626  -0.42557  -0.42415
 Alpha  occ. eigenvalues --   -0.42075  -0.41408  -0.40736  -0.39081  -0.38935
 Alpha  occ. eigenvalues --   -0.37932  -0.37111  -0.35526  -0.35273  -0.34385
 Alpha  occ. eigenvalues --   -0.33640  -0.32750  -0.32450  -0.32206  -0.26506
 Alpha  occ. eigenvalues --   -0.21879
 Alpha virt. eigenvalues --   -0.08777  -0.02039  -0.00735   0.01291   0.01708
 Alpha virt. eigenvalues --    0.01893   0.02483   0.03349   0.03395   0.04666
 Alpha virt. eigenvalues --    0.06166   0.06604   0.06932   0.07636   0.08247

 Mulliken charges:
               1
     1  Mg   0.432368
     2  C   -0.045483
     3  C   -0.102793
     4  C   -0.072665
     5  C   -0.075346
     6  N   -0.267823
     7  C    0.113751
     8  C    0.003137
     9  C    0.000666
    10  C    0.142333
    11  C   -0.048556
    12  C   -0.017329
    13  C   -0.008505
    14  C    0.474704
    15  O   -0.509009
    16  O   -0.269160
    17  N   -0.308101
    18  C    0.109917
    19  C    0.019214
    20  C   -0.049241
    21  C    0.123516
    22  C   -0.044622
    23  C    0.330757
    24  O   -0.514623
    25  C   -0.034877
    26  N   -0.257080
    27  C    0.126326
    28  C    0.005196
    29  C   -0.008930
    30  C    0.142284
    31  C   -0.057354
    32  C   -0.033818
    33  C   -0.057542
    34  N   -0.313536
    35  C    0.096291
    36  C    0.033592
    37  C   -0.068294
    38  C    0.117626
    39  C   -0.042231
    40  C    0.342901
    41  O   -0.508136
    42  C    0.062305
    43  C    0.494286
    44  O   -0.532227
    45  O   -0.263780
    46  C    0.072186
    47  C    0.097501
    48  C   -0.081363
    49  C   -0.037356
    50  C   -0.046838
    51  C   -0.025354
    52  C   -0.022695
    53  C   -0.034723
    54  C   -0.013447
    55  C   -0.053926
    56  C   -0.046253
    57  C   -0.041234
    58  C   -0.033018
    59  C   -0.016085
    60  C   -0.059802
    61  C   -0.040420
    62  C   -0.045026
    63  C   -0.034586
    64  C   -0.011217
    65  C   -0.063027
    66  C   -0.062685
    67  H    0.016502
    68  H    0.040320
    69  H    0.020623
    70  H    0.033184
    71  H    0.028133
    72  H    0.030284
    73  H    0.026419
    74  H    0.027974
    75  H    0.024664
    76  H    0.042617
    77  H    0.025517
    78  H    0.036126
    79  H    0.027548
    80  H    0.016903
    81  H    0.028796
    82  H    0.036450
    83  H    0.024121
    84  H    0.049984
    85  H    0.032288
    86  H    0.034591
    87  H    0.031827
    88  H    0.026027
    89  H    0.018695
    90  H    0.035055
    91  H    0.021122
    92  H    0.019621
    93  H    0.018412
    94  H    0.019128
    95  H    0.027766
    96  H    0.046130
    97  H    0.020888
    98  H    0.055276
    99  H    0.052586
   100  H    0.033246
   101  H    0.030944
   102  H    0.056193
   103  H    0.058456
   104  H    0.037383
   105  H    0.029140
   106  H    0.023381
   107  H    0.025364
   108  H    0.027491
   109  H    0.015977
   110  H    0.032747
   111  H    0.006575
   112  H    0.036893
   113  H    0.005323
   114  H    0.024770
   115  H    0.023756
   116  H    0.012568
   117  H    0.014559
   118  H    0.019610
   119  H    0.022755
   120  H    0.009320
   121  H    0.022784
   122  H    0.025826
   123  H    0.021009
   124  H    0.030390
   125  H    0.022192
   126  H    0.014414
   127  H    0.018802
   128  H    0.017455
   129  H    0.009782
   130  H    0.029653
   131  H    0.013932
   132  H    0.024643
   133  H    0.025638
   134  H    0.013407
   135  H    0.015806
   136  H    0.013799
   137  H    0.022112
   138  H    0.013487
   139  H    0.022852
   140  H    0.019242
 Sum of Mulliken charges =   0.00000

 Dipole moment (field-independent basis, Debye):
    X=              6.2132    Y=              4.4081    Z=             -1.5778  Tot=              7.7798
 N-N= 4.379793386303D+03 E-N= 0.000000000000D+00  KE=-9.433534199563D+03
 Leave Link  601 at Thu Apr 28 17:06:41 2022, MaxMem=  6710886400 cpu:               0.8 elap:               0.0
 (Enter /sw/apps/gaussian-16.0/g16/l9999.exe)
 1\1\GINC-BP1-COMPUTE070\SP\RZINDO CIS\STO-3G\C55H74Mg1N4O6\OF15641\28-
 Apr-2022\0\\#p ZINDO=(nstates=5)\\step_1651_chromophore_15 ZINDO\\0,1\
 Mg,0,46.914,35.248,28.262\C,0,45.631,33.049,30.723\C,0,47.071,37.725,3
 0.717\C,0,47.622,37.475,25.928\C,0,46.181,32.863,25.942\N,0,46.512,35.
 402,30.458\C,0,46.003,34.332,31.165\C,0,45.951,34.764,32.666\C,0,45.94
 8,36.298,32.584\C,0,46.6,36.47,31.213\C,0,44.598,37.126,32.805\C,0,47.
 243,34.17,33.335\C,0,47.418,34.29,34.901\C,0,46.318,34.95,35.748\O,0,4

 Normal termination of Gaussian 16 at Thu Apr 28 17:06:41 2022.
