 Gaussian 16, Revision A.03,
 Gaussian 16:  ES64L-G16RevA.03 25-Dec-2016

 ------------------------------
 #p blyp/Def2SVP td=(nstates=5)
 ------------------------------

 ---------------------------------------------------
 step_1751_chromophore_25 TDDFT with blyp functional
 ---------------------------------------------------
 Symbolic Z-matrix:
 Charge =  0 Multiplicity = 1

                         Standard orientation:
 ---------------------------------------------------------------------
 Center     Atomic      Atomic             Coordinates (Angstroms)
 Number     Number       Type             X           Y           Z
 ---------------------------------------------------------------------
      1         12           0        6.116019    0.521614    0.218185
      2          6           0        3.800841   -2.170957    0.073564
      3          6           0        3.665049    2.651753   -0.602237
      4          6           0        8.602178    2.872569   -0.229081
      5          6           0        8.607360   -1.800636    0.893361
      6          7           0        3.909358    0.202057   -0.267265
      7          6           0        3.208085   -0.905124   -0.210541
      8          6           0        1.720553   -0.547541   -0.296784
      9          6           0        1.637247    0.964191   -0.688034
     10          6           0        3.164068    1.302578   -0.469338
     11          6           0        1.153727    1.244798   -2.116900
     12          6           0        0.688336   -0.980644    0.796292
     13          6           0       -0.536847   -1.863422    0.347603
     14          6           0       -1.868077   -1.514246    1.065978
     15          8           0       -1.949183   -1.369021    2.285420
     16          8           0       -2.885140   -1.546556    0.155715
     17          7           0        6.130269    2.476675   -0.341438
     18          6           0        4.992675    3.201808   -0.597419
     19          6           0        5.365025    4.531620   -0.955592
     20          6           0        6.779236    4.674032   -0.797188
     21          6           0        7.248106    3.304001   -0.434553
     22          6           0        4.335217    5.523779   -1.315803
     23          6           0        7.662671    5.940144   -0.929989
     24          8           0        8.848258    5.950792   -0.600303
     25          6           0        7.095979    7.250584   -1.264740
     26          7           0        8.365247    0.467914    0.115573
     27          6           0        9.111847    1.624353    0.028849
     28          6           0       10.534412    1.288138    0.255850
     29          6           0       10.528023   -0.106836    0.918559
     30          6           0        9.052153   -0.503761    0.639894
     31          6           0       11.543820    1.449183   -0.994431
     32          6           0       11.138761   -0.115672    2.384510
     33          6           0       10.115849   -0.110512    3.585859
     34          7           0        6.180115   -1.577960    0.517961
     35          6           0        7.302354   -2.381819    0.769009
     36          6           0        6.847119   -3.749484    0.815199
     37          6           0        5.463004   -3.747004    0.564576
     38          6           0        5.127455   -2.401425    0.419392
     39          6           0        7.680239   -4.935725    1.182824
     40          6           0        4.314610   -4.575848    0.449064
     41          8           0        4.197554   -5.776350    0.614820
     42          6           0        3.099525   -3.546988    0.120013
     43          6           0        2.390566   -3.844143   -1.107202
     44          8           0        2.716046   -3.530858   -2.224160
     45          8           0        1.256731   -4.582227   -0.863893
     46          6           0        0.281459   -4.881535   -1.981683
     47          6           0       -4.198254   -1.503095    0.710455
     48          6           0       -5.072206   -1.637061   -0.484065
     49          6           0       -6.262967   -2.327156   -0.433902
     50          6           0       -6.694513   -3.309136    0.621391
     51          6           0       -7.059588   -2.417234   -1.713084
     52          6           0       -7.617590   -1.210367   -2.452100
     53          6           0       -9.146263   -1.011945   -2.203938
     54          6           0       -9.451037    0.414414   -1.818691
     55          6           0       -9.474617    0.626730   -0.347740
     56          6           0      -10.874728    0.862232   -2.386176
     57          6           0      -12.040213   -0.159067   -2.119251
     58          6           0      -13.501268    0.625127   -1.941240
     59          6           0      -14.039265    0.567932   -0.512686
     60          6           0      -15.125211   -0.495855   -0.370313
     61          6           0      -14.443552    1.956330    0.066044
     62          6           0      -14.706573    1.859469    1.643031
     63          6           0      -13.993750    3.040578    2.329476
     64          6           0      -12.902972    2.399337    3.314000
     65          6           0      -13.034433    3.047239    4.670705
     66          6           0      -11.465746    2.712916    2.795864
     67          1           0        2.758833    3.225145   -0.805914
     68          1           0        9.360504    3.646636   -0.362865
     69          1           0        9.400283   -2.495988    1.176712
     70          1           0        1.383873   -1.030972   -1.213415
     71          1           0        1.037654    1.512781    0.039304
     72          1           0        0.106602    1.486842   -1.935742
     73          1           0        1.382723    0.417299   -2.787233
     74          1           0        1.542467    2.150684   -2.583814
     75          1           0        0.353613   -0.120286    1.376138
     76          1           0        1.258138   -1.502199    1.565228
     77          1           0       -0.168052   -2.806597    0.750320
     78          1           0       -0.735867   -1.938173   -0.720997
     79          1           0        4.293787    5.511545   -2.404583
     80          1           0        4.608062    6.534817   -1.011804
     81          1           0        3.325556    5.405522   -0.922212
     82          1           0        6.532996    7.559459   -0.384626
     83          1           0        6.371411    7.206254   -2.078742
     84          1           0        7.899185    7.957004   -1.474654
     85          1           0       10.828770    2.098129    0.922538
     86          1           0       11.080948   -0.703416    0.192979
     87          1           0       11.006732    1.497446   -1.941069
     88          1           0       12.332208    0.697950   -1.045121
     89          1           0       12.087958    2.391917   -1.053954
     90          1           0       11.946210    0.571800    2.635627
     91          1           0       11.587964   -1.103083    2.496949
     92          1           0        9.137276    0.163706    3.191056
     93          1           0       10.509077    0.487202    4.407744
     94          1           0       10.049856   -1.140008    3.936717
     95          1           0        7.753909   -5.589977    0.314243
     96          1           0        7.121255   -5.552074    1.886260
     97          1           0        8.611073   -4.565089    1.612061
     98          1           0        2.346805   -3.711206    0.890783
     99          1           0        0.598561   -5.530109   -2.798574
    100          1           0        0.012992   -3.923007   -2.424803
    101          1           0       -0.594889   -5.401108   -1.593549
    102          1           0       -4.476886   -0.619229    1.284445
    103          1           0       -4.375215   -2.383248    1.327598
    104          1           0       -4.849953   -1.016599   -1.351914
    105          1           0       -6.278822   -4.288349    0.383225
    106          1           0       -7.775823   -3.368479    0.739533
    107          1           0       -6.325080   -3.040750    1.611146
    108          1           0       -7.859790   -3.118200   -1.472475
    109          1           0       -6.502269   -3.034117   -2.417796
    110          1           0       -7.431077   -1.377560   -3.512883
    111          1           0       -7.091532   -0.308997   -2.137858
    112          1           0       -9.609375   -1.687189   -1.483588
    113          1           0       -9.646566   -1.195768   -3.155742
    114          1           0       -8.761646    1.114120   -2.290024
    115          1           0       -8.998628   -0.141268    0.261503
    116          1           0      -10.494648    0.773960    0.007605
    117          1           0       -8.856945    1.494724   -0.117848
    118          1           0      -10.739996    1.127332   -3.434952
    119          1           0      -11.003784    1.845747   -1.933570
    120          1           0      -11.754618   -0.790480   -1.277174
    121          1           0      -12.102967   -0.728307   -3.046369
    122          1           0      -14.116682    0.156585   -2.709699
    123          1           0      -13.360802    1.666658   -2.230082
    124          1           0      -13.255771    0.089336    0.074356
    125          1           0      -14.813226   -1.203916    0.397382
    126          1           0      -15.349334   -1.034214   -1.292207
    127          1           0      -16.070353   -0.057471   -0.051753
    128          1           0      -15.297286    2.270387   -0.533556
    129          1           0      -13.537217    2.526020   -0.138659
    130          1           0      -14.354592    0.854018    1.873254
    131          1           0      -15.774232    2.003878    1.806116
    132          1           0      -14.752135    3.594644    2.882952
    133          1           0      -13.430311    3.760231    1.736060
    134          1           0      -13.109933    1.330597    3.369167
    135          1           0      -13.216071    4.114203    4.540323
    136          1           0      -12.070213    2.774657    5.098874
    137          1           0      -13.731910    2.568809    5.359083
    138          1           0      -10.792654    1.978735    3.237505
    139          1           0      -11.177527    3.688243    3.187289
    140          1           0      -11.431146    2.756435    1.706935
 ---------------------------------------------------------------------

 SCF Done:  E(RB-LYP) =  -3007.36069394     A.U. after   21 cycles

 Excitation energies and oscillator strengths:

 Excited State   1:      Singlet-A      1.8316 eV  676.91 nm  f=0.2863  <S**2>=0.000
     245 -> 248        0.21163
     246 -> 247        0.68360
     246 <- 247       -0.14004
 This state for optimization and/or second-order correction.
 Total Energy, E(TD-HF/TD-DFT) =  -3007.29338363
 Copying the excited state density for this state as the 1-particle RhoCI density.

 Excited State   2:      Singlet-A      1.9780 eV  626.81 nm  f=0.0424  <S**2>=0.000
     244 -> 247        0.48151
     245 -> 247        0.48056
     246 -> 248       -0.16105

 Excited State   3:      Singlet-A      2.0058 eV  618.13 nm  f=0.0471  <S**2>=0.000
     244 -> 247        0.51662
     245 -> 247       -0.44062
     246 -> 248        0.15849

 Excited State   4:      Singlet-A      2.1749 eV  570.06 nm  f=0.0017  <S**2>=0.000
     243 -> 247        0.69742

 Excited State   5:      Singlet-A      2.2636 eV  547.74 nm  f=0.0000  <S**2>=0.000
     242 -> 247        0.70710

 The electronic state is 1-A.
 Alpha  occ. eigenvalues --  -46.28108 -18.83107 -18.81463 -18.77237 -18.76313
 Alpha  occ. eigenvalues --  -18.75840 -18.75481 -14.03270 -14.02466 -14.01507
 Alpha  occ. eigenvalues --  -14.00845 -10.04431 -10.03053 -10.00084 -10.00027
 Alpha  occ. eigenvalues --   -9.98181  -9.97747  -9.96801  -9.96584  -9.96478
 Alpha  occ. eigenvalues --   -9.96237  -9.95842  -9.95804  -9.95595  -9.94276
 Alpha  occ. eigenvalues --   -9.94271  -9.93828  -9.93802  -9.93779  -9.93774
 Alpha  occ. eigenvalues --   -9.93719  -9.93662  -9.93584  -9.93540  -9.93421
 Alpha  occ. eigenvalues --   -9.93218  -9.93192  -9.93162  -9.93035  -9.92780
 Alpha  occ. eigenvalues --   -9.92754  -9.92678  -9.92629  -9.92198  -9.92137
 Alpha  occ. eigenvalues --   -9.92036  -9.92004  -9.91992  -9.91818  -9.91784
 Alpha  occ. eigenvalues --   -9.91746  -9.91708  -9.91501  -9.91347  -9.91322
 Alpha  occ. eigenvalues --   -9.91252  -9.91203  -9.91188  -9.91027  -9.91010
 Alpha  occ. eigenvalues --   -9.90908  -9.90906  -9.90859  -9.90490  -9.90410
 Alpha  occ. eigenvalues --   -9.90313  -2.92551  -1.72972  -1.72465  -1.72241
 Alpha  occ. eigenvalues --   -0.98894  -0.96979  -0.91891  -0.91346  -0.90578
 Alpha  occ. eigenvalues --   -0.89004  -0.87434  -0.86964  -0.85700  -0.84730
 Alpha  occ. eigenvalues --   -0.75257  -0.73968  -0.72857  -0.72546  -0.72282
 Alpha  occ. eigenvalues --   -0.71790  -0.71259  -0.71028  -0.70707  -0.70530
 Alpha  occ. eigenvalues --   -0.69902  -0.69245  -0.67951  -0.67441  -0.66788
 Alpha  occ. eigenvalues --   -0.66266  -0.66063  -0.65660  -0.65266  -0.64520
 Alpha  occ. eigenvalues --   -0.63905  -0.62673  -0.62294  -0.61629  -0.60942
 Alpha  occ. eigenvalues --   -0.60778  -0.60222  -0.59693  -0.59301  -0.58649
 Alpha  occ. eigenvalues --   -0.58177  -0.57817  -0.56960  -0.55485  -0.54825
 Alpha  occ. eigenvalues --   -0.54325  -0.54100  -0.53035  -0.52570  -0.51832
 Alpha  occ. eigenvalues --   -0.51539  -0.51355  -0.50986  -0.50774  -0.50089
 Alpha  occ. eigenvalues --   -0.49529  -0.48478  -0.48063  -0.47647  -0.46391
 Alpha  occ. eigenvalues --   -0.46230  -0.46177  -0.45751  -0.44856  -0.44248
 Alpha  occ. eigenvalues --   -0.43732  -0.43659  -0.42992  -0.42768  -0.42398
 Alpha  occ. eigenvalues --   -0.42077  -0.41739  -0.41423  -0.41417  -0.41355
 Alpha  occ. eigenvalues --   -0.41243  -0.41079  -0.40735  -0.40168  -0.40124
 Alpha  occ. eigenvalues --   -0.39820  -0.39581  -0.39402  -0.39372  -0.39041
 Alpha  occ. eigenvalues --   -0.38876  -0.38791  -0.38644  -0.38498  -0.38278
 Alpha  occ. eigenvalues --   -0.38010  -0.37930  -0.37595  -0.37357  -0.37150
 Alpha  occ. eigenvalues --   -0.37084  -0.36979  -0.36912  -0.36702  -0.36397
 Alpha  occ. eigenvalues --   -0.36356  -0.36095  -0.35951  -0.35617  -0.35573
 Alpha  occ. eigenvalues --   -0.35236  -0.34975  -0.34967  -0.34695  -0.34513
 Alpha  occ. eigenvalues --   -0.34347  -0.34269  -0.34225  -0.34075  -0.33804
 Alpha  occ. eigenvalues --   -0.33766  -0.33728  -0.33399  -0.33326  -0.32994
 Alpha  occ. eigenvalues --   -0.32911  -0.32735  -0.32677  -0.32424  -0.32337
 Alpha  occ. eigenvalues --   -0.32227  -0.31946  -0.31878  -0.31784  -0.31718
 Alpha  occ. eigenvalues --   -0.31507  -0.31377  -0.31246  -0.31184  -0.30904
 Alpha  occ. eigenvalues --   -0.30867  -0.30513  -0.30251  -0.30139  -0.29911
 Alpha  occ. eigenvalues --   -0.29506  -0.29387  -0.29262  -0.29026  -0.28903
 Alpha  occ. eigenvalues --   -0.28521  -0.28484  -0.28258  -0.28049  -0.27878
 Alpha  occ. eigenvalues --   -0.27144  -0.27089  -0.26809  -0.26541  -0.26418
 Alpha  occ. eigenvalues --   -0.26181  -0.26113  -0.26070  -0.25964  -0.25196
 Alpha  occ. eigenvalues --   -0.25029  -0.24776  -0.23847  -0.23645  -0.23480
 Alpha  occ. eigenvalues --   -0.23008  -0.22195  -0.21831  -0.21190  -0.20820
 Alpha  occ. eigenvalues --   -0.20431  -0.19823  -0.19349  -0.18755  -0.17081
 Alpha  occ. eigenvalues --   -0.15947
 Alpha virt. eigenvalues --   -0.11504  -0.06867  -0.06323  -0.04562  -0.03778
 Alpha virt. eigenvalues --   -0.02775  -0.02736  -0.02164  -0.01008   0.00147
 Alpha virt. eigenvalues --    0.01543   0.01624   0.01914   0.02333   0.03033

 Mulliken charges:
               1
     1  Mg   0.684414
     2  C    0.033488
     3  C   -0.018272
     4  C   -0.035296
     5  C   -0.055648
     6  N   -0.141550
     7  C   -0.089992
     8  C    0.050036
     9  C   -0.031915
    10  C   -0.093946
    11  C    0.137785
    12  C    0.112540
    13  C    0.108118
    14  C    0.071167
    15  O   -0.199768
    16  O   -0.245227
    17  N   -0.324957
    18  C    0.190172
    19  C   -0.130205
    20  C    0.029009
    21  C    0.084422
    22  C    0.163720
    23  C   -0.067095
    24  O   -0.174490
    25  C    0.139749
    26  N   -0.167677
    27  C    0.012954
    28  C    0.015688
    29  C    0.094069
    30  C   -0.048189
    31  C    0.102561
    32  C    0.080971
    33  C    0.054912
    34  N   -0.252031
    35  C    0.127778
    36  C   -0.186196
    37  C    0.108850
    38  C    0.062757
    39  C    0.187205
    40  C   -0.051623
    41  O   -0.112650
    42  C    0.022911
    43  C    0.082710
    44  O   -0.169124
    45  O   -0.293109
    46  C    0.221126
    47  C    0.329336
    48  C   -0.101858
    49  C   -0.157768
    50  C    0.125340
    51  C    0.116718
    52  C    0.132435
    53  C    0.123006
    54  C   -0.118630
    55  C    0.120136
    56  C    0.051336
    57  C    0.048804
    58  C    0.122418
    59  C   -0.116710
    60  C    0.108950
    61  C    0.087499
    62  C    0.091561
    63  C    0.104555
    64  C   -0.131730
    65  C    0.125163
    66  C    0.096314
    67  H   -0.071977
    68  H   -0.048748
    69  H   -0.070208
    70  H   -0.024294
    71  H   -0.020188
    72  H   -0.008292
    73  H    0.011782
    74  H   -0.013698
    75  H   -0.019583
    76  H   -0.026133
    77  H    0.023976
    78  H    0.000342
    79  H    0.004269
    80  H   -0.021957
    81  H   -0.002337
    82  H    0.022289
    83  H   -0.005247
    84  H    0.000564
    85  H   -0.022372
    86  H   -0.029868
    87  H   -0.008487
    88  H   -0.005493
    89  H   -0.011383
    90  H   -0.010220
    91  H   -0.028181
    92  H    0.010718
    93  H   -0.002324
    94  H   -0.011059
    95  H    0.007583
    96  H    0.002209
    97  H   -0.006373
    98  H   -0.003419
    99  H    0.018712
   100  H    0.013237
   101  H    0.016787
   102  H    0.011289
   103  H   -0.016083
   104  H   -0.030883
   105  H    0.015417
   106  H   -0.002229
   107  H   -0.007461
   108  H   -0.058505
   109  H   -0.027321
   110  H   -0.033825
   111  H   -0.025177
   112  H   -0.028910
   113  H   -0.045022
   114  H   -0.042717
   115  H   -0.030935
   116  H   -0.000224
   117  H   -0.023570
   118  H   -0.041191
   119  H   -0.038708
   120  H   -0.008052
   121  H   -0.024150
   122  H   -0.035613
   123  H   -0.035479
   124  H   -0.035305
   125  H   -0.019545
   126  H   -0.021035
   127  H   -0.025525
   128  H   -0.023014
   129  H   -0.022327
   130  H   -0.011087
   131  H   -0.026386
   132  H   -0.038314
   133  H   -0.028064
   134  H   -0.034464
   135  H   -0.001829
   136  H   -0.034354
   137  H   -0.024042
   138  H   -0.007649
   139  H   -0.021061
   140  H   -0.004307
 Sum of Mulliken charges =  -0.00000

 Dipole moment (field-independent basis, Debye):
    X=             -3.3283    Y=              2.2741    Z=             -0.5690  Tot=              4.0710
 Quadrupole moment (field-independent basis, Debye-Ang):
   XX=           -382.3609   YY=           -420.1034   ZZ=           -410.2375
   XY=              2.7599   XZ=             17.3117   YZ=             -1.4883

 Normal termination of Gaussian 16 at Wed May  4 14:00:04 2022.
