 Gaussian 16, Revision A.03,
 Gaussian 16:  ES64L-G16RevA.03 25-Dec-2016

 -----------------------------------
 #p cam-b3lyp/Def2SVP td=(nstates=5)
 -----------------------------------

 --------------------------------------------------------
 step_1751_chromophore_25 TDDFT with cam-b3lyp functional
 --------------------------------------------------------
 Symbolic Z-matrix:
 Charge =  0 Multiplicity = 1

                         Standard orientation:
 ---------------------------------------------------------------------
 Center     Atomic      Atomic             Coordinates (Angstroms)
 Number     Number       Type             X           Y           Z
 ---------------------------------------------------------------------
      1         12           0        6.116019    0.521614    0.218185
      2          6           0        3.800841   -2.170957    0.073564
      3          6           0        3.665049    2.651753   -0.602237
      4          6           0        8.602178    2.872569   -0.229081
      5          6           0        8.607360   -1.800636    0.893361
      6          7           0        3.909358    0.202057   -0.267265
      7          6           0        3.208085   -0.905124   -0.210541
      8          6           0        1.720553   -0.547541   -0.296784
      9          6           0        1.637247    0.964191   -0.688034
     10          6           0        3.164068    1.302578   -0.469338
     11          6           0        1.153727    1.244798   -2.116900
     12          6           0        0.688336   -0.980644    0.796292
     13          6           0       -0.536847   -1.863422    0.347603
     14          6           0       -1.868077   -1.514246    1.065978
     15          8           0       -1.949183   -1.369021    2.285420
     16          8           0       -2.885140   -1.546556    0.155715
     17          7           0        6.130269    2.476675   -0.341438
     18          6           0        4.992675    3.201808   -0.597419
     19          6           0        5.365025    4.531620   -0.955592
     20          6           0        6.779236    4.674032   -0.797188
     21          6           0        7.248106    3.304001   -0.434553
     22          6           0        4.335217    5.523779   -1.315803
     23          6           0        7.662671    5.940144   -0.929989
     24          8           0        8.848258    5.950792   -0.600303
     25          6           0        7.095979    7.250584   -1.264740
     26          7           0        8.365247    0.467914    0.115573
     27          6           0        9.111847    1.624353    0.028849
     28          6           0       10.534412    1.288138    0.255850
     29          6           0       10.528023   -0.106836    0.918559
     30          6           0        9.052153   -0.503761    0.639894
     31          6           0       11.543820    1.449183   -0.994431
     32          6           0       11.138761   -0.115672    2.384510
     33          6           0       10.115849   -0.110512    3.585859
     34          7           0        6.180115   -1.577960    0.517961
     35          6           0        7.302354   -2.381819    0.769009
     36          6           0        6.847119   -3.749484    0.815199
     37          6           0        5.463004   -3.747004    0.564576
     38          6           0        5.127455   -2.401425    0.419392
     39          6           0        7.680239   -4.935725    1.182824
     40          6           0        4.314610   -4.575848    0.449064
     41          8           0        4.197554   -5.776350    0.614820
     42          6           0        3.099525   -3.546988    0.120013
     43          6           0        2.390566   -3.844143   -1.107202
     44          8           0        2.716046   -3.530858   -2.224160
     45          8           0        1.256731   -4.582227   -0.863893
     46          6           0        0.281459   -4.881535   -1.981683
     47          6           0       -4.198254   -1.503095    0.710455
     48          6           0       -5.072206   -1.637061   -0.484065
     49          6           0       -6.262967   -2.327156   -0.433902
     50          6           0       -6.694513   -3.309136    0.621391
     51          6           0       -7.059588   -2.417234   -1.713084
     52          6           0       -7.617590   -1.210367   -2.452100
     53          6           0       -9.146263   -1.011945   -2.203938
     54          6           0       -9.451037    0.414414   -1.818691
     55          6           0       -9.474617    0.626730   -0.347740
     56          6           0      -10.874728    0.862232   -2.386176
     57          6           0      -12.040213   -0.159067   -2.119251
     58          6           0      -13.501268    0.625127   -1.941240
     59          6           0      -14.039265    0.567932   -0.512686
     60          6           0      -15.125211   -0.495855   -0.370313
     61          6           0      -14.443552    1.956330    0.066044
     62          6           0      -14.706573    1.859469    1.643031
     63          6           0      -13.993750    3.040578    2.329476
     64          6           0      -12.902972    2.399337    3.314000
     65          6           0      -13.034433    3.047239    4.670705
     66          6           0      -11.465746    2.712916    2.795864
     67          1           0        2.758833    3.225145   -0.805914
     68          1           0        9.360504    3.646636   -0.362865
     69          1           0        9.400283   -2.495988    1.176712
     70          1           0        1.383873   -1.030972   -1.213415
     71          1           0        1.037654    1.512781    0.039304
     72          1           0        0.106602    1.486842   -1.935742
     73          1           0        1.382723    0.417299   -2.787233
     74          1           0        1.542467    2.150684   -2.583814
     75          1           0        0.353613   -0.120286    1.376138
     76          1           0        1.258138   -1.502199    1.565228
     77          1           0       -0.168052   -2.806597    0.750320
     78          1           0       -0.735867   -1.938173   -0.720997
     79          1           0        4.293787    5.511545   -2.404583
     80          1           0        4.608062    6.534817   -1.011804
     81          1           0        3.325556    5.405522   -0.922212
     82          1           0        6.532996    7.559459   -0.384626
     83          1           0        6.371411    7.206254   -2.078742
     84          1           0        7.899185    7.957004   -1.474654
     85          1           0       10.828770    2.098129    0.922538
     86          1           0       11.080948   -0.703416    0.192979
     87          1           0       11.006732    1.497446   -1.941069
     88          1           0       12.332208    0.697950   -1.045121
     89          1           0       12.087958    2.391917   -1.053954
     90          1           0       11.946210    0.571800    2.635627
     91          1           0       11.587964   -1.103083    2.496949
     92          1           0        9.137276    0.163706    3.191056
     93          1           0       10.509077    0.487202    4.407744
     94          1           0       10.049856   -1.140008    3.936717
     95          1           0        7.753909   -5.589977    0.314243
     96          1           0        7.121255   -5.552074    1.886260
     97          1           0        8.611073   -4.565089    1.612061
     98          1           0        2.346805   -3.711206    0.890783
     99          1           0        0.598561   -5.530109   -2.798574
    100          1           0        0.012992   -3.923007   -2.424803
    101          1           0       -0.594889   -5.401108   -1.593549
    102          1           0       -4.476886   -0.619229    1.284445
    103          1           0       -4.375215   -2.383248    1.327598
    104          1           0       -4.849953   -1.016599   -1.351914
    105          1           0       -6.278822   -4.288349    0.383225
    106          1           0       -7.775823   -3.368479    0.739533
    107          1           0       -6.325080   -3.040750    1.611146
    108          1           0       -7.859790   -3.118200   -1.472475
    109          1           0       -6.502269   -3.034117   -2.417796
    110          1           0       -7.431077   -1.377560   -3.512883
    111          1           0       -7.091532   -0.308997   -2.137858
    112          1           0       -9.609375   -1.687189   -1.483588
    113          1           0       -9.646566   -1.195768   -3.155742
    114          1           0       -8.761646    1.114120   -2.290024
    115          1           0       -8.998628   -0.141268    0.261503
    116          1           0      -10.494648    0.773960    0.007605
    117          1           0       -8.856945    1.494724   -0.117848
    118          1           0      -10.739996    1.127332   -3.434952
    119          1           0      -11.003784    1.845747   -1.933570
    120          1           0      -11.754618   -0.790480   -1.277174
    121          1           0      -12.102967   -0.728307   -3.046369
    122          1           0      -14.116682    0.156585   -2.709699
    123          1           0      -13.360802    1.666658   -2.230082
    124          1           0      -13.255771    0.089336    0.074356
    125          1           0      -14.813226   -1.203916    0.397382
    126          1           0      -15.349334   -1.034214   -1.292207
    127          1           0      -16.070353   -0.057471   -0.051753
    128          1           0      -15.297286    2.270387   -0.533556
    129          1           0      -13.537217    2.526020   -0.138659
    130          1           0      -14.354592    0.854018    1.873254
    131          1           0      -15.774232    2.003878    1.806116
    132          1           0      -14.752135    3.594644    2.882952
    133          1           0      -13.430311    3.760231    1.736060
    134          1           0      -13.109933    1.330597    3.369167
    135          1           0      -13.216071    4.114203    4.540323
    136          1           0      -12.070213    2.774657    5.098874
    137          1           0      -13.731910    2.568809    5.359083
    138          1           0      -10.792654    1.978735    3.237505
    139          1           0      -11.177527    3.688243    3.187289
    140          1           0      -11.431146    2.756435    1.706935
 ---------------------------------------------------------------------

 SCF Done:  E(RCAM-B3LYP) =  -3007.15201484     A.U. after   17 cycles

 Excitation energies and oscillator strengths:

 Excited State   1:      Singlet-A      1.7429 eV  711.35 nm  f=0.3731  <S**2>=0.000
     245 -> 248       -0.19759
     246 -> 247        0.68076
     245 <- 248       -0.11082
 This state for optimization and/or second-order correction.
 Total Energy, E(TD-HF/TD-DFT) =  -3007.08796292
 Copying the excited state density for this state as the 1-particle RhoCI density.

 Excited State   2:      Singlet-A      2.2100 eV  561.01 nm  f=0.1304  <S**2>=0.000
     245 -> 247        0.64570
     246 -> 248        0.27810

 Excited State   3:      Singlet-A      3.4144 eV  363.12 nm  f=0.0507  <S**2>=0.000
     242 -> 247       -0.31001
     243 -> 247        0.56157
     246 -> 248        0.25106

 Excited State   4:      Singlet-A      3.5266 eV  351.57 nm  f=0.3167  <S**2>=0.000
     239 -> 247       -0.23342
     239 -> 249        0.12993
     240 -> 247       -0.10959
     241 -> 247        0.12788
     242 -> 247       -0.14860
     243 -> 247       -0.34735
     245 -> 247       -0.17891
     246 -> 248        0.44862

 Excited State   5:      Singlet-A      3.5610 eV  348.17 nm  f=0.0461  <S**2>=0.000
     239 -> 247        0.43474
     239 -> 249       -0.22730
     239 -> 250        0.10885
     239 -> 251       -0.11180
     240 -> 247        0.17926
     241 -> 247       -0.15692
     242 -> 247       -0.25541
     243 -> 247       -0.15575
     246 -> 248        0.20869

 The electronic state is 1-A.
 Alpha  occ. eigenvalues --  -46.89698 -19.26061 -19.24591 -19.20267 -19.19670
 Alpha  occ. eigenvalues --  -19.19181 -19.18513 -14.42188 -14.41169 -14.39901
 Alpha  occ. eigenvalues --  -14.39282 -10.39836 -10.38658 -10.35686 -10.35059
 Alpha  occ. eigenvalues --  -10.32420 -10.31771 -10.31404 -10.30937 -10.30800
 Alpha  occ. eigenvalues --  -10.30699 -10.30346 -10.29834 -10.29826 -10.28694
 Alpha  occ. eigenvalues --  -10.28402 -10.28362 -10.28294 -10.28189 -10.27994
 Alpha  occ. eigenvalues --  -10.27926 -10.27787 -10.27707 -10.27683 -10.27452
 Alpha  occ. eigenvalues --  -10.27422 -10.27392 -10.26926 -10.26788 -10.26664
 Alpha  occ. eigenvalues --  -10.26532 -10.26455 -10.26347 -10.25955 -10.25886
 Alpha  occ. eigenvalues --  -10.25881 -10.25848 -10.25804 -10.25753 -10.25483
 Alpha  occ. eigenvalues --  -10.25431 -10.25413 -10.25207 -10.25104 -10.25102
 Alpha  occ. eigenvalues --  -10.25054 -10.24960 -10.24915 -10.24909 -10.24762
 Alpha  occ. eigenvalues --  -10.24645 -10.24595 -10.24590 -10.24050 -10.23988
 Alpha  occ. eigenvalues --  -10.23905  -3.18036  -1.92936  -1.92503  -1.92322
 Alpha  occ. eigenvalues --   -1.17392  -1.15765  -1.10478  -1.09580  -1.08570
 Alpha  occ. eigenvalues --   -1.07104  -1.05255  -1.04642  -1.03390  -1.02092
 Alpha  occ. eigenvalues --   -0.92522  -0.90893  -0.89679  -0.89334  -0.89028
 Alpha  occ. eigenvalues --   -0.88423  -0.87792  -0.87644  -0.87370  -0.87041
 Alpha  occ. eigenvalues --   -0.86464  -0.85578  -0.84229  -0.83712  -0.82926
 Alpha  occ. eigenvalues --   -0.82337  -0.82132  -0.81606  -0.81150  -0.80372
 Alpha  occ. eigenvalues --   -0.79730  -0.78408  -0.77892  -0.77167  -0.76360
 Alpha  occ. eigenvalues --   -0.76193  -0.75472  -0.75006  -0.74602  -0.73854
 Alpha  occ. eigenvalues --   -0.73279  -0.72857  -0.71857  -0.70317  -0.69448
 Alpha  occ. eigenvalues --   -0.69041  -0.68762  -0.67465  -0.66959  -0.66009
 Alpha  occ. eigenvalues --   -0.65856  -0.65322  -0.65030  -0.64730  -0.64075
 Alpha  occ. eigenvalues --   -0.63554  -0.62378  -0.61819  -0.61437  -0.60026
 Alpha  occ. eigenvalues --   -0.59763  -0.59699  -0.59329  -0.58314  -0.57785
 Alpha  occ. eigenvalues --   -0.57242  -0.57060  -0.56294  -0.55845  -0.55321
 Alpha  occ. eigenvalues --   -0.55228  -0.55018  -0.54848  -0.54478  -0.54190
 Alpha  occ. eigenvalues --   -0.54098  -0.53975  -0.53506  -0.53066  -0.52684
 Alpha  occ. eigenvalues --   -0.52474  -0.52268  -0.52027  -0.52002  -0.51759
 Alpha  occ. eigenvalues --   -0.51540  -0.51335  -0.51236  -0.51096  -0.50863
 Alpha  occ. eigenvalues --   -0.50591  -0.50190  -0.49758  -0.49721  -0.49627
 Alpha  occ. eigenvalues --   -0.49521  -0.49283  -0.49201  -0.49104  -0.49074
 Alpha  occ. eigenvalues --   -0.48552  -0.48388  -0.48080  -0.47929  -0.47578
 Alpha  occ. eigenvalues --   -0.47384  -0.47122  -0.46989  -0.46672  -0.46407
 Alpha  occ. eigenvalues --   -0.46274  -0.46143  -0.46039  -0.45920  -0.45749
 Alpha  occ. eigenvalues --   -0.45515  -0.45403  -0.45179  -0.45034  -0.44845
 Alpha  occ. eigenvalues --   -0.44607  -0.44477  -0.44361  -0.44263  -0.44015
 Alpha  occ. eigenvalues --   -0.43666  -0.43530  -0.43415  -0.43288  -0.43205
 Alpha  occ. eigenvalues --   -0.43120  -0.43000  -0.42728  -0.42489  -0.42324
 Alpha  occ. eigenvalues --   -0.42195  -0.42144  -0.41754  -0.41512  -0.41432
 Alpha  occ. eigenvalues --   -0.41261  -0.40613  -0.40547  -0.40211  -0.40100
 Alpha  occ. eigenvalues --   -0.39526  -0.39456  -0.39246  -0.38938  -0.38837
 Alpha  occ. eigenvalues --   -0.38285  -0.37919  -0.37824  -0.37583  -0.37558
 Alpha  occ. eigenvalues --   -0.37155  -0.36923  -0.36757  -0.36722  -0.36590
 Alpha  occ. eigenvalues --   -0.35839  -0.35801  -0.34438  -0.34227  -0.33975
 Alpha  occ. eigenvalues --   -0.33899  -0.33301  -0.33133  -0.31416  -0.31050
 Alpha  occ. eigenvalues --   -0.30840  -0.30141  -0.29721  -0.29438  -0.23728
 Alpha  occ. eigenvalues --   -0.21285
 Alpha virt. eigenvalues --   -0.08619  -0.01761   0.00184   0.02180   0.02517
 Alpha virt. eigenvalues --    0.03549   0.04856   0.05218   0.06120   0.06946
 Alpha virt. eigenvalues --    0.07928   0.08084   0.08461   0.08989   0.09198

 Mulliken charges:
               1
     1  Mg   0.814028
     2  C    0.001304
     3  C   -0.032898
     4  C   -0.053352
     5  C   -0.067212
     6  N   -0.211811
     7  C   -0.035311
     8  C   -0.007416
     9  C   -0.075652
    10  C   -0.073731
    11  C    0.077752
    12  C    0.055666
    13  C    0.039574
    14  C    0.156866
    15  O   -0.240904
    16  O   -0.310599
    17  N   -0.413528
    18  C    0.195375
    19  C   -0.137886
    20  C   -0.039755
    21  C    0.110926
    22  C    0.101087
    23  C    0.012738
    24  O   -0.216687
    25  C    0.055316
    26  N   -0.238545
    27  C    0.032591
    28  C   -0.038674
    29  C    0.033577
    30  C   -0.025862
    31  C    0.046171
    32  C    0.024521
    33  C   -0.001691
    34  N   -0.342850
    35  C    0.133535
    36  C   -0.179376
    37  C    0.031687
    38  C    0.100311
    39  C    0.135646
    40  C    0.047709
    41  O   -0.151109
    42  C   -0.052362
    43  C    0.175815
    44  O   -0.203351
    45  O   -0.358969
    46  C    0.185556
    47  C    0.290741
    48  C   -0.115353
    49  C   -0.181113
    50  C    0.059605
    51  C    0.054841
    52  C    0.076848
    53  C    0.063091
    54  C   -0.171957
    55  C    0.063821
    56  C    0.007302
    57  C   -0.008419
    58  C    0.070111
    59  C   -0.169452
    60  C    0.049023
    61  C    0.043312
    62  C    0.032497
    63  C    0.047603
    64  C   -0.184244
    65  C    0.061688
    66  C    0.038454
    67  H   -0.037422
    68  H   -0.007928
    69  H   -0.035929
    70  H    0.009249
    71  H    0.013762
    72  H    0.015842
    73  H    0.035624
    74  H    0.012658
    75  H    0.013515
    76  H    0.006016
    77  H    0.053537
    78  H    0.031483
    79  H    0.031478
    80  H    0.004300
    81  H    0.025038
    82  H    0.047882
    83  H    0.022693
    84  H    0.035124
    85  H    0.012712
    86  H    0.007676
    87  H    0.016831
    88  H    0.017355
    89  H    0.013133
    90  H    0.018525
    91  H    0.000036
    92  H    0.030218
    93  H    0.021701
    94  H    0.011357
    95  H    0.035425
    96  H    0.030182
    97  H    0.017232
    98  H    0.038803
    99  H    0.042691
   100  H    0.034154
   101  H    0.040893
   102  H    0.039740
   103  H    0.012743
   104  H    0.003906
   105  H    0.040560
   106  H    0.022386
   107  H    0.016636
   108  H   -0.026089
   109  H    0.004484
   110  H   -0.002347
   111  H    0.001438
   112  H   -0.002748
   113  H   -0.013210
   114  H   -0.008737
   115  H   -0.006537
   116  H    0.017623
   117  H    0.001735
   118  H   -0.011701
   119  H   -0.011688
   120  H    0.015246
   121  H    0.004571
   122  H   -0.005792
   123  H   -0.006087
   124  H   -0.006467
   125  H    0.003979
   126  H    0.004588
   127  H   -0.000967
   128  H    0.004454
   129  H    0.000477
   130  H    0.014315
   131  H    0.003155
   132  H   -0.007426
   133  H    0.000392
   134  H   -0.003532
   135  H    0.020319
   136  H   -0.009005
   137  H    0.002455
   138  H    0.015761
   139  H    0.004348
   140  H    0.014556
 Sum of Mulliken charges =  -0.00000

 Dipole moment (field-independent basis, Debye):
    X=             -3.6534    Y=              2.2105    Z=             -0.6985  Tot=              4.3269
 Quadrupole moment (field-independent basis, Debye-Ang):
   XX=           -383.0644   YY=           -416.5527   ZZ=           -410.1834
   XY=              2.3744   XZ=             18.3853   YZ=             -2.2293

 Normal termination of Gaussian 16 at Wed May  4 13:01:21 2022.
