 Gaussian 16, Revision A.03,
 Gaussian 16:  ES64L-G16RevA.03 25-Dec-2016

 ---------------------------------
 #p PBE1PBE/Def2SVP td=(nstates=5)
 ---------------------------------

 ------------------------------------------------------
 step_1751_chromophore_25 TDDFT with PBE1PBE functional
 ------------------------------------------------------
 Symbolic Z-matrix:
 Charge =  0 Multiplicity = 1

                         Standard orientation:
 ---------------------------------------------------------------------
 Center     Atomic      Atomic             Coordinates (Angstroms)
 Number     Number       Type             X           Y           Z
 ---------------------------------------------------------------------
      1         12           0        6.116019    0.521614    0.218185
      2          6           0        3.800841   -2.170957    0.073564
      3          6           0        3.665049    2.651753   -0.602237
      4          6           0        8.602178    2.872569   -0.229081
      5          6           0        8.607360   -1.800636    0.893361
      6          7           0        3.909358    0.202057   -0.267265
      7          6           0        3.208085   -0.905124   -0.210541
      8          6           0        1.720553   -0.547541   -0.296784
      9          6           0        1.637247    0.964191   -0.688034
     10          6           0        3.164068    1.302578   -0.469338
     11          6           0        1.153727    1.244798   -2.116900
     12          6           0        0.688336   -0.980644    0.796292
     13          6           0       -0.536847   -1.863422    0.347603
     14          6           0       -1.868077   -1.514246    1.065978
     15          8           0       -1.949183   -1.369021    2.285420
     16          8           0       -2.885140   -1.546556    0.155715
     17          7           0        6.130269    2.476675   -0.341438
     18          6           0        4.992675    3.201808   -0.597419
     19          6           0        5.365025    4.531620   -0.955592
     20          6           0        6.779236    4.674032   -0.797188
     21          6           0        7.248106    3.304001   -0.434553
     22          6           0        4.335217    5.523779   -1.315803
     23          6           0        7.662671    5.940144   -0.929989
     24          8           0        8.848258    5.950792   -0.600303
     25          6           0        7.095979    7.250584   -1.264740
     26          7           0        8.365247    0.467914    0.115573
     27          6           0        9.111847    1.624353    0.028849
     28          6           0       10.534412    1.288138    0.255850
     29          6           0       10.528023   -0.106836    0.918559
     30          6           0        9.052153   -0.503761    0.639894
     31          6           0       11.543820    1.449183   -0.994431
     32          6           0       11.138761   -0.115672    2.384510
     33          6           0       10.115849   -0.110512    3.585859
     34          7           0        6.180115   -1.577960    0.517961
     35          6           0        7.302354   -2.381819    0.769009
     36          6           0        6.847119   -3.749484    0.815199
     37          6           0        5.463004   -3.747004    0.564576
     38          6           0        5.127455   -2.401425    0.419392
     39          6           0        7.680239   -4.935725    1.182824
     40          6           0        4.314610   -4.575848    0.449064
     41          8           0        4.197554   -5.776350    0.614820
     42          6           0        3.099525   -3.546988    0.120013
     43          6           0        2.390566   -3.844143   -1.107202
     44          8           0        2.716046   -3.530858   -2.224160
     45          8           0        1.256731   -4.582227   -0.863893
     46          6           0        0.281459   -4.881535   -1.981683
     47          6           0       -4.198254   -1.503095    0.710455
     48          6           0       -5.072206   -1.637061   -0.484065
     49          6           0       -6.262967   -2.327156   -0.433902
     50          6           0       -6.694513   -3.309136    0.621391
     51          6           0       -7.059588   -2.417234   -1.713084
     52          6           0       -7.617590   -1.210367   -2.452100
     53          6           0       -9.146263   -1.011945   -2.203938
     54          6           0       -9.451037    0.414414   -1.818691
     55          6           0       -9.474617    0.626730   -0.347740
     56          6           0      -10.874728    0.862232   -2.386176
     57          6           0      -12.040213   -0.159067   -2.119251
     58          6           0      -13.501268    0.625127   -1.941240
     59          6           0      -14.039265    0.567932   -0.512686
     60          6           0      -15.125211   -0.495855   -0.370313
     61          6           0      -14.443552    1.956330    0.066044
     62          6           0      -14.706573    1.859469    1.643031
     63          6           0      -13.993750    3.040578    2.329476
     64          6           0      -12.902972    2.399337    3.314000
     65          6           0      -13.034433    3.047239    4.670705
     66          6           0      -11.465746    2.712916    2.795864
     67          1           0        2.758833    3.225145   -0.805914
     68          1           0        9.360504    3.646636   -0.362865
     69          1           0        9.400283   -2.495988    1.176712
     70          1           0        1.383873   -1.030972   -1.213415
     71          1           0        1.037654    1.512781    0.039304
     72          1           0        0.106602    1.486842   -1.935742
     73          1           0        1.382723    0.417299   -2.787233
     74          1           0        1.542467    2.150684   -2.583814
     75          1           0        0.353613   -0.120286    1.376138
     76          1           0        1.258138   -1.502199    1.565228
     77          1           0       -0.168052   -2.806597    0.750320
     78          1           0       -0.735867   -1.938173   -0.720997
     79          1           0        4.293787    5.511545   -2.404583
     80          1           0        4.608062    6.534817   -1.011804
     81          1           0        3.325556    5.405522   -0.922212
     82          1           0        6.532996    7.559459   -0.384626
     83          1           0        6.371411    7.206254   -2.078742
     84          1           0        7.899185    7.957004   -1.474654
     85          1           0       10.828770    2.098129    0.922538
     86          1           0       11.080948   -0.703416    0.192979
     87          1           0       11.006732    1.497446   -1.941069
     88          1           0       12.332208    0.697950   -1.045121
     89          1           0       12.087958    2.391917   -1.053954
     90          1           0       11.946210    0.571800    2.635627
     91          1           0       11.587964   -1.103083    2.496949
     92          1           0        9.137276    0.163706    3.191056
     93          1           0       10.509077    0.487202    4.407744
     94          1           0       10.049856   -1.140008    3.936717
     95          1           0        7.753909   -5.589977    0.314243
     96          1           0        7.121255   -5.552074    1.886260
     97          1           0        8.611073   -4.565089    1.612061
     98          1           0        2.346805   -3.711206    0.890783
     99          1           0        0.598561   -5.530109   -2.798574
    100          1           0        0.012992   -3.923007   -2.424803
    101          1           0       -0.594889   -5.401108   -1.593549
    102          1           0       -4.476886   -0.619229    1.284445
    103          1           0       -4.375215   -2.383248    1.327598
    104          1           0       -4.849953   -1.016599   -1.351914
    105          1           0       -6.278822   -4.288349    0.383225
    106          1           0       -7.775823   -3.368479    0.739533
    107          1           0       -6.325080   -3.040750    1.611146
    108          1           0       -7.859790   -3.118200   -1.472475
    109          1           0       -6.502269   -3.034117   -2.417796
    110          1           0       -7.431077   -1.377560   -3.512883
    111          1           0       -7.091532   -0.308997   -2.137858
    112          1           0       -9.609375   -1.687189   -1.483588
    113          1           0       -9.646566   -1.195768   -3.155742
    114          1           0       -8.761646    1.114120   -2.290024
    115          1           0       -8.998628   -0.141268    0.261503
    116          1           0      -10.494648    0.773960    0.007605
    117          1           0       -8.856945    1.494724   -0.117848
    118          1           0      -10.739996    1.127332   -3.434952
    119          1           0      -11.003784    1.845747   -1.933570
    120          1           0      -11.754618   -0.790480   -1.277174
    121          1           0      -12.102967   -0.728307   -3.046369
    122          1           0      -14.116682    0.156585   -2.709699
    123          1           0      -13.360802    1.666658   -2.230082
    124          1           0      -13.255771    0.089336    0.074356
    125          1           0      -14.813226   -1.203916    0.397382
    126          1           0      -15.349334   -1.034214   -1.292207
    127          1           0      -16.070353   -0.057471   -0.051753
    128          1           0      -15.297286    2.270387   -0.533556
    129          1           0      -13.537217    2.526020   -0.138659
    130          1           0      -14.354592    0.854018    1.873254
    131          1           0      -15.774232    2.003878    1.806116
    132          1           0      -14.752135    3.594644    2.882952
    133          1           0      -13.430311    3.760231    1.736060
    134          1           0      -13.109933    1.330597    3.369167
    135          1           0      -13.216071    4.114203    4.540323
    136          1           0      -12.070213    2.774657    5.098874
    137          1           0      -13.731910    2.568809    5.359083
    138          1           0      -10.792654    1.978735    3.237505
    139          1           0      -11.177527    3.688243    3.187289
    140          1           0      -11.431146    2.756435    1.706935
 ---------------------------------------------------------------------

 SCF Done:  E(RPBE1PBE) =  -3005.34160922     A.U. after   15 cycles

 Excitation energies and oscillator strengths:

 Excited State   1:      Singlet-A      1.8926 eV  655.11 nm  f=0.3581  <S**2>=0.000
     245 -> 248        0.19104
     246 -> 247        0.68743
 This state for optimization and/or second-order correction.
 Total Energy, E(TD-HF/TD-DFT) =  -3005.27205812
 Copying the excited state density for this state as the 1-particle RhoCI density.

 Excited State   2:      Singlet-A      2.2133 eV  560.17 nm  f=0.1244  <S**2>=0.000
     245 -> 247        0.65691
     246 -> 248       -0.25160

 Excited State   3:      Singlet-A      3.0990 eV  400.08 nm  f=0.0030  <S**2>=0.000
     240 -> 247        0.27979
     243 -> 247        0.62742

 Excited State   4:      Singlet-A      3.1279 eV  396.38 nm  f=0.0016  <S**2>=0.000
     239 -> 247        0.11438
     240 -> 247        0.58379
     240 -> 249       -0.14581
     242 -> 247       -0.12445
     243 -> 247       -0.30282

 Excited State   5:      Singlet-A      3.1961 eV  387.93 nm  f=0.0004  <S**2>=0.000
     241 -> 247        0.53041
     241 -> 249        0.13707
     242 -> 247        0.40491

 The electronic state is 1-A.
 Alpha  occ. eigenvalues --  -46.93092 -19.26746 -19.25131 -19.20539 -19.19777
 Alpha  occ. eigenvalues --  -19.19240 -19.18855 -14.41609 -14.40695 -14.39631
 Alpha  occ. eigenvalues --  -14.38916 -10.36868 -10.35499 -10.32695 -10.32304
 Alpha  occ. eigenvalues --  -10.29564 -10.29128 -10.29031 -10.28802 -10.28636
 Alpha  occ. eigenvalues --  -10.28314 -10.27929 -10.27714 -10.27607 -10.26238
 Alpha  occ. eigenvalues --  -10.26127 -10.25931 -10.25924 -10.25890 -10.25791
 Alpha  occ. eigenvalues --  -10.25723 -10.25547 -10.25451 -10.25330 -10.25162
 Alpha  occ. eigenvalues --  -10.25056 -10.25051 -10.24797 -10.24422 -10.24331
 Alpha  occ. eigenvalues --  -10.24035 -10.23849 -10.23849 -10.23632 -10.23451
 Alpha  occ. eigenvalues --  -10.23365 -10.23294 -10.23290 -10.23248 -10.23114
 Alpha  occ. eigenvalues --  -10.23033 -10.22814 -10.22779 -10.22703 -10.22677
 Alpha  occ. eigenvalues --  -10.22639 -10.22602 -10.22601 -10.22491 -10.22363
 Alpha  occ. eigenvalues --  -10.22184 -10.22153 -10.22038 -10.21428 -10.21322
 Alpha  occ. eigenvalues --  -10.21282  -3.15017  -1.87857  -1.87402  -1.87226
 Alpha  occ. eigenvalues --   -1.12220  -1.10386  -1.05115  -1.04421  -1.03413
 Alpha  occ. eigenvalues --   -1.01805  -0.99862  -0.99288  -0.98000  -0.96870
 Alpha  occ. eigenvalues --   -0.86787  -0.85018  -0.83790  -0.83517  -0.83154
 Alpha  occ. eigenvalues --   -0.82797  -0.82095  -0.81756  -0.81641  -0.81382
 Alpha  occ. eigenvalues --   -0.80742  -0.79839  -0.78461  -0.77927  -0.77162
 Alpha  occ. eigenvalues --   -0.76508  -0.76373  -0.75821  -0.75425  -0.74703
 Alpha  occ. eigenvalues --   -0.73859  -0.72688  -0.72228  -0.71420  -0.70662
 Alpha  occ. eigenvalues --   -0.70345  -0.69829  -0.69087  -0.68723  -0.68054
 Alpha  occ. eigenvalues --   -0.67605  -0.67234  -0.66340  -0.64616  -0.63802
 Alpha  occ. eigenvalues --   -0.63493  -0.62934  -0.61720  -0.61420  -0.60457
 Alpha  occ. eigenvalues --   -0.60056  -0.59791  -0.59607  -0.59185  -0.58637
 Alpha  occ. eigenvalues --   -0.57669  -0.56560  -0.56345  -0.55666  -0.54577
 Alpha  occ. eigenvalues --   -0.54298  -0.54151  -0.53888  -0.52917  -0.52267
 Alpha  occ. eigenvalues --   -0.51727  -0.51399  -0.50766  -0.50478  -0.49881
 Alpha  occ. eigenvalues --   -0.49728  -0.49567  -0.49371  -0.48965  -0.48633
 Alpha  occ. eigenvalues --   -0.48474  -0.48342  -0.47967  -0.47687  -0.47132
 Alpha  occ. eigenvalues --   -0.47050  -0.46770  -0.46535  -0.46469  -0.46255
 Alpha  occ. eigenvalues --   -0.46158  -0.45899  -0.45766  -0.45593  -0.45326
 Alpha  occ. eigenvalues --   -0.45171  -0.44807  -0.44352  -0.44284  -0.44167
 Alpha  occ. eigenvalues --   -0.44076  -0.43873  -0.43766  -0.43706  -0.43639
 Alpha  occ. eigenvalues --   -0.43126  -0.42954  -0.42640  -0.42603  -0.42252
 Alpha  occ. eigenvalues --   -0.42046  -0.41757  -0.41645  -0.41363  -0.41145
 Alpha  occ. eigenvalues --   -0.40919  -0.40826  -0.40675  -0.40592  -0.40471
 Alpha  occ. eigenvalues --   -0.40336  -0.40019  -0.39921  -0.39732  -0.39537
 Alpha  occ. eigenvalues --   -0.39331  -0.39202  -0.39057  -0.38939  -0.38807
 Alpha  occ. eigenvalues --   -0.38399  -0.38370  -0.38298  -0.38115  -0.38012
 Alpha  occ. eigenvalues --   -0.37834  -0.37777  -0.37547  -0.37326  -0.37161
 Alpha  occ. eigenvalues --   -0.36965  -0.36905  -0.36522  -0.36322  -0.36264
 Alpha  occ. eigenvalues --   -0.36171  -0.35500  -0.35286  -0.34999  -0.34907
 Alpha  occ. eigenvalues --   -0.34388  -0.34320  -0.34047  -0.33679  -0.33596
 Alpha  occ. eigenvalues --   -0.33264  -0.32804  -0.32752  -0.32535  -0.32491
 Alpha  occ. eigenvalues --   -0.31968  -0.31846  -0.31740  -0.31553  -0.31392
 Alpha  occ. eigenvalues --   -0.30923  -0.30665  -0.29557  -0.29149  -0.28969
 Alpha  occ. eigenvalues --   -0.28901  -0.28335  -0.28324  -0.26761  -0.26128
 Alpha  occ. eigenvalues --   -0.25837  -0.25740  -0.25355  -0.24732  -0.20719
 Alpha  occ. eigenvalues --   -0.18903
 Alpha virt. eigenvalues --   -0.11089  -0.05244  -0.04030  -0.01998  -0.00811
 Alpha virt. eigenvalues --   -0.00496   0.00367   0.00725   0.01840   0.03173
 Alpha virt. eigenvalues --    0.04155   0.04694   0.04735   0.05230   0.05954

 Mulliken charges:
               1
     1  Mg   0.955664
     2  C   -0.016326
     3  C   -0.036591
     4  C   -0.046793
     5  C   -0.057026
     6  N   -0.321839
     7  C    0.050749
     8  C   -0.075464
     9  C   -0.152090
    10  C   -0.023409
    11  C    0.020132
    12  C    0.008016
    13  C   -0.046417
    14  C    0.228033
    15  O   -0.273361
    16  O   -0.343586
    17  N   -0.532066
    18  C    0.225260
    19  C   -0.175487
    20  C   -0.084168
    21  C    0.147036
    22  C    0.043177
    23  C    0.061931
    24  O   -0.251876
    25  C   -0.018416
    26  N   -0.341228
    27  C    0.066372
    28  C   -0.108908
    29  C   -0.040467
    30  C    0.008145
    31  C   -0.011936
    32  C   -0.040025
    33  C   -0.075818
    34  N   -0.467859
    35  C    0.156329
    36  C   -0.202298
    37  C   -0.013171
    38  C    0.146690
    39  C    0.082441
    40  C    0.140459
    41  O   -0.199388
    42  C   -0.156650
    43  C    0.275846
    44  O   -0.241554
    45  O   -0.393958
    46  C    0.130248
    47  C    0.249511
    48  C   -0.126830
    49  C   -0.218792
    50  C   -0.010310
    51  C   -0.005264
    52  C    0.013248
    53  C    0.007711
    54  C   -0.259055
    55  C    0.003061
    56  C   -0.046433
    57  C   -0.075943
    58  C    0.019325
    59  C   -0.256051
    60  C   -0.005020
    61  C   -0.014378
    62  C   -0.035049
    63  C   -0.003175
    64  C   -0.272961
    65  C   -0.003004
    66  C   -0.029246
    67  H   -0.004647
    68  H    0.024333
    69  H   -0.002920
    70  H    0.052599
    71  H    0.049769
    72  H    0.044791
    73  H    0.061726
    74  H    0.040141
    75  H    0.044498
    76  H    0.039588
    77  H    0.088996
    78  H    0.062723
    79  H    0.061111
    80  H    0.032991
    81  H    0.051764
    82  H    0.075135
    83  H    0.050058
    84  H    0.062789
    85  H    0.051027
    86  H    0.046266
    87  H    0.044714
    88  H    0.044349
    89  H    0.040039
    90  H    0.049091
    91  H    0.033554
    92  H    0.061955
    93  H    0.049154
    94  H    0.038957
    95  H    0.062921
    96  H    0.057722
    97  H    0.043559
    98  H    0.075637
    99  H    0.063760
   100  H    0.054997
   101  H    0.061792
   102  H    0.066224
   103  H    0.040363
   104  H    0.032982
   105  H    0.068829
   106  H    0.049639
   107  H    0.043573
   108  H    0.007019
   109  H    0.037891
   110  H    0.030348
   111  H    0.033639
   112  H    0.027364
   113  H    0.021856
   114  H    0.028908
   115  H    0.022480
   116  H    0.048919
   117  H    0.029582
   118  H    0.021669
   119  H    0.022006
   120  H    0.046137
   121  H    0.037647
   122  H    0.025949
   123  H    0.025469
   124  H    0.033449
   125  H    0.030297
   126  H    0.031787
   127  H    0.026963
   128  H    0.037008
   129  H    0.034835
   130  H    0.045691
   131  H    0.036157
   132  H    0.025530
   133  H    0.031070
   134  H    0.033480
   135  H    0.047430
   136  H    0.020603
   137  H    0.031554
   138  H    0.044145
   139  H    0.032886
   140  H    0.043982
 Sum of Mulliken charges =  -0.00000

 Dipole moment (field-independent basis, Debye):
    X=             -3.5369    Y=              2.5065    Z=             -0.7177  Tot=              4.3940
 Quadrupole moment (field-independent basis, Debye-Ang):
   XX=           -376.5587   YY=           -413.5872   ZZ=           -407.5189
   XY=              3.7085   XZ=             18.8340   YZ=             -2.6781

 Normal termination of Gaussian 16 at Wed May  4 13:20:27 2022.
