 Gaussian 16, Revision A.03,
 Gaussian 16:  ES64L-G16RevA.03 25-Dec-2016

 --------------------------------
 #p wB97XD/Def2SVP td=(nstates=5)
 --------------------------------

 -----------------------------------------------------
 step_1751_chromophore_25 TDDFT with wB97XD functional
 -----------------------------------------------------
 Symbolic Z-matrix:
 Charge =  0 Multiplicity = 1

                         Standard orientation:
 ---------------------------------------------------------------------
 Center     Atomic      Atomic             Coordinates (Angstroms)
 Number     Number       Type             X           Y           Z
 ---------------------------------------------------------------------
      1         12           0        6.116019    0.521614    0.218185
      2          6           0        3.800841   -2.170957    0.073564
      3          6           0        3.665049    2.651753   -0.602237
      4          6           0        8.602178    2.872569   -0.229081
      5          6           0        8.607360   -1.800636    0.893361
      6          7           0        3.909358    0.202057   -0.267265
      7          6           0        3.208085   -0.905124   -0.210541
      8          6           0        1.720553   -0.547541   -0.296784
      9          6           0        1.637247    0.964191   -0.688034
     10          6           0        3.164068    1.302578   -0.469338
     11          6           0        1.153727    1.244798   -2.116900
     12          6           0        0.688336   -0.980644    0.796292
     13          6           0       -0.536847   -1.863422    0.347603
     14          6           0       -1.868077   -1.514246    1.065978
     15          8           0       -1.949183   -1.369021    2.285420
     16          8           0       -2.885140   -1.546556    0.155715
     17          7           0        6.130269    2.476675   -0.341438
     18          6           0        4.992675    3.201808   -0.597419
     19          6           0        5.365025    4.531620   -0.955592
     20          6           0        6.779236    4.674032   -0.797188
     21          6           0        7.248106    3.304001   -0.434553
     22          6           0        4.335217    5.523779   -1.315803
     23          6           0        7.662671    5.940144   -0.929989
     24          8           0        8.848258    5.950792   -0.600303
     25          6           0        7.095979    7.250584   -1.264740
     26          7           0        8.365247    0.467914    0.115573
     27          6           0        9.111847    1.624353    0.028849
     28          6           0       10.534412    1.288138    0.255850
     29          6           0       10.528023   -0.106836    0.918559
     30          6           0        9.052153   -0.503761    0.639894
     31          6           0       11.543820    1.449183   -0.994431
     32          6           0       11.138761   -0.115672    2.384510
     33          6           0       10.115849   -0.110512    3.585859
     34          7           0        6.180115   -1.577960    0.517961
     35          6           0        7.302354   -2.381819    0.769009
     36          6           0        6.847119   -3.749484    0.815199
     37          6           0        5.463004   -3.747004    0.564576
     38          6           0        5.127455   -2.401425    0.419392
     39          6           0        7.680239   -4.935725    1.182824
     40          6           0        4.314610   -4.575848    0.449064
     41          8           0        4.197554   -5.776350    0.614820
     42          6           0        3.099525   -3.546988    0.120013
     43          6           0        2.390566   -3.844143   -1.107202
     44          8           0        2.716046   -3.530858   -2.224160
     45          8           0        1.256731   -4.582227   -0.863893
     46          6           0        0.281459   -4.881535   -1.981683
     47          6           0       -4.198254   -1.503095    0.710455
     48          6           0       -5.072206   -1.637061   -0.484065
     49          6           0       -6.262967   -2.327156   -0.433902
     50          6           0       -6.694513   -3.309136    0.621391
     51          6           0       -7.059588   -2.417234   -1.713084
     52          6           0       -7.617590   -1.210367   -2.452100
     53          6           0       -9.146263   -1.011945   -2.203938
     54          6           0       -9.451037    0.414414   -1.818691
     55          6           0       -9.474617    0.626730   -0.347740
     56          6           0      -10.874728    0.862232   -2.386176
     57          6           0      -12.040213   -0.159067   -2.119251
     58          6           0      -13.501268    0.625127   -1.941240
     59          6           0      -14.039265    0.567932   -0.512686
     60          6           0      -15.125211   -0.495855   -0.370313
     61          6           0      -14.443552    1.956330    0.066044
     62          6           0      -14.706573    1.859469    1.643031
     63          6           0      -13.993750    3.040578    2.329476
     64          6           0      -12.902972    2.399337    3.314000
     65          6           0      -13.034433    3.047239    4.670705
     66          6           0      -11.465746    2.712916    2.795864
     67          1           0        2.758833    3.225145   -0.805914
     68          1           0        9.360504    3.646636   -0.362865
     69          1           0        9.400283   -2.495988    1.176712
     70          1           0        1.383873   -1.030972   -1.213415
     71          1           0        1.037654    1.512781    0.039304
     72          1           0        0.106602    1.486842   -1.935742
     73          1           0        1.382723    0.417299   -2.787233
     74          1           0        1.542467    2.150684   -2.583814
     75          1           0        0.353613   -0.120286    1.376138
     76          1           0        1.258138   -1.502199    1.565228
     77          1           0       -0.168052   -2.806597    0.750320
     78          1           0       -0.735867   -1.938173   -0.720997
     79          1           0        4.293787    5.511545   -2.404583
     80          1           0        4.608062    6.534817   -1.011804
     81          1           0        3.325556    5.405522   -0.922212
     82          1           0        6.532996    7.559459   -0.384626
     83          1           0        6.371411    7.206254   -2.078742
     84          1           0        7.899185    7.957004   -1.474654
     85          1           0       10.828770    2.098129    0.922538
     86          1           0       11.080948   -0.703416    0.192979
     87          1           0       11.006732    1.497446   -1.941069
     88          1           0       12.332208    0.697950   -1.045121
     89          1           0       12.087958    2.391917   -1.053954
     90          1           0       11.946210    0.571800    2.635627
     91          1           0       11.587964   -1.103083    2.496949
     92          1           0        9.137276    0.163706    3.191056
     93          1           0       10.509077    0.487202    4.407744
     94          1           0       10.049856   -1.140008    3.936717
     95          1           0        7.753909   -5.589977    0.314243
     96          1           0        7.121255   -5.552074    1.886260
     97          1           0        8.611073   -4.565089    1.612061
     98          1           0        2.346805   -3.711206    0.890783
     99          1           0        0.598561   -5.530109   -2.798574
    100          1           0        0.012992   -3.923007   -2.424803
    101          1           0       -0.594889   -5.401108   -1.593549
    102          1           0       -4.476886   -0.619229    1.284445
    103          1           0       -4.375215   -2.383248    1.327598
    104          1           0       -4.849953   -1.016599   -1.351914
    105          1           0       -6.278822   -4.288349    0.383225
    106          1           0       -7.775823   -3.368479    0.739533
    107          1           0       -6.325080   -3.040750    1.611146
    108          1           0       -7.859790   -3.118200   -1.472475
    109          1           0       -6.502269   -3.034117   -2.417796
    110          1           0       -7.431077   -1.377560   -3.512883
    111          1           0       -7.091532   -0.308997   -2.137858
    112          1           0       -9.609375   -1.687189   -1.483588
    113          1           0       -9.646566   -1.195768   -3.155742
    114          1           0       -8.761646    1.114120   -2.290024
    115          1           0       -8.998628   -0.141268    0.261503
    116          1           0      -10.494648    0.773960    0.007605
    117          1           0       -8.856945    1.494724   -0.117848
    118          1           0      -10.739996    1.127332   -3.434952
    119          1           0      -11.003784    1.845747   -1.933570
    120          1           0      -11.754618   -0.790480   -1.277174
    121          1           0      -12.102967   -0.728307   -3.046369
    122          1           0      -14.116682    0.156585   -2.709699
    123          1           0      -13.360802    1.666658   -2.230082
    124          1           0      -13.255771    0.089336    0.074356
    125          1           0      -14.813226   -1.203916    0.397382
    126          1           0      -15.349334   -1.034214   -1.292207
    127          1           0      -16.070353   -0.057471   -0.051753
    128          1           0      -15.297286    2.270387   -0.533556
    129          1           0      -13.537217    2.526020   -0.138659
    130          1           0      -14.354592    0.854018    1.873254
    131          1           0      -15.774232    2.003878    1.806116
    132          1           0      -14.752135    3.594644    2.882952
    133          1           0      -13.430311    3.760231    1.736060
    134          1           0      -13.109933    1.330597    3.369167
    135          1           0      -13.216071    4.114203    4.540323
    136          1           0      -12.070213    2.774657    5.098874
    137          1           0      -13.731910    2.568809    5.359083
    138          1           0      -10.792654    1.978735    3.237505
    139          1           0      -11.177527    3.688243    3.187289
    140          1           0      -11.431146    2.756435    1.706935
 ---------------------------------------------------------------------

 SCF Done:  E(RwB97XD) =  -3007.85118084     A.U. after   19 cycles

 Excitation energies and oscillator strengths:

 Excited State   1:      Singlet-A      1.6855 eV  735.58 nm  f=0.3714  <S**2>=0.000
     245 -> 248       -0.20321
     246 -> 247        0.67877
     245 <- 248       -0.12047
 This state for optimization and/or second-order correction.
 Total Energy, E(TD-HF/TD-DFT) =  -3007.78923898
 Copying the excited state density for this state as the 1-particle RhoCI density.

 Excited State   2:      Singlet-A      2.1542 eV  575.55 nm  f=0.1264  <S**2>=0.000
     245 -> 247        0.64362
     246 -> 248        0.28081

 Excited State   3:      Singlet-A      3.4197 eV  362.55 nm  f=0.0671  <S**2>=0.000
     242 -> 247       -0.38054
     243 -> 247        0.49333
     246 -> 248        0.28369

 Excited State   4:      Singlet-A      3.5483 eV  349.42 nm  f=0.3402  <S**2>=0.000
     239 -> 247       -0.20242
     239 -> 249        0.12855
     240 -> 247       -0.18827
     243 -> 247       -0.37512
     245 -> 247       -0.18324
     246 -> 248        0.43928

 Excited State   5:      Singlet-A      3.5832 eV  346.02 nm  f=0.0629  <S**2>=0.000
     239 -> 247        0.37143
     239 -> 249       -0.21581
     239 -> 250       -0.14072
     240 -> 247        0.30822
     240 -> 249       -0.17132
     242 -> 247       -0.20433
     243 -> 247       -0.19892
     246 -> 248        0.22338

 The electronic state is 1-A.
 Alpha  occ. eigenvalues --  -46.96029 -19.31331 -19.29823 -19.25245 -19.24782
 Alpha  occ. eigenvalues --  -19.24113 -19.23498 -14.46762 -14.45733 -14.44484
 Alpha  occ. eigenvalues --  -14.43918 -10.43687 -10.42488 -10.39757 -10.38982
 Alpha  occ. eigenvalues --  -10.36190 -10.35651 -10.35443 -10.34952 -10.34823
 Alpha  occ. eigenvalues --  -10.34721 -10.34456 -10.33825 -10.33810 -10.32729
 Alpha  occ. eigenvalues --  -10.32597 -10.32448 -10.32363 -10.32338 -10.32067
 Alpha  occ. eigenvalues --  -10.32001 -10.31882 -10.31776 -10.31633 -10.31482
 Alpha  occ. eigenvalues --  -10.31458 -10.31412 -10.30951 -10.30737 -10.30726
 Alpha  occ. eigenvalues --  -10.30426 -10.30308 -10.30203 -10.29888 -10.29874
 Alpha  occ. eigenvalues --  -10.29816 -10.29714 -10.29695 -10.29665 -10.29427
 Alpha  occ. eigenvalues --  -10.29370 -10.29232 -10.29201 -10.29142 -10.29064
 Alpha  occ. eigenvalues --  -10.28994 -10.28922 -10.28883 -10.28852 -10.28707
 Alpha  occ. eigenvalues --  -10.28537 -10.28519 -10.28463 -10.27858 -10.27783
 Alpha  occ. eigenvalues --  -10.27721  -3.21841  -1.95424  -1.94970  -1.94791
 Alpha  occ. eigenvalues --   -1.19619  -1.17926  -1.12778  -1.11750  -1.10787
 Alpha  occ. eigenvalues --   -1.09307  -1.07265  -1.06644  -1.05475  -1.04098
 Alpha  occ. eigenvalues --   -0.94545  -0.92702  -0.91463  -0.91160  -0.90816
 Alpha  occ. eigenvalues --   -0.90343  -0.89659  -0.89416  -0.89314  -0.88953
 Alpha  occ. eigenvalues --   -0.88410  -0.87480  -0.86123  -0.85633  -0.84808
 Alpha  occ. eigenvalues --   -0.84178  -0.83997  -0.83486  -0.83084  -0.82331
 Alpha  occ. eigenvalues --   -0.81543  -0.80354  -0.79810  -0.79107  -0.78280
 Alpha  occ. eigenvalues --   -0.78031  -0.77387  -0.76791  -0.76413  -0.75712
 Alpha  occ. eigenvalues --   -0.75221  -0.74835  -0.73849  -0.72243  -0.71402
 Alpha  occ. eigenvalues --   -0.71050  -0.70612  -0.69351  -0.68921  -0.67963
 Alpha  occ. eigenvalues --   -0.67715  -0.67252  -0.67022  -0.66700  -0.66092
 Alpha  occ. eigenvalues --   -0.65351  -0.64205  -0.63838  -0.63289  -0.62022
 Alpha  occ. eigenvalues --   -0.61694  -0.61682  -0.61313  -0.60336  -0.59756
 Alpha  occ. eigenvalues --   -0.59224  -0.58934  -0.58232  -0.57829  -0.57292
 Alpha  occ. eigenvalues --   -0.57173  -0.56988  -0.56814  -0.56421  -0.56089
 Alpha  occ. eigenvalues --   -0.55951  -0.55831  -0.55398  -0.55033  -0.54540
 Alpha  occ. eigenvalues --   -0.54383  -0.54176  -0.53953  -0.53910  -0.53649
 Alpha  occ. eigenvalues --   -0.53464  -0.53253  -0.53163  -0.53046  -0.52727
 Alpha  occ. eigenvalues --   -0.52508  -0.52108  -0.51686  -0.51628  -0.51575
 Alpha  occ. eigenvalues --   -0.51438  -0.51207  -0.51124  -0.50987  -0.50959
 Alpha  occ. eigenvalues --   -0.50457  -0.50247  -0.49937  -0.49864  -0.49493
 Alpha  occ. eigenvalues --   -0.49302  -0.49071  -0.48910  -0.48605  -0.48339
 Alpha  occ. eigenvalues --   -0.48214  -0.48053  -0.47941  -0.47834  -0.47661
 Alpha  occ. eigenvalues --   -0.47439  -0.47250  -0.47146  -0.46932  -0.46779
 Alpha  occ. eigenvalues --   -0.46520  -0.46389  -0.46297  -0.46136  -0.45970
 Alpha  occ. eigenvalues --   -0.45518  -0.45446  -0.45331  -0.45172  -0.45113
 Alpha  occ. eigenvalues --   -0.44986  -0.44935  -0.44651  -0.44382  -0.44232
 Alpha  occ. eigenvalues --   -0.44086  -0.44046  -0.43717  -0.43387  -0.43373
 Alpha  occ. eigenvalues --   -0.43237  -0.42530  -0.42401  -0.42057  -0.42013
 Alpha  occ. eigenvalues --   -0.41393  -0.41346  -0.41082  -0.40760  -0.40672
 Alpha  occ. eigenvalues --   -0.40208  -0.39778  -0.39752  -0.39623  -0.39479
 Alpha  occ. eigenvalues --   -0.38995  -0.38818  -0.38760  -0.38607  -0.38572
 Alpha  occ. eigenvalues --   -0.37835  -0.37657  -0.36407  -0.36197  -0.35893
 Alpha  occ. eigenvalues --   -0.35824  -0.35358  -0.35158  -0.33510  -0.33137
 Alpha  occ. eigenvalues --   -0.32821  -0.32334  -0.31891  -0.31487  -0.25647
 Alpha  occ. eigenvalues --   -0.23093
 Alpha virt. eigenvalues --   -0.06985   0.00142   0.02253   0.04483   0.05424
 Alpha virt. eigenvalues --    0.05863   0.07160   0.07318   0.08578   0.09687
 Alpha virt. eigenvalues --    0.10571   0.11283   0.11559   0.11974   0.12652

 Mulliken charges:
               1
     1  Mg   0.948651
     2  C   -0.014135
     3  C   -0.044962
     4  C   -0.063216
     5  C   -0.077166
     6  N   -0.282758
     7  C    0.011393
     8  C   -0.046917
     9  C   -0.124132
    10  C   -0.045904
    11  C    0.029036
    12  C    0.016940
    13  C   -0.023572
    14  C    0.217703
    15  O   -0.270580
    16  O   -0.341969
    17  N   -0.500175
    18  C    0.212114
    19  C   -0.159731
    20  C   -0.081837
    21  C    0.136321
    22  C    0.053345
    23  C    0.059555
    24  O   -0.247771
    25  C   -0.008540
    26  N   -0.306516
    27  C    0.052406
    28  C   -0.086508
    29  C   -0.014997
    30  C   -0.003051
    31  C   -0.001089
    32  C   -0.027179
    33  C   -0.055538
    34  N   -0.432113
    35  C    0.150533
    36  C   -0.195284
    37  C   -0.010865
    38  C    0.133632
    39  C    0.093132
    40  C    0.124907
    41  O   -0.188463
    42  C   -0.119641
    43  C    0.247011
    44  O   -0.233519
    45  O   -0.390268
    46  C    0.145143
    47  C    0.261833
    48  C   -0.135501
    49  C   -0.208341
    50  C    0.005707
    51  C    0.013262
    52  C    0.030455
    53  C    0.020956
    54  C   -0.227175
    55  C    0.017017
    56  C   -0.027555
    57  C   -0.057022
    58  C    0.032383
    59  C   -0.219962
    60  C    0.001680
    61  C    0.004800
    62  C   -0.013763
    63  C    0.007128
    64  C   -0.244196
    65  C    0.010591
    66  C   -0.011406
    67  H   -0.013649
    68  H    0.019466
    69  H   -0.009793
    70  H    0.031607
    71  H    0.040189
    72  H    0.038606
    73  H    0.057133
    74  H    0.034373
    75  H    0.037635
    76  H    0.030896
    77  H    0.078516
    78  H    0.056574
    79  H    0.055735
    80  H    0.025758
    81  H    0.047513
    82  H    0.069381
    83  H    0.044218
    84  H    0.061519
    85  H    0.039931
    86  H    0.035163
    87  H    0.038571
    88  H    0.038218
    89  H    0.034816
    90  H    0.043417
    91  H    0.025169
    92  H    0.050079
    93  H    0.044951
    94  H    0.032620
    95  H    0.059200
    96  H    0.053900
    97  H    0.038704
    98  H    0.067766
    99  H    0.060882
   100  H    0.050502
   101  H    0.059305
   102  H    0.062600
   103  H    0.033110
   104  H    0.030748
   105  H    0.063361
   106  H    0.044227
   107  H    0.037804
   108  H   -0.003544
   109  H    0.030832
   110  H    0.025100
   111  H    0.021276
   112  H    0.016599
   113  H    0.012044
   114  H    0.018413
   115  H    0.015202
   116  H    0.034977
   117  H    0.024503
   118  H    0.014003
   119  H    0.009623
   120  H    0.033630
   121  H    0.029642
   122  H    0.018719
   123  H    0.016258
   124  H    0.014817
   125  H    0.025544
   126  H    0.026234
   127  H    0.020221
   128  H    0.029280
   129  H    0.019224
   130  H    0.032126
   131  H    0.029528
   132  H    0.018253
   133  H    0.022124
   134  H    0.022582
   135  H    0.040712
   136  H    0.012390
   137  H    0.026602
   138  H    0.037949
   139  H    0.025652
   140  H    0.034447
 Sum of Mulliken charges =  -0.00000

 Dipole moment (field-independent basis, Debye):
    X=             -3.6979    Y=              2.1627    Z=             -0.6785  Tot=              4.3373
 Quadrupole moment (field-independent basis, Debye-Ang):
   XX=           -378.2894   YY=           -412.2552   ZZ=           -407.1381
   XY=              1.8592   XZ=             19.1471   YZ=             -2.6223

 Normal termination of Gaussian 16 at Wed May  4 13:47:11 2022.
