 Gaussian 16, Revision A.03,
 Gaussian 16:  ES64L-G16RevA.03 25-Dec-2016

 --------------------
 #p ZINDO=(nstates=5)
 --------------------

 ------------------------------
 step_1751_chromophore_25 ZINDO
 ------------------------------
 Symbolic Z-matrix:
 Charge =  0 Multiplicity = 1

                         Standard orientation:
 ---------------------------------------------------------------------
 Center     Atomic      Atomic             Coordinates (Angstroms)
 Number     Number       Type             X           Y           Z
 ---------------------------------------------------------------------
      1         12           0        6.116019    0.521614    0.218185
      2          6           0        3.800841   -2.170957    0.073564
      3          6           0        3.665049    2.651753   -0.602237
      4          6           0        8.602178    2.872569   -0.229081
      5          6           0        8.607360   -1.800636    0.893361
      6          7           0        3.909358    0.202057   -0.267265
      7          6           0        3.208085   -0.905124   -0.210541
      8          6           0        1.720553   -0.547541   -0.296784
      9          6           0        1.637247    0.964191   -0.688034
     10          6           0        3.164068    1.302578   -0.469338
     11          6           0        1.153727    1.244798   -2.116900
     12          6           0        0.688336   -0.980644    0.796292
     13          6           0       -0.536847   -1.863422    0.347603
     14          6           0       -1.868077   -1.514246    1.065978
     15          8           0       -1.949183   -1.369021    2.285420
     16          8           0       -2.885140   -1.546556    0.155715
     17          7           0        6.130269    2.476675   -0.341438
     18          6           0        4.992675    3.201808   -0.597419
     19          6           0        5.365025    4.531620   -0.955592
     20          6           0        6.779236    4.674032   -0.797188
     21          6           0        7.248106    3.304001   -0.434553
     22          6           0        4.335217    5.523779   -1.315803
     23          6           0        7.662671    5.940144   -0.929989
     24          8           0        8.848258    5.950792   -0.600303
     25          6           0        7.095979    7.250584   -1.264740
     26          7           0        8.365247    0.467914    0.115573
     27          6           0        9.111847    1.624353    0.028849
     28          6           0       10.534412    1.288138    0.255850
     29          6           0       10.528023   -0.106836    0.918559
     30          6           0        9.052153   -0.503761    0.639894
     31          6           0       11.543820    1.449183   -0.994431
     32          6           0       11.138761   -0.115672    2.384510
     33          6           0       10.115849   -0.110512    3.585859
     34          7           0        6.180115   -1.577960    0.517961
     35          6           0        7.302354   -2.381819    0.769009
     36          6           0        6.847119   -3.749484    0.815199
     37          6           0        5.463004   -3.747004    0.564576
     38          6           0        5.127455   -2.401425    0.419392
     39          6           0        7.680239   -4.935725    1.182824
     40          6           0        4.314610   -4.575848    0.449064
     41          8           0        4.197554   -5.776350    0.614820
     42          6           0        3.099525   -3.546988    0.120013
     43          6           0        2.390566   -3.844143   -1.107202
     44          8           0        2.716046   -3.530858   -2.224160
     45          8           0        1.256731   -4.582227   -0.863893
     46          6           0        0.281459   -4.881535   -1.981683
     47          6           0       -4.198254   -1.503095    0.710455
     48          6           0       -5.072206   -1.637061   -0.484065
     49          6           0       -6.262967   -2.327156   -0.433902
     50          6           0       -6.694513   -3.309136    0.621391
     51          6           0       -7.059588   -2.417234   -1.713084
     52          6           0       -7.617590   -1.210367   -2.452100
     53          6           0       -9.146263   -1.011945   -2.203938
     54          6           0       -9.451037    0.414414   -1.818691
     55          6           0       -9.474617    0.626730   -0.347740
     56          6           0      -10.874728    0.862232   -2.386176
     57          6           0      -12.040213   -0.159067   -2.119251
     58          6           0      -13.501268    0.625127   -1.941240
     59          6           0      -14.039265    0.567932   -0.512686
     60          6           0      -15.125211   -0.495855   -0.370313
     61          6           0      -14.443552    1.956330    0.066044
     62          6           0      -14.706573    1.859469    1.643031
     63          6           0      -13.993750    3.040578    2.329476
     64          6           0      -12.902972    2.399337    3.314000
     65          6           0      -13.034433    3.047239    4.670705
     66          6           0      -11.465746    2.712916    2.795864
     67          1           0        2.758833    3.225145   -0.805914
     68          1           0        9.360504    3.646636   -0.362865
     69          1           0        9.400283   -2.495988    1.176712
     70          1           0        1.383873   -1.030972   -1.213415
     71          1           0        1.037654    1.512781    0.039304
     72          1           0        0.106602    1.486842   -1.935742
     73          1           0        1.382723    0.417299   -2.787233
     74          1           0        1.542467    2.150684   -2.583814
     75          1           0        0.353613   -0.120286    1.376138
     76          1           0        1.258138   -1.502199    1.565228
     77          1           0       -0.168052   -2.806597    0.750320
     78          1           0       -0.735867   -1.938173   -0.720997
     79          1           0        4.293787    5.511545   -2.404583
     80          1           0        4.608062    6.534817   -1.011804
     81          1           0        3.325556    5.405522   -0.922212
     82          1           0        6.532996    7.559459   -0.384626
     83          1           0        6.371411    7.206254   -2.078742
     84          1           0        7.899185    7.957004   -1.474654
     85          1           0       10.828770    2.098129    0.922538
     86          1           0       11.080948   -0.703416    0.192979
     87          1           0       11.006732    1.497446   -1.941069
     88          1           0       12.332208    0.697950   -1.045121
     89          1           0       12.087958    2.391917   -1.053954
     90          1           0       11.946210    0.571800    2.635627
     91          1           0       11.587964   -1.103083    2.496949
     92          1           0        9.137276    0.163706    3.191056
     93          1           0       10.509077    0.487202    4.407744
     94          1           0       10.049856   -1.140008    3.936717
     95          1           0        7.753909   -5.589977    0.314243
     96          1           0        7.121255   -5.552074    1.886260
     97          1           0        8.611073   -4.565089    1.612061
     98          1           0        2.346805   -3.711206    0.890783
     99          1           0        0.598561   -5.530109   -2.798574
    100          1           0        0.012992   -3.923007   -2.424803
    101          1           0       -0.594889   -5.401108   -1.593549
    102          1           0       -4.476886   -0.619229    1.284445
    103          1           0       -4.375215   -2.383248    1.327598
    104          1           0       -4.849953   -1.016599   -1.351914
    105          1           0       -6.278822   -4.288349    0.383225
    106          1           0       -7.775823   -3.368479    0.739533
    107          1           0       -6.325080   -3.040750    1.611146
    108          1           0       -7.859790   -3.118200   -1.472475
    109          1           0       -6.502269   -3.034117   -2.417796
    110          1           0       -7.431077   -1.377560   -3.512883
    111          1           0       -7.091532   -0.308997   -2.137858
    112          1           0       -9.609375   -1.687189   -1.483588
    113          1           0       -9.646566   -1.195768   -3.155742
    114          1           0       -8.761646    1.114120   -2.290024
    115          1           0       -8.998628   -0.141268    0.261503
    116          1           0      -10.494648    0.773960    0.007605
    117          1           0       -8.856945    1.494724   -0.117848
    118          1           0      -10.739996    1.127332   -3.434952
    119          1           0      -11.003784    1.845747   -1.933570
    120          1           0      -11.754618   -0.790480   -1.277174
    121          1           0      -12.102967   -0.728307   -3.046369
    122          1           0      -14.116682    0.156585   -2.709699
    123          1           0      -13.360802    1.666658   -2.230082
    124          1           0      -13.255771    0.089336    0.074356
    125          1           0      -14.813226   -1.203916    0.397382
    126          1           0      -15.349334   -1.034214   -1.292207
    127          1           0      -16.070353   -0.057471   -0.051753
    128          1           0      -15.297286    2.270387   -0.533556
    129          1           0      -13.537217    2.526020   -0.138659
    130          1           0      -14.354592    0.854018    1.873254
    131          1           0      -15.774232    2.003878    1.806116
    132          1           0      -14.752135    3.594644    2.882952
    133          1           0      -13.430311    3.760231    1.736060
    134          1           0      -13.109933    1.330597    3.369167
    135          1           0      -13.216071    4.114203    4.540323
    136          1           0      -12.070213    2.774657    5.098874
    137          1           0      -13.731910    2.568809    5.359083
    138          1           0      -10.792654    1.978735    3.237505
    139          1           0      -11.177527    3.688243    3.187289
    140          1           0      -11.431146    2.756435    1.706935
 ---------------------------------------------------------------------

 SCF Done:  E(RZINDO/S) =  -474.268530260     A.U. after   19 cycles

 Excitation energies and oscillator strengths:

 Excited State   1:      Singlet-A      1.2707 eV  975.70 nm  f=0.5690  <S**2>=0.000
     175 ->178        -0.20431
     176 ->177         0.65880
 This state for optimization and/or second-order correction.
 Total Energy, E(CIS/TDA) =  -474.221831975
 Copying the excited state density for this state as the 1-particle RhoCI density.

 Excited State   2:      Singlet-A      1.8889 eV  656.40 nm  f=0.0589  <S**2>=0.000
     175 ->177         0.55725
     176 ->178         0.40666

 Excited State   3:      Singlet-A      2.9582 eV  419.11 nm  f=1.0404  <S**2>=0.000
     171 ->177         0.12005
     175 ->177        -0.34640
     176 ->178         0.52567
     176 ->179         0.20728

 Excited State   4:      Singlet-A      3.0079 eV  412.19 nm  f=0.0020  <S**2>=0.000
     168 ->177         0.37804
     168 ->178        -0.17731
     168 ->179        -0.36851
     168 ->181         0.23276
     168 ->183         0.11330
     168 ->186        -0.17558

 Excited State   5:      Singlet-A      3.0239 eV  410.02 nm  f=0.0003  <S**2>=0.000
     169 ->179         0.13176
     169 ->181         0.15055
     169 ->186         0.10065
     170 ->177         0.21441
     170 ->179         0.31591
     170 ->181         0.35674
     170 ->182        -0.10677
     170 ->183         0.12310
     170 ->186         0.23775
     170 ->187        -0.14768

 The electronic state is 1-A.
 Alpha  occ. eigenvalues --   -1.84633  -1.81686  -1.79307  -1.74323  -1.72003
 Alpha  occ. eigenvalues --   -1.71314  -1.65820  -1.62174  -1.58871  -1.57921
 Alpha  occ. eigenvalues --   -1.55594  -1.53278  -1.49771  -1.49102  -1.44782
 Alpha  occ. eigenvalues --   -1.44006  -1.43145  -1.39861  -1.38611  -1.37693
 Alpha  occ. eigenvalues --   -1.36074  -1.34355  -1.33349  -1.30841  -1.28378
 Alpha  occ. eigenvalues --   -1.26161  -1.24983  -1.22550  -1.21421  -1.18848
 Alpha  occ. eigenvalues --   -1.18313  -1.15951  -1.14969  -1.13789  -1.12297
 Alpha  occ. eigenvalues --   -1.12125  -1.10539  -1.09759  -1.06525  -1.04572
 Alpha  occ. eigenvalues --   -1.02241  -1.01754  -1.00679  -0.97966  -0.97668
 Alpha  occ. eigenvalues --   -0.97210  -0.94823  -0.93931  -0.92800  -0.92162
 Alpha  occ. eigenvalues --   -0.91317  -0.90203  -0.88484  -0.87103  -0.86301
 Alpha  occ. eigenvalues --   -0.85984  -0.83848  -0.83323  -0.81879  -0.80376
 Alpha  occ. eigenvalues --   -0.79054  -0.78722  -0.77044  -0.76298  -0.76116
 Alpha  occ. eigenvalues --   -0.75852  -0.75583  -0.75144  -0.74230  -0.73476
 Alpha  occ. eigenvalues --   -0.73219  -0.73008  -0.71946  -0.71692  -0.70966
 Alpha  occ. eigenvalues --   -0.70137  -0.69744  -0.69249  -0.68913  -0.68397
 Alpha  occ. eigenvalues --   -0.67156  -0.66745  -0.66115  -0.65443  -0.65204
 Alpha  occ. eigenvalues --   -0.64951  -0.64459  -0.64431  -0.63737  -0.63098
 Alpha  occ. eigenvalues --   -0.62856  -0.62586  -0.62519  -0.62201  -0.61917
 Alpha  occ. eigenvalues --   -0.61559  -0.61228  -0.60820  -0.60529  -0.59705
 Alpha  occ. eigenvalues --   -0.59402  -0.59018  -0.58780  -0.58129  -0.58014
 Alpha  occ. eigenvalues --   -0.57917  -0.57521  -0.57355  -0.56970  -0.56632
 Alpha  occ. eigenvalues --   -0.56360  -0.55616  -0.55461  -0.55174  -0.54843
 Alpha  occ. eigenvalues --   -0.54229  -0.54003  -0.53850  -0.53435  -0.53152
 Alpha  occ. eigenvalues --   -0.52630  -0.52468  -0.52234  -0.52131  -0.52007
 Alpha  occ. eigenvalues --   -0.51299  -0.50823  -0.50598  -0.50520  -0.50049
 Alpha  occ. eigenvalues --   -0.49858  -0.49595  -0.49289  -0.49013  -0.48952
 Alpha  occ. eigenvalues --   -0.48639  -0.48511  -0.48258  -0.48168  -0.47916
 Alpha  occ. eigenvalues --   -0.47711  -0.47629  -0.47484  -0.47303  -0.46885
 Alpha  occ. eigenvalues --   -0.46738  -0.45780  -0.45730  -0.45064  -0.45038
 Alpha  occ. eigenvalues --   -0.44870  -0.44578  -0.44187  -0.44048  -0.43836
 Alpha  occ. eigenvalues --   -0.43368  -0.43237  -0.42736  -0.42498  -0.42341
 Alpha  occ. eigenvalues --   -0.41997  -0.41979  -0.41404  -0.39372  -0.38856
 Alpha  occ. eigenvalues --   -0.38447  -0.37167  -0.35806  -0.34846  -0.34655
 Alpha  occ. eigenvalues --   -0.33323  -0.32503  -0.32156  -0.31929  -0.26257
 Alpha  occ. eigenvalues --   -0.21885
 Alpha virt. eigenvalues --   -0.08464  -0.02245  -0.00417   0.01313   0.01502
 Alpha virt. eigenvalues --    0.01996   0.02498   0.03236   0.03825   0.04753
 Alpha virt. eigenvalues --    0.06219   0.06612   0.07437   0.07707   0.08006

 Mulliken charges:
               1
     1  Mg   0.431401
     2  C   -0.051906
     3  C   -0.074484
     4  C   -0.060857
     5  C   -0.086089
     6  N   -0.248330
     7  C    0.149720
     8  C    0.001152
     9  C   -0.000207
    10  C    0.088631
    11  C   -0.048793
    12  C   -0.022732
    13  C   -0.003501
    14  C    0.462027
    15  O   -0.517724
    16  O   -0.254065
    17  N   -0.316583
    18  C    0.086815
    19  C    0.013153
    20  C   -0.068147
    21  C    0.124444
    22  C   -0.042712
    23  C    0.331446
    24  O   -0.534429
    25  C   -0.022173
    26  N   -0.272706
    27  C    0.127458
    28  C    0.004801
    29  C    0.002277
    30  C    0.171445
    31  C   -0.058281
    32  C   -0.033477
    33  C   -0.060019
    34  N   -0.341519
    35  C    0.107594
    36  C    0.049991
    37  C   -0.045750
    38  C    0.132609
    39  C   -0.041969
    40  C    0.339276
    41  O   -0.507285
    42  C    0.049287
    43  C    0.494584
    44  O   -0.522858
    45  O   -0.285238
    46  C    0.074278
    47  C    0.107518
    48  C   -0.092369
    49  C   -0.013232
    50  C   -0.036233
    51  C   -0.027415
    52  C   -0.026977
    53  C   -0.029444
    54  C   -0.010202
    55  C   -0.051730
    56  C   -0.047299
    57  C   -0.046626
    58  C   -0.041745
    59  C   -0.015492
    60  C   -0.058369
    61  C   -0.044601
    62  C   -0.040475
    63  C   -0.043156
    64  C   -0.023547
    65  C   -0.059214
    66  C   -0.056635
    67  H    0.026635
    68  H    0.043608
    69  H    0.019854
    70  H    0.025780
    71  H    0.032273
    72  H    0.017876
    73  H    0.035263
    74  H    0.020737
    75  H    0.030176
    76  H    0.019700
    77  H    0.050435
    78  H    0.043249
    79  H    0.030366
    80  H    0.017355
    81  H    0.026553
    82  H    0.043003
    83  H    0.026463
    84  H    0.041060
    85  H    0.025184
    86  H    0.032566
    87  H    0.022734
    88  H    0.021971
    89  H    0.021022
    90  H    0.034342
    91  H    0.008276
    92  H    0.030483
    93  H    0.027074
    94  H    0.016321
    95  H    0.042855
    96  H    0.034885
    97  H    0.029310
    98  H    0.055534
    99  H    0.050297
   100  H    0.037654
   101  H    0.034878
   102  H    0.056651
   103  H    0.045661
   104  H    0.038923
   105  H    0.034671
   106  H    0.025719
   107  H    0.017156
   108  H    0.006392
   109  H    0.018739
   110  H    0.020431
   111  H    0.024058
   112  H    0.027374
   113  H    0.009869
   114  H    0.017798
   115  H    0.012189
   116  H    0.023370
   117  H    0.009730
   118  H    0.011985
   119  H    0.010349
   120  H    0.034285
   121  H    0.019164
   122  H    0.020862
   123  H    0.017888
   124  H    0.017143
   125  H    0.014397
   126  H    0.017984
   127  H    0.013099
   128  H    0.029182
   129  H    0.021143
   130  H    0.038421
   131  H    0.021296
   132  H    0.015335
   133  H    0.029650
   134  H    0.027034
   135  H    0.029711
   136  H    0.010626
   137  H    0.014830
   138  H    0.018522
   139  H    0.018961
   140  H    0.020319
 Sum of Mulliken charges =  -0.00000

 Dipole moment (field-independent basis, Debye):
    X=             -4.5912    Y=              1.9801    Z=             -0.3888  Tot=              5.0151
 N-N= 4.224438095729D+03 E-N= 0.000000000000D+00  KE=-9.123048141133D+03
 Leave Link  601 at Wed May  4 14:00:11 2022, MaxMem=  6710886400 cpu:               0.8 elap:               0.0
 (Enter /sw/apps/gaussian-16.0/g16/l9999.exe)
 1\1\GINC-BP1-COMPUTE123\SP\RZINDO CIS\STO-3G\C55H74Mg1N4O6\OF15641\04-
 May-2022\0\\#p ZINDO=(nstates=5)\\step_1751_chromophore_25 ZINDO\\0,1\
 Mg,0,-2.415,35.068,26.038\C,0,-3.882,33.229,28.702\C,0,-0.938,37.086,2
 8.266\C,0,-1.627,37.094,23.358\C,0,-4.134,33.02,23.823\N,0,-2.478,35.1
 37,28.318\C,0,-3.058,34.304,29.149\C,0,-2.536,34.58,30.563\C,0,-1.726,
 35.916,30.497\C,0,-1.68,36.034,28.923\C,0,-2.393,37.12,31.175\C,0,-1.8
 67,33.472,31.442\C,0,-2.517,33.144,32.839\C,0,-1.489,32.844,33.963\O,0

 Normal termination of Gaussian 16 at Wed May  4 14:00:11 2022.
