 Gaussian 16, Revision A.03,
 Gaussian 16:  ES64L-G16RevA.03 25-Dec-2016

 ------------------------------
 #p blyp/Def2SVP td=(nstates=5)
 ------------------------------

 --------------------------------------------------
 step_501_chromophore_21 TDDFT with blyp functional
 --------------------------------------------------
 Symbolic Z-matrix:
 Charge =  0 Multiplicity = 1

                         Standard orientation:
 ---------------------------------------------------------------------
 Center     Atomic      Atomic             Coordinates (Angstroms)
 Number     Number       Type             X           Y           Z
 ---------------------------------------------------------------------
      1         12           0       -5.039726    1.226404   -0.077763
      2          6           0       -5.096998   -2.172797    0.037360
      3          6           0       -1.622755    1.246582    0.323230
      4          6           0       -5.159045    4.609320   -0.028692
      5          6           0       -8.572989    1.175462   -0.005538
      6          7           0       -3.552930   -0.302007    0.377848
      7          6           0       -3.781593   -1.600394    0.044751
      8          6           0       -2.533885   -2.402126   -0.110066
      9          6           0       -1.441272   -1.269139    0.255395
     10          6           0       -2.236612   -0.007160    0.328790
     11          6           0       -0.677583   -1.567693    1.624217
     12          6           0       -2.415970   -2.885211   -1.630449
     13          6           0       -1.549224   -4.114787   -1.910642
     14          6           0       -0.547073   -4.727215   -0.900629
     15          8           0       -0.648916   -5.730741   -0.137861
     16          8           0        0.671617   -4.095904   -0.983027
     17          7           0       -3.619090    2.758497    0.016482
     18          6           0       -2.244325    2.543666    0.207158
     19          6           0       -1.618305    3.844150    0.266662
     20          6           0       -2.623967    4.823386    0.135886
     21          6           0       -3.850570    4.052720   -0.014903
     22          6           0       -0.083201    3.987788    0.387645
     23          6           0       -2.457905    6.429218    0.237612
     24          8           0       -3.376114    7.214184   -0.031063
     25          6           0       -1.169002    7.132245    0.630314
     26          7           0       -6.696318    2.694539   -0.094043
     27          6           0       -6.433226    4.021602   -0.028668
     28          6           0       -7.701321    4.829356    0.242626
     29          6           0       -8.866527    3.729193   -0.086645
     30          6           0       -8.035962    2.439546   -0.179316
     31          6           0       -7.774024    5.572265    1.654510
     32          6           0       -9.607534    3.872088   -1.511445
     33          6           0      -11.123360    3.844897   -1.579871
     34          7           0       -6.600601   -0.161350   -0.052261
     35          6           0       -7.941053   -0.064435   -0.012116
     36          6           0       -8.550450   -1.428688   -0.096157
     37          6           0       -7.411635   -2.267843   -0.133387
     38          6           0       -6.281372   -1.429038    0.024301
     39          6           0       -9.971923   -1.860593   -0.176322
     40          6           0       -7.077641   -3.640388   -0.213477
     41          8           0       -7.812194   -4.646030   -0.297682
     42          6           0       -5.555135   -3.647273   -0.101933
     43          6           0       -5.176771   -4.407322    1.067402
     44          8           0       -5.494487   -4.289115    2.209420
     45          8           0       -4.211569   -5.315555    0.642730
     46          6           0       -3.515740   -6.260034    1.598323
     47          6           0        1.780241   -4.611741   -0.185818
     48          6           0        2.990049   -3.682382   -0.457032
     49          6           0        4.255802   -4.010880   -0.521907
     50          6           0        4.763066   -5.415150   -0.093415
     51          6           0        5.251153   -2.844649   -0.638753
     52          6           0        6.717503   -3.154703   -1.069374
     53          6           0        7.557414   -1.866744   -1.261840
     54          6           0        8.766685   -1.754239   -0.184086
     55          6           0        8.235906   -1.339232    1.175329
     56          6           0        9.936304   -0.798492   -0.622544
     57          6           0       11.396741   -1.404236   -0.372100
     58          6           0       11.973668   -0.958865    0.993320
     59          6           0       13.102402    0.078534    0.900917
     60          6           0       14.259244   -0.223031    2.017738
     61          6           0       12.539098    1.552066    0.893599
     62          6           0       12.688230    2.160971   -0.547965
     63          6           0       14.172993    2.711650   -0.648383
     64          6           0       14.282576    4.247048   -0.784344
     65          6           0       15.455436    4.607508   -1.777580
     66          6           0       14.295707    4.783229    0.623417
     67          1           0       -0.539043    1.328837    0.220917
     68          1           0       -5.194225    5.695142    0.084878
     69          1           0       -9.638413    1.079352    0.210988
     70          1           0       -2.348946   -3.292945    0.489891
     71          1           0       -0.687645   -1.178545   -0.526848
     72          1           0        0.373899   -1.283011    1.654333
     73          1           0       -0.855463   -2.603619    1.912457
     74          1           0       -1.164070   -0.954995    2.383884
     75          1           0       -2.047786   -2.087501   -2.275878
     76          1           0       -3.439493   -3.100984   -1.937999
     77          1           0       -1.005571   -3.884399   -2.827740
     78          1           0       -2.201094   -4.937135   -2.202981
     79          1           0        0.458863    3.042434    0.367709
     80          1           0        0.104971    4.530806    1.313242
     81          1           0        0.241871    4.629084   -0.431929
     82          1           0       -0.497805    6.955486   -0.209319
     83          1           0       -0.621826    6.598440    1.407585
     84          1           0       -1.379398    8.136647    0.997185
     85          1           0       -7.771267    5.599820   -0.526151
     86          1           0       -9.632462    3.728486    0.689132
     87          1           0       -8.643714    5.249795    2.227495
     88          1           0       -7.795088    6.651637    1.508516
     89          1           0       -6.919345    5.301975    2.275103
     90          1           0       -9.221208    3.161724   -2.242213
     91          1           0       -9.281159    4.826410   -1.923683
     92          1           0      -11.386198    3.036380   -2.261124
     93          1           0      -11.552714    4.795194   -1.895972
     94          1           0      -11.528835    3.554139   -0.609761
     95          1           0      -10.695285   -1.048423   -0.246723
     96          1           0      -10.252388   -2.439898    0.703746
     97          1           0      -10.087605   -2.493602   -1.055877
     98          1           0       -5.079750   -4.089512   -0.977937
     99          1           0       -3.842466   -6.073474    2.621561
    100          1           0       -2.441505   -6.071350    1.580798
    101          1           0       -3.786782   -7.261075    1.262938
    102          1           0        1.983922   -5.661778   -0.393158
    103          1           0        1.600225   -4.609617    0.889512
    104          1           0        2.605428   -2.688570   -0.686096
    105          1           0        3.970564   -6.155024    0.024713
    106          1           0        5.139183   -5.469756    0.928221
    107          1           0        5.477200   -5.755068   -0.844027
    108          1           0        5.262341   -2.334493    0.324032
    109          1           0        5.023366   -2.111338   -1.411996
    110          1           0        6.735998   -3.769772   -1.969779
    111          1           0        7.075381   -3.884739   -0.343706
    112          1           0        6.879614   -1.042028   -1.041367
    113          1           0        7.922549   -1.673730   -2.270522
    114          1           0        9.121794   -2.764293    0.018253
    115          1           0        8.838928   -1.795745    1.960363
    116          1           0        7.204776   -1.674135    1.287072
    117          1           0        8.179451   -0.253453    1.242971
    118          1           0        9.903209    0.162225   -0.108428
    119          1           0       10.038990   -0.531315   -1.673820
    120          1           0       12.006832   -1.172732   -1.245338
    121          1           0       11.370798   -2.492455   -0.411627
    122          1           0       12.423316   -1.785532    1.543245
    123          1           0       11.192706   -0.605588    1.666185
    124          1           0       13.536709   -0.100029   -0.083548
    125          1           0       14.803110    0.698137    2.225633
    126          1           0       14.987629   -0.970697    1.704976
    127          1           0       13.863984   -0.504117    2.993514
    128          1           0       13.099695    2.171892    1.593618
    129          1           0       11.490443    1.589393    1.189739
    130          1           0       12.005478    3.008947   -0.504916
    131          1           0       12.407754    1.464148   -1.337944
    132          1           0       14.519933    2.160431   -1.523309
    133          1           0       14.833034    2.309096    0.120180
    134          1           0       13.349463    4.634832   -1.191605
    135          1           0       16.022821    3.722245   -2.065555
    136          1           0       16.042482    5.378229   -1.278143
    137          1           0       15.050342    5.066090   -2.679238
    138          1           0       14.053705    5.838986    0.501478
    139          1           0       15.232256    4.670160    1.169552
    140          1           0       13.550503    4.222497    1.186835
 ---------------------------------------------------------------------

 SCF Done:  E(RB-LYP) =  -3007.38561653     A.U. after   21 cycles

 Excitation energies and oscillator strengths:

 Excited State   1:      Singlet-A      1.8376 eV  674.69 nm  f=0.3016  <S**2>=0.000
     245 -> 248       -0.20262
     246 -> 247        0.68194
     246 <- 247       -0.14139
 This state for optimization and/or second-order correction.
 Total Energy, E(TD-HF/TD-DFT) =  -3007.31808432
 Copying the excited state density for this state as the 1-particle RhoCI density.

 Excited State   2:      Singlet-A      1.9525 eV  635.00 nm  f=0.0077  <S**2>=0.000
     244 -> 247        0.66852
     245 -> 247       -0.20573

 Excited State   3:      Singlet-A      2.0113 eV  616.44 nm  f=0.0689  <S**2>=0.000
     243 -> 247       -0.15248
     244 -> 247        0.21320
     245 -> 247        0.60330
     246 -> 248        0.22791

 Excited State   4:      Singlet-A      2.0762 eV  597.18 nm  f=0.0060  <S**2>=0.000
     243 -> 247        0.68797
     245 -> 247        0.13817

 Excited State   5:      Singlet-A      2.6493 eV  467.99 nm  f=0.0008  <S**2>=0.000
     240 -> 247        0.22687
     241 -> 247       -0.29533
     242 -> 247        0.57721

 The electronic state is 1-A.
 Alpha  occ. eigenvalues --  -46.27865 -18.83044 -18.79985 -18.77738 -18.76111
 Alpha  occ. eigenvalues --  -18.75925 -18.75334 -14.03729 -14.02799 -14.01189
 Alpha  occ. eigenvalues --  -14.00928 -10.05656 -10.02714 -10.01056  -9.98898
 Alpha  occ. eigenvalues --   -9.98493  -9.97190  -9.96457  -9.96226  -9.96219
 Alpha  occ. eigenvalues --   -9.95960  -9.95738  -9.95610  -9.95605  -9.94637
 Alpha  occ. eigenvalues --   -9.94592  -9.94360  -9.94318  -9.94249  -9.94041
 Alpha  occ. eigenvalues --   -9.94035  -9.94027  -9.93901  -9.93852  -9.93605
 Alpha  occ. eigenvalues --   -9.93457  -9.93417  -9.93374  -9.93209  -9.93161
 Alpha  occ. eigenvalues --   -9.92726  -9.92630  -9.92602  -9.92574  -9.92464
 Alpha  occ. eigenvalues --   -9.92428  -9.92330  -9.92314  -9.92180  -9.92114
 Alpha  occ. eigenvalues --   -9.92051  -9.92042  -9.91878  -9.91872  -9.91793
 Alpha  occ. eigenvalues --   -9.91555  -9.91460  -9.91429  -9.91245  -9.91073
 Alpha  occ. eigenvalues --   -9.91039  -9.91038  -9.90809  -9.90755  -9.90718
 Alpha  occ. eigenvalues --   -9.90493  -2.92371  -1.72812  -1.72237  -1.72089
 Alpha  occ. eigenvalues --   -0.98097  -0.96371  -0.91257  -0.89730  -0.88793
 Alpha  occ. eigenvalues --   -0.88595  -0.87745  -0.86856  -0.86070  -0.85119
 Alpha  occ. eigenvalues --   -0.76131  -0.73770  -0.72893  -0.72602  -0.71930
 Alpha  occ. eigenvalues --   -0.71820  -0.71009  -0.70536  -0.70508  -0.70343
 Alpha  occ. eigenvalues --   -0.69684  -0.69099  -0.68057  -0.67554  -0.66948
 Alpha  occ. eigenvalues --   -0.66236  -0.65713  -0.65233  -0.64862  -0.64412
 Alpha  occ. eigenvalues --   -0.63665  -0.62771  -0.62397  -0.61734  -0.61265
 Alpha  occ. eigenvalues --   -0.60623  -0.60461  -0.60012  -0.59357  -0.58737
 Alpha  occ. eigenvalues --   -0.58350  -0.57554  -0.57110  -0.56267  -0.54367
 Alpha  occ. eigenvalues --   -0.53957  -0.53629  -0.52766  -0.52120  -0.51406
 Alpha  occ. eigenvalues --   -0.51276  -0.51256  -0.50668  -0.50476  -0.50308
 Alpha  occ. eigenvalues --   -0.49825  -0.49534  -0.48896  -0.47447  -0.47217
 Alpha  occ. eigenvalues --   -0.46876  -0.46467  -0.45842  -0.45263  -0.44591
 Alpha  occ. eigenvalues --   -0.44321  -0.43278  -0.43015  -0.42707  -0.42380
 Alpha  occ. eigenvalues --   -0.42000  -0.41549  -0.41424  -0.40871  -0.40711
 Alpha  occ. eigenvalues --   -0.40695  -0.40297  -0.40098  -0.39962  -0.39915
 Alpha  occ. eigenvalues --   -0.39787  -0.39615  -0.39535  -0.39359  -0.39068
 Alpha  occ. eigenvalues --   -0.38819  -0.38651  -0.38538  -0.38461  -0.38333
 Alpha  occ. eigenvalues --   -0.38211  -0.37995  -0.37916  -0.37575  -0.37295
 Alpha  occ. eigenvalues --   -0.37029  -0.36751  -0.36620  -0.36272  -0.36145
 Alpha  occ. eigenvalues --   -0.36083  -0.35877  -0.35674  -0.35601  -0.35442
 Alpha  occ. eigenvalues --   -0.35336  -0.35271  -0.34978  -0.34890  -0.34664
 Alpha  occ. eigenvalues --   -0.34529  -0.34434  -0.34307  -0.34252  -0.33918
 Alpha  occ. eigenvalues --   -0.33727  -0.33568  -0.33343  -0.33269  -0.32991
 Alpha  occ. eigenvalues --   -0.32887  -0.32779  -0.32697  -0.32694  -0.32481
 Alpha  occ. eigenvalues --   -0.32271  -0.32254  -0.32143  -0.32035  -0.31885
 Alpha  occ. eigenvalues --   -0.31670  -0.31553  -0.31229  -0.31013  -0.30697
 Alpha  occ. eigenvalues --   -0.30590  -0.30359  -0.30039  -0.29941  -0.29851
 Alpha  occ. eigenvalues --   -0.29827  -0.29518  -0.29097  -0.28887  -0.28769
 Alpha  occ. eigenvalues --   -0.28529  -0.28406  -0.28226  -0.27864  -0.27738
 Alpha  occ. eigenvalues --   -0.27590  -0.27510  -0.27270  -0.26986  -0.26473
 Alpha  occ. eigenvalues --   -0.26442  -0.26366  -0.26192  -0.25873  -0.25715
 Alpha  occ. eigenvalues --   -0.25451  -0.23935  -0.23800  -0.23759  -0.23349
 Alpha  occ. eigenvalues --   -0.23283  -0.22438  -0.22180  -0.21437  -0.21351
 Alpha  occ. eigenvalues --   -0.20901  -0.20682  -0.18993  -0.18501  -0.17150
 Alpha  occ. eigenvalues --   -0.15888
 Alpha virt. eigenvalues --   -0.11455  -0.06928  -0.06442  -0.04972  -0.04776
 Alpha virt. eigenvalues --   -0.02176  -0.02071  -0.01552  -0.01123  -0.00070
 Alpha virt. eigenvalues --    0.00993   0.01377   0.02179   0.02796   0.02982

 Mulliken charges:
               1
     1  Mg   0.678753
     2  C   -0.050307
     3  C   -0.053767
     4  C   -0.032877
     5  C   -0.094668
     6  N   -0.217087
     7  C   -0.040724
     8  C   -0.021512
     9  C   -0.009612
    10  C    0.064044
    11  C    0.115566
    12  C    0.107334
    13  C    0.152511
    14  C    0.099686
    15  O   -0.225587
    16  O   -0.272713
    17  N   -0.264270
    18  C    0.086912
    19  C   -0.145655
    20  C    0.018133
    21  C    0.077164
    22  C    0.160108
    23  C   -0.041471
    24  O   -0.179719
    25  C    0.146369
    26  N   -0.194346
    27  C   -0.004405
    28  C    0.035734
    29  C   -0.017297
    30  C    0.077862
    31  C    0.123739
    32  C    0.067518
    33  C    0.081888
    34  N   -0.207409
    35  C    0.076378
    36  C   -0.153748
    37  C    0.063603
    38  C    0.126668
    39  C    0.175716
    40  C   -0.039243
    41  O   -0.154012
    42  C    0.105786
    43  C    0.086893
    44  O   -0.132368
    45  O   -0.320746
    46  C    0.193565
    47  C    0.302624
    48  C   -0.109631
    49  C   -0.067215
    50  C    0.121722
    51  C    0.048295
    52  C    0.055749
    53  C    0.119046
    54  C   -0.051826
    55  C    0.105468
    56  C    0.098958
    57  C    0.051122
    58  C    0.115694
    59  C   -0.072644
    60  C    0.081681
    61  C    0.089516
    62  C    0.053579
    63  C    0.056133
    64  C   -0.073408
    65  C    0.123237
    66  C    0.111581
    67  H   -0.066232
    68  H   -0.052185
    69  H   -0.061324
    70  H    0.008103
    71  H   -0.025792
    72  H    0.000707
    73  H   -0.002545
    74  H   -0.008980
    75  H   -0.021600
    76  H   -0.016611
    77  H   -0.006304
    78  H    0.003220
    79  H   -0.007678
    80  H    0.007044
    81  H    0.002445
    82  H    0.008409
    83  H   -0.022327
    84  H    0.018189
    85  H   -0.023834
    86  H   -0.022726
    87  H   -0.011417
    88  H    0.005665
    89  H   -0.001043
    90  H   -0.014893
    91  H   -0.032671
    92  H   -0.007888
    93  H    0.002742
    94  H   -0.016967
    95  H   -0.025224
    96  H    0.014709
    97  H    0.013971
    98  H   -0.008624
    99  H    0.013255
   100  H    0.031665
   101  H    0.024278
   102  H   -0.000393
   103  H    0.001597
   104  H   -0.033883
   105  H   -0.028680
   106  H    0.007322
   107  H    0.010879
   108  H   -0.000591
   109  H   -0.012470
   110  H   -0.030392
   111  H   -0.031593
   112  H   -0.038997
   113  H   -0.029410
   114  H   -0.030187
   115  H   -0.005104
   116  H   -0.035968
   117  H   -0.019363
   118  H   -0.027021
   119  H   -0.040960
   120  H   -0.033714
   121  H   -0.037038
   122  H   -0.051686
   123  H   -0.030104
   124  H   -0.034533
   125  H   -0.022461
   126  H   -0.008675
   127  H   -0.015376
   128  H   -0.034253
   129  H   -0.037886
   130  H   -0.033295
   131  H   -0.013223
   132  H   -0.049269
   133  H   -0.022870
   134  H   -0.037070
   135  H   -0.005161
   136  H   -0.024577
   137  H   -0.017447
   138  H   -0.019927
   139  H   -0.018710
   140  H   -0.013116
 Sum of Mulliken charges =  -0.00000

 Dipole moment (field-independent basis, Debye):
    X=              5.0885    Y=              2.6233    Z=             -1.7112  Tot=              5.9752
 Quadrupole moment (field-independent basis, Debye-Ang):
   XX=           -404.2221   YY=           -437.6451   ZZ=           -404.6092
   XY=            -40.9775   XZ=              8.7791   YZ=              8.4823

 Normal termination of Gaussian 16 at Thu May  5 01:14:34 2022.
