 Gaussian 16, Revision A.03,
 Gaussian 16:  ES64L-G16RevA.03 25-Dec-2016

 -----------------------------------
 #p cam-b3lyp/Def2SVP td=(nstates=5)
 -----------------------------------

 -------------------------------------------------------
 step_501_chromophore_21 TDDFT with cam-b3lyp functional
 -------------------------------------------------------
 Symbolic Z-matrix:
 Charge =  0 Multiplicity = 1

                         Standard orientation:
 ---------------------------------------------------------------------
 Center     Atomic      Atomic             Coordinates (Angstroms)
 Number     Number       Type             X           Y           Z
 ---------------------------------------------------------------------
      1         12           0       -5.039726    1.226404   -0.077763
      2          6           0       -5.096998   -2.172797    0.037360
      3          6           0       -1.622755    1.246582    0.323230
      4          6           0       -5.159045    4.609320   -0.028692
      5          6           0       -8.572989    1.175462   -0.005538
      6          7           0       -3.552930   -0.302007    0.377848
      7          6           0       -3.781593   -1.600394    0.044751
      8          6           0       -2.533885   -2.402126   -0.110066
      9          6           0       -1.441272   -1.269139    0.255395
     10          6           0       -2.236612   -0.007160    0.328790
     11          6           0       -0.677583   -1.567693    1.624217
     12          6           0       -2.415970   -2.885211   -1.630449
     13          6           0       -1.549224   -4.114787   -1.910642
     14          6           0       -0.547073   -4.727215   -0.900629
     15          8           0       -0.648916   -5.730741   -0.137861
     16          8           0        0.671617   -4.095904   -0.983027
     17          7           0       -3.619090    2.758497    0.016482
     18          6           0       -2.244325    2.543666    0.207158
     19          6           0       -1.618305    3.844150    0.266662
     20          6           0       -2.623967    4.823386    0.135886
     21          6           0       -3.850570    4.052720   -0.014903
     22          6           0       -0.083201    3.987788    0.387645
     23          6           0       -2.457905    6.429218    0.237612
     24          8           0       -3.376114    7.214184   -0.031063
     25          6           0       -1.169002    7.132245    0.630314
     26          7           0       -6.696318    2.694539   -0.094043
     27          6           0       -6.433226    4.021602   -0.028668
     28          6           0       -7.701321    4.829356    0.242626
     29          6           0       -8.866527    3.729193   -0.086645
     30          6           0       -8.035962    2.439546   -0.179316
     31          6           0       -7.774024    5.572265    1.654510
     32          6           0       -9.607534    3.872088   -1.511445
     33          6           0      -11.123360    3.844897   -1.579871
     34          7           0       -6.600601   -0.161350   -0.052261
     35          6           0       -7.941053   -0.064435   -0.012116
     36          6           0       -8.550450   -1.428688   -0.096157
     37          6           0       -7.411635   -2.267843   -0.133387
     38          6           0       -6.281372   -1.429038    0.024301
     39          6           0       -9.971923   -1.860593   -0.176322
     40          6           0       -7.077641   -3.640388   -0.213477
     41          8           0       -7.812194   -4.646030   -0.297682
     42          6           0       -5.555135   -3.647273   -0.101933
     43          6           0       -5.176771   -4.407322    1.067402
     44          8           0       -5.494487   -4.289115    2.209420
     45          8           0       -4.211569   -5.315555    0.642730
     46          6           0       -3.515740   -6.260034    1.598323
     47          6           0        1.780241   -4.611741   -0.185818
     48          6           0        2.990049   -3.682382   -0.457032
     49          6           0        4.255802   -4.010880   -0.521907
     50          6           0        4.763066   -5.415150   -0.093415
     51          6           0        5.251153   -2.844649   -0.638753
     52          6           0        6.717503   -3.154703   -1.069374
     53          6           0        7.557414   -1.866744   -1.261840
     54          6           0        8.766685   -1.754239   -0.184086
     55          6           0        8.235906   -1.339232    1.175329
     56          6           0        9.936304   -0.798492   -0.622544
     57          6           0       11.396741   -1.404236   -0.372100
     58          6           0       11.973668   -0.958865    0.993320
     59          6           0       13.102402    0.078534    0.900917
     60          6           0       14.259244   -0.223031    2.017738
     61          6           0       12.539098    1.552066    0.893599
     62          6           0       12.688230    2.160971   -0.547965
     63          6           0       14.172993    2.711650   -0.648383
     64          6           0       14.282576    4.247048   -0.784344
     65          6           0       15.455436    4.607508   -1.777580
     66          6           0       14.295707    4.783229    0.623417
     67          1           0       -0.539043    1.328837    0.220917
     68          1           0       -5.194225    5.695142    0.084878
     69          1           0       -9.638413    1.079352    0.210988
     70          1           0       -2.348946   -3.292945    0.489891
     71          1           0       -0.687645   -1.178545   -0.526848
     72          1           0        0.373899   -1.283011    1.654333
     73          1           0       -0.855463   -2.603619    1.912457
     74          1           0       -1.164070   -0.954995    2.383884
     75          1           0       -2.047786   -2.087501   -2.275878
     76          1           0       -3.439493   -3.100984   -1.937999
     77          1           0       -1.005571   -3.884399   -2.827740
     78          1           0       -2.201094   -4.937135   -2.202981
     79          1           0        0.458863    3.042434    0.367709
     80          1           0        0.104971    4.530806    1.313242
     81          1           0        0.241871    4.629084   -0.431929
     82          1           0       -0.497805    6.955486   -0.209319
     83          1           0       -0.621826    6.598440    1.407585
     84          1           0       -1.379398    8.136647    0.997185
     85          1           0       -7.771267    5.599820   -0.526151
     86          1           0       -9.632462    3.728486    0.689132
     87          1           0       -8.643714    5.249795    2.227495
     88          1           0       -7.795088    6.651637    1.508516
     89          1           0       -6.919345    5.301975    2.275103
     90          1           0       -9.221208    3.161724   -2.242213
     91          1           0       -9.281159    4.826410   -1.923683
     92          1           0      -11.386198    3.036380   -2.261124
     93          1           0      -11.552714    4.795194   -1.895972
     94          1           0      -11.528835    3.554139   -0.609761
     95          1           0      -10.695285   -1.048423   -0.246723
     96          1           0      -10.252388   -2.439898    0.703746
     97          1           0      -10.087605   -2.493602   -1.055877
     98          1           0       -5.079750   -4.089512   -0.977937
     99          1           0       -3.842466   -6.073474    2.621561
    100          1           0       -2.441505   -6.071350    1.580798
    101          1           0       -3.786782   -7.261075    1.262938
    102          1           0        1.983922   -5.661778   -0.393158
    103          1           0        1.600225   -4.609617    0.889512
    104          1           0        2.605428   -2.688570   -0.686096
    105          1           0        3.970564   -6.155024    0.024713
    106          1           0        5.139183   -5.469756    0.928221
    107          1           0        5.477200   -5.755068   -0.844027
    108          1           0        5.262341   -2.334493    0.324032
    109          1           0        5.023366   -2.111338   -1.411996
    110          1           0        6.735998   -3.769772   -1.969779
    111          1           0        7.075381   -3.884739   -0.343706
    112          1           0        6.879614   -1.042028   -1.041367
    113          1           0        7.922549   -1.673730   -2.270522
    114          1           0        9.121794   -2.764293    0.018253
    115          1           0        8.838928   -1.795745    1.960363
    116          1           0        7.204776   -1.674135    1.287072
    117          1           0        8.179451   -0.253453    1.242971
    118          1           0        9.903209    0.162225   -0.108428
    119          1           0       10.038990   -0.531315   -1.673820
    120          1           0       12.006832   -1.172732   -1.245338
    121          1           0       11.370798   -2.492455   -0.411627
    122          1           0       12.423316   -1.785532    1.543245
    123          1           0       11.192706   -0.605588    1.666185
    124          1           0       13.536709   -0.100029   -0.083548
    125          1           0       14.803110    0.698137    2.225633
    126          1           0       14.987629   -0.970697    1.704976
    127          1           0       13.863984   -0.504117    2.993514
    128          1           0       13.099695    2.171892    1.593618
    129          1           0       11.490443    1.589393    1.189739
    130          1           0       12.005478    3.008947   -0.504916
    131          1           0       12.407754    1.464148   -1.337944
    132          1           0       14.519933    2.160431   -1.523309
    133          1           0       14.833034    2.309096    0.120180
    134          1           0       13.349463    4.634832   -1.191605
    135          1           0       16.022821    3.722245   -2.065555
    136          1           0       16.042482    5.378229   -1.278143
    137          1           0       15.050342    5.066090   -2.679238
    138          1           0       14.053705    5.838986    0.501478
    139          1           0       15.232256    4.670160    1.169552
    140          1           0       13.550503    4.222497    1.186835
 ---------------------------------------------------------------------

 SCF Done:  E(RCAM-B3LYP) =  -3007.16978400     A.U. after   19 cycles

 Excitation energies and oscillator strengths:

 Excited State   1:      Singlet-A      1.7418 eV  711.80 nm  f=0.3861  <S**2>=0.000
     245 -> 248       -0.19172
     246 -> 247        0.68270
     245 <- 248       -0.10913
 This state for optimization and/or second-order correction.
 Total Energy, E(TD-HF/TD-DFT) =  -3007.10577269
 Copying the excited state density for this state as the 1-particle RhoCI density.

 Excited State   2:      Singlet-A      2.2277 eV  556.55 nm  f=0.1063  <S**2>=0.000
     245 -> 247        0.63844
     246 -> 248        0.29520

 Excited State   3:      Singlet-A      3.4172 eV  362.82 nm  f=0.0003  <S**2>=0.000
     239 -> 247        0.19697
     239 -> 249       -0.13622
     241 -> 247       -0.15867
     241 -> 249        0.10985
     242 -> 247        0.35727
     242 -> 249       -0.26550
     242 -> 250        0.11906
     243 -> 247       -0.20714
     243 -> 249        0.10120
     244 -> 247       -0.28422

 Excited State   4:      Singlet-A      3.5239 eV  351.84 nm  f=0.6182  <S**2>=0.000
     242 -> 247       -0.16477
     243 -> 247       -0.14081
     245 -> 247       -0.26127
     246 -> 248        0.60251
     245 <- 247        0.10637

 Excited State   5:      Singlet-A      3.5685 eV  347.44 nm  f=0.0113  <S**2>=0.000
     242 -> 247        0.13074
     243 -> 247       -0.27899
     244 -> 247        0.60043

 The electronic state is 1-A.
 Alpha  occ. eigenvalues --  -46.89461 -19.25895 -19.22906 -19.20744 -19.19240
 Alpha  occ. eigenvalues --  -19.19082 -19.18704 -14.42585 -14.41712 -14.39608
 Alpha  occ. eigenvalues --  -14.39426 -10.41114 -10.38146 -10.36276 -10.34387
 Alpha  occ. eigenvalues --  -10.32521 -10.31882 -10.30762 -10.30687 -10.30318
 Alpha  occ. eigenvalues --  -10.30258 -10.30026 -10.29924 -10.29797 -10.28857
 Alpha  occ. eigenvalues --  -10.28787 -10.28737 -10.28681 -10.28373 -10.28280
 Alpha  occ. eigenvalues --  -10.28244 -10.28234 -10.27999 -10.27994 -10.27814
 Alpha  occ. eigenvalues --  -10.27566 -10.27540 -10.27460 -10.27442 -10.26846
 Alpha  occ. eigenvalues --  -10.26709 -10.26471 -10.26429 -10.26339 -10.26247
 Alpha  occ. eigenvalues --  -10.26193 -10.26142 -10.26091 -10.26001 -10.25946
 Alpha  occ. eigenvalues --  -10.25943 -10.25934 -10.25771 -10.25581 -10.25380
 Alpha  occ. eigenvalues --  -10.25302 -10.25180 -10.25158 -10.24931 -10.24820
 Alpha  occ. eigenvalues --  -10.24746 -10.24648 -10.24647 -10.24421 -10.24420
 Alpha  occ. eigenvalues --  -10.24396  -3.17868  -1.92788  -1.92306  -1.92179
 Alpha  occ. eigenvalues --   -1.16478  -1.15034  -1.09560  -1.08231  -1.06603
 Alpha  occ. eigenvalues --   -1.06497  -1.05601  -1.04565  -1.03631  -1.02675
 Alpha  occ. eigenvalues --   -0.93442  -0.90624  -0.89687  -0.89405  -0.88640
 Alpha  occ. eigenvalues --   -0.88510  -0.87588  -0.87095  -0.87092  -0.86938
 Alpha  occ. eigenvalues --   -0.86260  -0.85422  -0.84311  -0.83789  -0.83073
 Alpha  occ. eigenvalues --   -0.82265  -0.81782  -0.81288  -0.80625  -0.80211
 Alpha  occ. eigenvalues --   -0.79453  -0.78503  -0.77996  -0.77209  -0.76644
 Alpha  occ. eigenvalues --   -0.76020  -0.75898  -0.75286  -0.74636  -0.73927
 Alpha  occ. eigenvalues --   -0.73480  -0.72627  -0.72023  -0.71118  -0.69114
 Alpha  occ. eigenvalues --   -0.68487  -0.68180  -0.67080  -0.66442  -0.65635
 Alpha  occ. eigenvalues --   -0.65495  -0.65329  -0.64589  -0.64452  -0.64285
 Alpha  occ. eigenvalues --   -0.63837  -0.63558  -0.62824  -0.61316  -0.60842
 Alpha  occ. eigenvalues --   -0.60405  -0.59988  -0.59311  -0.58749  -0.58193
 Alpha  occ. eigenvalues --   -0.57787  -0.56553  -0.56121  -0.55879  -0.55445
 Alpha  occ. eigenvalues --   -0.55263  -0.54841  -0.54164  -0.53851  -0.53702
 Alpha  occ. eigenvalues --   -0.53365  -0.53005  -0.52895  -0.52787  -0.52433
 Alpha  occ. eigenvalues --   -0.52323  -0.52265  -0.52227  -0.51848  -0.51706
 Alpha  occ. eigenvalues --   -0.51496  -0.51242  -0.51203  -0.50981  -0.50688
 Alpha  occ. eigenvalues --   -0.50612  -0.50570  -0.50284  -0.49815  -0.49518
 Alpha  occ. eigenvalues --   -0.49367  -0.49236  -0.49040  -0.48660  -0.48585
 Alpha  occ. eigenvalues --   -0.48193  -0.48153  -0.47981  -0.47853  -0.47553
 Alpha  occ. eigenvalues --   -0.47378  -0.47239  -0.47010  -0.46856  -0.46563
 Alpha  occ. eigenvalues --   -0.46387  -0.46281  -0.46227  -0.45981  -0.45929
 Alpha  occ. eigenvalues --   -0.45592  -0.45434  -0.45139  -0.44973  -0.44844
 Alpha  occ. eigenvalues --   -0.44664  -0.44531  -0.44259  -0.44244  -0.44214
 Alpha  occ. eigenvalues --   -0.44054  -0.43796  -0.43736  -0.43587  -0.43552
 Alpha  occ. eigenvalues --   -0.43203  -0.43162  -0.42822  -0.42290  -0.42010
 Alpha  occ. eigenvalues --   -0.41929  -0.41794  -0.41564  -0.41294  -0.41101
 Alpha  occ. eigenvalues --   -0.40972  -0.40764  -0.40288  -0.40131  -0.39867
 Alpha  occ. eigenvalues --   -0.39715  -0.39516  -0.39259  -0.39079  -0.38594
 Alpha  occ. eigenvalues --   -0.38472  -0.38437  -0.38090  -0.37788  -0.37744
 Alpha  occ. eigenvalues --   -0.37244  -0.37211  -0.37018  -0.36910  -0.36620
 Alpha  occ. eigenvalues --   -0.36106  -0.35440  -0.34681  -0.34280  -0.34094
 Alpha  occ. eigenvalues --   -0.34033  -0.33680  -0.33157  -0.31253  -0.31239
 Alpha  occ. eigenvalues --   -0.31121  -0.31005  -0.30193  -0.30067  -0.23873
 Alpha  occ. eigenvalues --   -0.21196
 Alpha virt. eigenvalues --   -0.08548  -0.01799  -0.00010   0.02270   0.02560
 Alpha virt. eigenvalues --    0.02927   0.05212   0.05362   0.06503   0.06815
 Alpha virt. eigenvalues --    0.07615   0.08474   0.08878   0.09137   0.09262

 Mulliken charges:
               1
     1  Mg   0.812314
     2  C   -0.074526
     3  C   -0.058895
     4  C   -0.048957
     5  C   -0.095074
     6  N   -0.286984
     7  C   -0.000253
     8  C   -0.073713
     9  C   -0.061382
    10  C    0.073657
    11  C    0.063554
    12  C    0.064287
    13  C    0.085960
    14  C    0.174620
    15  O   -0.268979
    16  O   -0.336195
    17  N   -0.352825
    18  C    0.090698
    19  C   -0.157886
    20  C   -0.044725
    21  C    0.100254
    22  C    0.108442
    23  C    0.033465
    24  O   -0.220317
    25  C    0.070291
    26  N   -0.263538
    27  C    0.011870
    28  C   -0.016239
    29  C   -0.070743
    30  C    0.090049
    31  C    0.065435
    32  C    0.016555
    33  C    0.018687
    34  N   -0.299322
    35  C    0.080717
    36  C   -0.145578
    37  C   -0.015544
    38  C    0.162919
    39  C    0.124099
    40  C    0.057720
    41  O   -0.191923
    42  C    0.020161
    43  C    0.184486
    44  O   -0.170863
    45  O   -0.387941
    46  C    0.163016
    47  C    0.271387
    48  C   -0.125075
    49  C   -0.094204
    50  C    0.059249
    51  C   -0.002266
    52  C    0.000768
    53  C    0.062845
    54  C   -0.104871
    55  C    0.049534
    56  C    0.046951
    57  C   -0.002723
    58  C    0.062300
    59  C   -0.127282
    60  C    0.027976
    61  C    0.039034
    62  C    0.002413
    63  C   -0.000588
    64  C   -0.131341
    65  C    0.062088
    66  C    0.055034
    67  H   -0.032823
    68  H   -0.011412
    69  H   -0.026540
    70  H    0.037656
    71  H    0.008010
    72  H    0.023111
    73  H    0.018376
    74  H    0.017517
    75  H    0.009655
    76  H    0.011685
    77  H    0.028917
    78  H    0.035225
    79  H    0.018973
    80  H    0.030323
    81  H    0.026388
    82  H    0.033311
    83  H    0.005448
    84  H    0.050376
    85  H    0.010988
    86  H    0.010871
    87  H    0.012193
    88  H    0.028818
    89  H    0.024227
    90  H    0.014715
    91  H   -0.003649
    92  H    0.015352
    93  H    0.026251
    94  H    0.004690
    95  H    0.001473
    96  H    0.042720
    97  H    0.041070
    98  H    0.036917
    99  H    0.039210
   100  H    0.051460
   101  H    0.045912
   102  H    0.026755
   103  H    0.028287
   104  H   -0.000106
   105  H   -0.002563
   106  H    0.031030
   107  H    0.033127
   108  H    0.024603
   109  H    0.015480
   110  H   -0.000903
   111  H   -0.004374
   112  H   -0.010040
   113  H    0.001285
   114  H    0.000234
   115  H    0.018460
   116  H   -0.012989
   117  H    0.004409
   118  H   -0.003671
   119  H   -0.011202
   120  H   -0.005693
   121  H   -0.007016
   122  H   -0.018901
   123  H   -0.004733
   124  H   -0.004362
   125  H   -0.000683
   126  H    0.015468
   127  H    0.007946
   128  H   -0.008001
   129  H   -0.010014
   130  H   -0.004914
   131  H    0.011059
   132  H   -0.018351
   133  H    0.002569
   134  H   -0.004917
   135  H    0.018696
   136  H   -0.000240
   137  H    0.007120
   138  H    0.005318
   139  H    0.005723
   140  H    0.006609
 Sum of Mulliken charges =  -0.00000

 Dipole moment (field-independent basis, Debye):
    X=              5.2112    Y=              2.6373    Z=             -1.7388  Tot=              6.0938
 Quadrupole moment (field-independent basis, Debye-Ang):
   XX=           -401.1843   YY=           -436.0271   ZZ=           -404.5726
   XY=            -40.0465   XZ=              9.6211   YZ=              9.2090

 Normal termination of Gaussian 16 at Wed May  4 23:44:57 2022.
