 Gaussian 16, Revision A.03,
 Gaussian 16:  ES64L-G16RevA.03 25-Dec-2016

 ---------------------------------
 #p PBE1PBE/Def2SVP td=(nstates=5)
 ---------------------------------

 -----------------------------------------------------
 step_501_chromophore_21 TDDFT with PBE1PBE functional
 -----------------------------------------------------
 Symbolic Z-matrix:
 Charge =  0 Multiplicity = 1

                         Standard orientation:
 ---------------------------------------------------------------------
 Center     Atomic      Atomic             Coordinates (Angstroms)
 Number     Number       Type             X           Y           Z
 ---------------------------------------------------------------------
      1         12           0       -5.039726    1.226404   -0.077763
      2          6           0       -5.096998   -2.172797    0.037360
      3          6           0       -1.622755    1.246582    0.323230
      4          6           0       -5.159045    4.609320   -0.028692
      5          6           0       -8.572989    1.175462   -0.005538
      6          7           0       -3.552930   -0.302007    0.377848
      7          6           0       -3.781593   -1.600394    0.044751
      8          6           0       -2.533885   -2.402126   -0.110066
      9          6           0       -1.441272   -1.269139    0.255395
     10          6           0       -2.236612   -0.007160    0.328790
     11          6           0       -0.677583   -1.567693    1.624217
     12          6           0       -2.415970   -2.885211   -1.630449
     13          6           0       -1.549224   -4.114787   -1.910642
     14          6           0       -0.547073   -4.727215   -0.900629
     15          8           0       -0.648916   -5.730741   -0.137861
     16          8           0        0.671617   -4.095904   -0.983027
     17          7           0       -3.619090    2.758497    0.016482
     18          6           0       -2.244325    2.543666    0.207158
     19          6           0       -1.618305    3.844150    0.266662
     20          6           0       -2.623967    4.823386    0.135886
     21          6           0       -3.850570    4.052720   -0.014903
     22          6           0       -0.083201    3.987788    0.387645
     23          6           0       -2.457905    6.429218    0.237612
     24          8           0       -3.376114    7.214184   -0.031063
     25          6           0       -1.169002    7.132245    0.630314
     26          7           0       -6.696318    2.694539   -0.094043
     27          6           0       -6.433226    4.021602   -0.028668
     28          6           0       -7.701321    4.829356    0.242626
     29          6           0       -8.866527    3.729193   -0.086645
     30          6           0       -8.035962    2.439546   -0.179316
     31          6           0       -7.774024    5.572265    1.654510
     32          6           0       -9.607534    3.872088   -1.511445
     33          6           0      -11.123360    3.844897   -1.579871
     34          7           0       -6.600601   -0.161350   -0.052261
     35          6           0       -7.941053   -0.064435   -0.012116
     36          6           0       -8.550450   -1.428688   -0.096157
     37          6           0       -7.411635   -2.267843   -0.133387
     38          6           0       -6.281372   -1.429038    0.024301
     39          6           0       -9.971923   -1.860593   -0.176322
     40          6           0       -7.077641   -3.640388   -0.213477
     41          8           0       -7.812194   -4.646030   -0.297682
     42          6           0       -5.555135   -3.647273   -0.101933
     43          6           0       -5.176771   -4.407322    1.067402
     44          8           0       -5.494487   -4.289115    2.209420
     45          8           0       -4.211569   -5.315555    0.642730
     46          6           0       -3.515740   -6.260034    1.598323
     47          6           0        1.780241   -4.611741   -0.185818
     48          6           0        2.990049   -3.682382   -0.457032
     49          6           0        4.255802   -4.010880   -0.521907
     50          6           0        4.763066   -5.415150   -0.093415
     51          6           0        5.251153   -2.844649   -0.638753
     52          6           0        6.717503   -3.154703   -1.069374
     53          6           0        7.557414   -1.866744   -1.261840
     54          6           0        8.766685   -1.754239   -0.184086
     55          6           0        8.235906   -1.339232    1.175329
     56          6           0        9.936304   -0.798492   -0.622544
     57          6           0       11.396741   -1.404236   -0.372100
     58          6           0       11.973668   -0.958865    0.993320
     59          6           0       13.102402    0.078534    0.900917
     60          6           0       14.259244   -0.223031    2.017738
     61          6           0       12.539098    1.552066    0.893599
     62          6           0       12.688230    2.160971   -0.547965
     63          6           0       14.172993    2.711650   -0.648383
     64          6           0       14.282576    4.247048   -0.784344
     65          6           0       15.455436    4.607508   -1.777580
     66          6           0       14.295707    4.783229    0.623417
     67          1           0       -0.539043    1.328837    0.220917
     68          1           0       -5.194225    5.695142    0.084878
     69          1           0       -9.638413    1.079352    0.210988
     70          1           0       -2.348946   -3.292945    0.489891
     71          1           0       -0.687645   -1.178545   -0.526848
     72          1           0        0.373899   -1.283011    1.654333
     73          1           0       -0.855463   -2.603619    1.912457
     74          1           0       -1.164070   -0.954995    2.383884
     75          1           0       -2.047786   -2.087501   -2.275878
     76          1           0       -3.439493   -3.100984   -1.937999
     77          1           0       -1.005571   -3.884399   -2.827740
     78          1           0       -2.201094   -4.937135   -2.202981
     79          1           0        0.458863    3.042434    0.367709
     80          1           0        0.104971    4.530806    1.313242
     81          1           0        0.241871    4.629084   -0.431929
     82          1           0       -0.497805    6.955486   -0.209319
     83          1           0       -0.621826    6.598440    1.407585
     84          1           0       -1.379398    8.136647    0.997185
     85          1           0       -7.771267    5.599820   -0.526151
     86          1           0       -9.632462    3.728486    0.689132
     87          1           0       -8.643714    5.249795    2.227495
     88          1           0       -7.795088    6.651637    1.508516
     89          1           0       -6.919345    5.301975    2.275103
     90          1           0       -9.221208    3.161724   -2.242213
     91          1           0       -9.281159    4.826410   -1.923683
     92          1           0      -11.386198    3.036380   -2.261124
     93          1           0      -11.552714    4.795194   -1.895972
     94          1           0      -11.528835    3.554139   -0.609761
     95          1           0      -10.695285   -1.048423   -0.246723
     96          1           0      -10.252388   -2.439898    0.703746
     97          1           0      -10.087605   -2.493602   -1.055877
     98          1           0       -5.079750   -4.089512   -0.977937
     99          1           0       -3.842466   -6.073474    2.621561
    100          1           0       -2.441505   -6.071350    1.580798
    101          1           0       -3.786782   -7.261075    1.262938
    102          1           0        1.983922   -5.661778   -0.393158
    103          1           0        1.600225   -4.609617    0.889512
    104          1           0        2.605428   -2.688570   -0.686096
    105          1           0        3.970564   -6.155024    0.024713
    106          1           0        5.139183   -5.469756    0.928221
    107          1           0        5.477200   -5.755068   -0.844027
    108          1           0        5.262341   -2.334493    0.324032
    109          1           0        5.023366   -2.111338   -1.411996
    110          1           0        6.735998   -3.769772   -1.969779
    111          1           0        7.075381   -3.884739   -0.343706
    112          1           0        6.879614   -1.042028   -1.041367
    113          1           0        7.922549   -1.673730   -2.270522
    114          1           0        9.121794   -2.764293    0.018253
    115          1           0        8.838928   -1.795745    1.960363
    116          1           0        7.204776   -1.674135    1.287072
    117          1           0        8.179451   -0.253453    1.242971
    118          1           0        9.903209    0.162225   -0.108428
    119          1           0       10.038990   -0.531315   -1.673820
    120          1           0       12.006832   -1.172732   -1.245338
    121          1           0       11.370798   -2.492455   -0.411627
    122          1           0       12.423316   -1.785532    1.543245
    123          1           0       11.192706   -0.605588    1.666185
    124          1           0       13.536709   -0.100029   -0.083548
    125          1           0       14.803110    0.698137    2.225633
    126          1           0       14.987629   -0.970697    1.704976
    127          1           0       13.863984   -0.504117    2.993514
    128          1           0       13.099695    2.171892    1.593618
    129          1           0       11.490443    1.589393    1.189739
    130          1           0       12.005478    3.008947   -0.504916
    131          1           0       12.407754    1.464148   -1.337944
    132          1           0       14.519933    2.160431   -1.523309
    133          1           0       14.833034    2.309096    0.120180
    134          1           0       13.349463    4.634832   -1.191605
    135          1           0       16.022821    3.722245   -2.065555
    136          1           0       16.042482    5.378229   -1.278143
    137          1           0       15.050342    5.066090   -2.679238
    138          1           0       14.053705    5.838986    0.501478
    139          1           0       15.232256    4.670160    1.169552
    140          1           0       13.550503    4.222497    1.186835
 ---------------------------------------------------------------------

 SCF Done:  E(RPBE1PBE) =  -3005.35625938     A.U. after   15 cycles

 Excitation energies and oscillator strengths:

 Excited State   1:      Singlet-A      1.8951 eV  654.25 nm  f=0.3748  <S**2>=0.000
     245 -> 248       -0.18568
     246 -> 247        0.68933
     246 <- 247       -0.10107
 This state for optimization and/or second-order correction.
 Total Energy, E(TD-HF/TD-DFT) =  -3005.28661677
 Copying the excited state density for this state as the 1-particle RhoCI density.

 Excited State   2:      Singlet-A      2.2343 eV  554.91 nm  f=0.1051  <S**2>=0.000
     245 -> 247        0.65068
     246 -> 248        0.26723

 Excited State   3:      Singlet-A      2.9836 eV  415.56 nm  f=0.0005  <S**2>=0.000
     241 -> 247       -0.15551
     242 -> 247       -0.24686
     242 -> 249        0.10692
     243 -> 247        0.11571
     244 -> 247        0.58389
     244 -> 249       -0.15060

 Excited State   4:      Singlet-A      3.1983 eV  387.66 nm  f=0.0015  <S**2>=0.000
     241 -> 247       -0.13193
     243 -> 247        0.65481
     244 -> 247       -0.15945

 Excited State   5:      Singlet-A      3.2563 eV  380.75 nm  f=0.0069  <S**2>=0.000
     241 -> 247       -0.25474
     242 -> 247        0.58234
     244 -> 247        0.20711
     246 -> 248       -0.11834

 The electronic state is 1-A.
 Alpha  occ. eigenvalues --  -46.92832 -19.26586 -19.23560 -19.21048 -19.19540
 Alpha  occ. eigenvalues --  -19.19214 -19.18867 -14.42098 -14.41182 -14.39281
 Alpha  occ. eigenvalues --  -14.38983 -10.38184 -10.35071 -10.33540 -10.31430
 Alpha  occ. eigenvalues --  -10.29963 -10.29527 -10.28525 -10.28376 -10.28035
 Alpha  occ. eigenvalues --  -10.27771 -10.27631 -10.27542 -10.27534 -10.26550
 Alpha  occ. eigenvalues --  -10.26386 -10.26333 -10.26157 -10.26148 -10.26086
 Alpha  occ. eigenvalues --  -10.26051 -10.25993 -10.25860 -10.25836 -10.25393
 Alpha  occ. eigenvalues --  -10.25391 -10.25241 -10.25153 -10.24959 -10.24275
 Alpha  occ. eigenvalues --  -10.24156 -10.24055 -10.24005 -10.23934 -10.23785
 Alpha  occ. eigenvalues --  -10.23753 -10.23682 -10.23608 -10.23603 -10.23570
 Alpha  occ. eigenvalues --  -10.23553 -10.23518 -10.23341 -10.23244 -10.22907
 Alpha  occ. eigenvalues --  -10.22792 -10.22761 -10.22745 -10.22416 -10.22364
 Alpha  occ. eigenvalues --  -10.22361 -10.22040 -10.22035 -10.22016 -10.21979
 Alpha  occ. eigenvalues --  -10.21770  -3.14824  -1.87685  -1.87181  -1.87057
 Alpha  occ. eigenvalues --   -1.11299  -1.09717  -1.04365  -1.02866  -1.01447
 Alpha  occ. eigenvalues --   -1.01298  -1.00227  -0.99198  -0.98349  -0.97320
 Alpha  occ. eigenvalues --   -0.87756  -0.84791  -0.83859  -0.83481  -0.82975
 Alpha  occ. eigenvalues --   -0.82615  -0.81909  -0.81361  -0.81217  -0.81207
 Alpha  occ. eigenvalues --   -0.80555  -0.79683  -0.78534  -0.78063  -0.77353
 Alpha  occ. eigenvalues --   -0.76451  -0.76015  -0.75497  -0.74903  -0.74568
 Alpha  occ. eigenvalues --   -0.73589  -0.72812  -0.72274  -0.71532  -0.70830
 Alpha  occ. eigenvalues --   -0.70167  -0.70105  -0.69622  -0.68769  -0.68121
 Alpha  occ. eigenvalues --   -0.67732  -0.67048  -0.66461  -0.65442  -0.63573
 Alpha  occ. eigenvalues --   -0.62843  -0.62438  -0.61486  -0.60711  -0.60146
 Alpha  occ. eigenvalues --   -0.59742  -0.59704  -0.59128  -0.59013  -0.58801
 Alpha  occ. eigenvalues --   -0.58007  -0.57705  -0.56981  -0.55790  -0.55291
 Alpha  occ. eigenvalues --   -0.55017  -0.54501  -0.53927  -0.53353  -0.52600
 Alpha  occ. eigenvalues --   -0.52317  -0.51105  -0.50729  -0.50310  -0.50047
 Alpha  occ. eigenvalues --   -0.49767  -0.49399  -0.48535  -0.48370  -0.48204
 Alpha  occ. eigenvalues --   -0.47764  -0.47680  -0.47393  -0.47324  -0.46951
 Alpha  occ. eigenvalues --   -0.46874  -0.46726  -0.46671  -0.46363  -0.46255
 Alpha  occ. eigenvalues --   -0.46129  -0.45738  -0.45672  -0.45485  -0.45240
 Alpha  occ. eigenvalues --   -0.45180  -0.45126  -0.44884  -0.44473  -0.44123
 Alpha  occ. eigenvalues --   -0.43925  -0.43874  -0.43610  -0.43221  -0.43157
 Alpha  occ. eigenvalues --   -0.42813  -0.42788  -0.42639  -0.42481  -0.42243
 Alpha  occ. eigenvalues --   -0.42000  -0.41899  -0.41703  -0.41519  -0.41213
 Alpha  occ. eigenvalues --   -0.41162  -0.40956  -0.40809  -0.40570  -0.40527
 Alpha  occ. eigenvalues --   -0.40339  -0.40164  -0.39835  -0.39609  -0.39549
 Alpha  occ. eigenvalues --   -0.39411  -0.39254  -0.39066  -0.38936  -0.38865
 Alpha  occ. eigenvalues --   -0.38829  -0.38588  -0.38507  -0.38342  -0.38327
 Alpha  occ. eigenvalues --   -0.38064  -0.37965  -0.37639  -0.37054  -0.36842
 Alpha  occ. eigenvalues --   -0.36790  -0.36611  -0.36393  -0.36161  -0.35959
 Alpha  occ. eigenvalues --   -0.35768  -0.35633  -0.35159  -0.34962  -0.34699
 Alpha  occ. eigenvalues --   -0.34690  -0.34365  -0.34136  -0.34031  -0.33436
 Alpha  occ. eigenvalues --   -0.33376  -0.33311  -0.32857  -0.32790  -0.32540
 Alpha  occ. eigenvalues --   -0.32216  -0.32049  -0.31978  -0.31925  -0.31689
 Alpha  occ. eigenvalues --   -0.30952  -0.30331  -0.29501  -0.29429  -0.29132
 Alpha  occ. eigenvalues --   -0.29080  -0.28630  -0.28467  -0.26840  -0.26498
 Alpha  occ. eigenvalues --   -0.26106  -0.25995  -0.25715  -0.25425  -0.20827
 Alpha  occ. eigenvalues --   -0.18832
 Alpha virt. eigenvalues --   -0.11031  -0.05290  -0.04205  -0.02159  -0.01875
 Alpha virt. eigenvalues --    0.00053   0.00914   0.01241   0.02008   0.02900
 Alpha virt. eigenvalues --    0.03578   0.04481   0.05014   0.05791   0.05931

 Mulliken charges:
               1
     1  Mg   0.958481
     2  C   -0.064447
     3  C   -0.045412
     4  C   -0.039693
     5  C   -0.080310
     6  N   -0.390100
     7  C    0.055758
     8  C   -0.147246
     9  C   -0.131819
    10  C    0.100584
    11  C    0.008120
    12  C    0.017130
    13  C    0.018149
    14  C    0.231919
    15  O   -0.302342
    16  O   -0.365758
    17  N   -0.473873
    18  C    0.119448
    19  C   -0.190504
    20  C   -0.086143
    21  C    0.131340
    22  C    0.048764
    23  C    0.079558
    24  O   -0.253215
    25  C   -0.002367
    26  N   -0.365619
    27  C    0.046277
    28  C   -0.084032
    29  C   -0.149457
    30  C    0.121119
    31  C    0.005886
    32  C   -0.032852
    33  C   -0.054687
    34  N   -0.430627
    35  C    0.098128
    36  C   -0.160854
    37  C   -0.058754
    38  C    0.207914
    39  C    0.072527
    40  C    0.145072
    41  O   -0.240346
    42  C   -0.096955
    43  C    0.286394
    44  O   -0.210027
    45  O   -0.420008
    46  C    0.109445
    47  C    0.233555
    48  C   -0.137662
    49  C   -0.137269
    50  C   -0.004213
    51  C   -0.067341
    52  C   -0.059326
    53  C    0.004652
    54  C   -0.187033
    55  C   -0.012924
    56  C   -0.010524
    57  C   -0.062252
    58  C    0.007174
    59  C   -0.206805
    60  C   -0.034890
    61  C   -0.015546
    62  C   -0.064894
    63  C   -0.056987
    64  C   -0.220455
    65  C   -0.000503
    66  C   -0.010181
    67  H    0.000101
    68  H    0.021084
    69  H    0.006271
    70  H    0.077464
    71  H    0.044295
    72  H    0.049296
    73  H    0.045748
    74  H    0.045949
    75  H    0.040495
    76  H    0.047129
    77  H    0.060676
    78  H    0.066382
    79  H    0.045903
    80  H    0.058790
    81  H    0.055220
    82  H    0.060757
    83  H    0.033501
    84  H    0.076336
    85  H    0.047858
    86  H    0.045895
    87  H    0.039943
    88  H    0.055229
    89  H    0.052201
    90  H    0.046661
    91  H    0.029341
    92  H    0.043221
    93  H    0.053222
    94  H    0.032081
    95  H    0.027816
    96  H    0.069275
    97  H    0.067381
    98  H    0.075486
    99  H    0.059759
   100  H    0.073777
   101  H    0.067474
   102  H    0.052758
   103  H    0.055251
   104  H    0.029263
   105  H    0.024782
   106  H    0.057972
   107  H    0.060213
   108  H    0.058020
   109  H    0.048095
   110  H    0.032678
   111  H    0.027865
   112  H    0.023581
   113  H    0.032968
   114  H    0.037558
   115  H    0.045913
   116  H    0.019015
   117  H    0.031493
   118  H    0.030841
   119  H    0.020478
   120  H    0.024210
   121  H    0.025696
   122  H    0.015318
   123  H    0.028933
   124  H    0.034675
   125  H    0.026207
   126  H    0.043001
   127  H    0.035399
   128  H    0.025059
   129  H    0.020851
   130  H    0.028463
   131  H    0.043722
   132  H    0.015135
   133  H    0.036733
   134  H    0.032521
   135  H    0.044879
   136  H    0.027833
   137  H    0.034840
   138  H    0.034015
   139  H    0.033434
   140  H    0.037178
 Sum of Mulliken charges =  -0.00000

 Dipole moment (field-independent basis, Debye):
    X=              5.3271    Y=              2.8144    Z=             -1.7067  Tot=              6.2619
 Quadrupole moment (field-independent basis, Debye-Ang):
   XX=           -397.0004   YY=           -432.3991   ZZ=           -402.2556
   XY=            -41.9453   XZ=              9.8233   YZ=              9.1199

 Normal termination of Gaussian 16 at Thu May  5 00:15:48 2022.
