 Gaussian 16, Revision A.03,
 Gaussian 16:  ES64L-G16RevA.03 25-Dec-2016

 --------------------------------
 #p wB97XD/Def2SVP td=(nstates=5)
 --------------------------------

 ----------------------------------------------------
 step_501_chromophore_21 TDDFT with wB97XD functional
 ----------------------------------------------------
 Symbolic Z-matrix:
 Charge =  0 Multiplicity = 1

                         Standard orientation:
 ---------------------------------------------------------------------
 Center     Atomic      Atomic             Coordinates (Angstroms)
 Number     Number       Type             X           Y           Z
 ---------------------------------------------------------------------
      1         12           0       -5.039726    1.226404   -0.077763
      2          6           0       -5.096998   -2.172797    0.037360
      3          6           0       -1.622755    1.246582    0.323230
      4          6           0       -5.159045    4.609320   -0.028692
      5          6           0       -8.572989    1.175462   -0.005538
      6          7           0       -3.552930   -0.302007    0.377848
      7          6           0       -3.781593   -1.600394    0.044751
      8          6           0       -2.533885   -2.402126   -0.110066
      9          6           0       -1.441272   -1.269139    0.255395
     10          6           0       -2.236612   -0.007160    0.328790
     11          6           0       -0.677583   -1.567693    1.624217
     12          6           0       -2.415970   -2.885211   -1.630449
     13          6           0       -1.549224   -4.114787   -1.910642
     14          6           0       -0.547073   -4.727215   -0.900629
     15          8           0       -0.648916   -5.730741   -0.137861
     16          8           0        0.671617   -4.095904   -0.983027
     17          7           0       -3.619090    2.758497    0.016482
     18          6           0       -2.244325    2.543666    0.207158
     19          6           0       -1.618305    3.844150    0.266662
     20          6           0       -2.623967    4.823386    0.135886
     21          6           0       -3.850570    4.052720   -0.014903
     22          6           0       -0.083201    3.987788    0.387645
     23          6           0       -2.457905    6.429218    0.237612
     24          8           0       -3.376114    7.214184   -0.031063
     25          6           0       -1.169002    7.132245    0.630314
     26          7           0       -6.696318    2.694539   -0.094043
     27          6           0       -6.433226    4.021602   -0.028668
     28          6           0       -7.701321    4.829356    0.242626
     29          6           0       -8.866527    3.729193   -0.086645
     30          6           0       -8.035962    2.439546   -0.179316
     31          6           0       -7.774024    5.572265    1.654510
     32          6           0       -9.607534    3.872088   -1.511445
     33          6           0      -11.123360    3.844897   -1.579871
     34          7           0       -6.600601   -0.161350   -0.052261
     35          6           0       -7.941053   -0.064435   -0.012116
     36          6           0       -8.550450   -1.428688   -0.096157
     37          6           0       -7.411635   -2.267843   -0.133387
     38          6           0       -6.281372   -1.429038    0.024301
     39          6           0       -9.971923   -1.860593   -0.176322
     40          6           0       -7.077641   -3.640388   -0.213477
     41          8           0       -7.812194   -4.646030   -0.297682
     42          6           0       -5.555135   -3.647273   -0.101933
     43          6           0       -5.176771   -4.407322    1.067402
     44          8           0       -5.494487   -4.289115    2.209420
     45          8           0       -4.211569   -5.315555    0.642730
     46          6           0       -3.515740   -6.260034    1.598323
     47          6           0        1.780241   -4.611741   -0.185818
     48          6           0        2.990049   -3.682382   -0.457032
     49          6           0        4.255802   -4.010880   -0.521907
     50          6           0        4.763066   -5.415150   -0.093415
     51          6           0        5.251153   -2.844649   -0.638753
     52          6           0        6.717503   -3.154703   -1.069374
     53          6           0        7.557414   -1.866744   -1.261840
     54          6           0        8.766685   -1.754239   -0.184086
     55          6           0        8.235906   -1.339232    1.175329
     56          6           0        9.936304   -0.798492   -0.622544
     57          6           0       11.396741   -1.404236   -0.372100
     58          6           0       11.973668   -0.958865    0.993320
     59          6           0       13.102402    0.078534    0.900917
     60          6           0       14.259244   -0.223031    2.017738
     61          6           0       12.539098    1.552066    0.893599
     62          6           0       12.688230    2.160971   -0.547965
     63          6           0       14.172993    2.711650   -0.648383
     64          6           0       14.282576    4.247048   -0.784344
     65          6           0       15.455436    4.607508   -1.777580
     66          6           0       14.295707    4.783229    0.623417
     67          1           0       -0.539043    1.328837    0.220917
     68          1           0       -5.194225    5.695142    0.084878
     69          1           0       -9.638413    1.079352    0.210988
     70          1           0       -2.348946   -3.292945    0.489891
     71          1           0       -0.687645   -1.178545   -0.526848
     72          1           0        0.373899   -1.283011    1.654333
     73          1           0       -0.855463   -2.603619    1.912457
     74          1           0       -1.164070   -0.954995    2.383884
     75          1           0       -2.047786   -2.087501   -2.275878
     76          1           0       -3.439493   -3.100984   -1.937999
     77          1           0       -1.005571   -3.884399   -2.827740
     78          1           0       -2.201094   -4.937135   -2.202981
     79          1           0        0.458863    3.042434    0.367709
     80          1           0        0.104971    4.530806    1.313242
     81          1           0        0.241871    4.629084   -0.431929
     82          1           0       -0.497805    6.955486   -0.209319
     83          1           0       -0.621826    6.598440    1.407585
     84          1           0       -1.379398    8.136647    0.997185
     85          1           0       -7.771267    5.599820   -0.526151
     86          1           0       -9.632462    3.728486    0.689132
     87          1           0       -8.643714    5.249795    2.227495
     88          1           0       -7.795088    6.651637    1.508516
     89          1           0       -6.919345    5.301975    2.275103
     90          1           0       -9.221208    3.161724   -2.242213
     91          1           0       -9.281159    4.826410   -1.923683
     92          1           0      -11.386198    3.036380   -2.261124
     93          1           0      -11.552714    4.795194   -1.895972
     94          1           0      -11.528835    3.554139   -0.609761
     95          1           0      -10.695285   -1.048423   -0.246723
     96          1           0      -10.252388   -2.439898    0.703746
     97          1           0      -10.087605   -2.493602   -1.055877
     98          1           0       -5.079750   -4.089512   -0.977937
     99          1           0       -3.842466   -6.073474    2.621561
    100          1           0       -2.441505   -6.071350    1.580798
    101          1           0       -3.786782   -7.261075    1.262938
    102          1           0        1.983922   -5.661778   -0.393158
    103          1           0        1.600225   -4.609617    0.889512
    104          1           0        2.605428   -2.688570   -0.686096
    105          1           0        3.970564   -6.155024    0.024713
    106          1           0        5.139183   -5.469756    0.928221
    107          1           0        5.477200   -5.755068   -0.844027
    108          1           0        5.262341   -2.334493    0.324032
    109          1           0        5.023366   -2.111338   -1.411996
    110          1           0        6.735998   -3.769772   -1.969779
    111          1           0        7.075381   -3.884739   -0.343706
    112          1           0        6.879614   -1.042028   -1.041367
    113          1           0        7.922549   -1.673730   -2.270522
    114          1           0        9.121794   -2.764293    0.018253
    115          1           0        8.838928   -1.795745    1.960363
    116          1           0        7.204776   -1.674135    1.287072
    117          1           0        8.179451   -0.253453    1.242971
    118          1           0        9.903209    0.162225   -0.108428
    119          1           0       10.038990   -0.531315   -1.673820
    120          1           0       12.006832   -1.172732   -1.245338
    121          1           0       11.370798   -2.492455   -0.411627
    122          1           0       12.423316   -1.785532    1.543245
    123          1           0       11.192706   -0.605588    1.666185
    124          1           0       13.536709   -0.100029   -0.083548
    125          1           0       14.803110    0.698137    2.225633
    126          1           0       14.987629   -0.970697    1.704976
    127          1           0       13.863984   -0.504117    2.993514
    128          1           0       13.099695    2.171892    1.593618
    129          1           0       11.490443    1.589393    1.189739
    130          1           0       12.005478    3.008947   -0.504916
    131          1           0       12.407754    1.464148   -1.337944
    132          1           0       14.519933    2.160431   -1.523309
    133          1           0       14.833034    2.309096    0.120180
    134          1           0       13.349463    4.634832   -1.191605
    135          1           0       16.022821    3.722245   -2.065555
    136          1           0       16.042482    5.378229   -1.278143
    137          1           0       15.050342    5.066090   -2.679238
    138          1           0       14.053705    5.838986    0.501478
    139          1           0       15.232256    4.670160    1.169552
    140          1           0       13.550503    4.222497    1.186835
 ---------------------------------------------------------------------

 SCF Done:  E(RwB97XD) =  -3007.86926181     A.U. after   19 cycles

 Excitation energies and oscillator strengths:

 Excited State   1:      Singlet-A      1.6850 eV  735.81 nm  f=0.3830  <S**2>=0.000
     245 -> 248       -0.19775
     246 -> 247        0.68043
     245 <- 248       -0.11872
 This state for optimization and/or second-order correction.
 Total Energy, E(TD-HF/TD-DFT) =  -3007.80733939
 Copying the excited state density for this state as the 1-particle RhoCI density.

 Excited State   2:      Singlet-A      2.1729 eV  570.59 nm  f=0.1026  <S**2>=0.000
     245 -> 247        0.63610
     246 -> 248        0.29895

 Excited State   3:      Singlet-A      3.4322 eV  361.24 nm  f=0.0010  <S**2>=0.000
     239 -> 247       -0.14973
     239 -> 249        0.10662
     241 -> 247        0.36928
     241 -> 249       -0.30552
     241 -> 250       -0.13076
     243 -> 247       -0.26250
     243 -> 249        0.14498
     244 -> 247       -0.27802
     244 -> 249        0.10723

 Excited State   4:      Singlet-A      3.5352 eV  350.72 nm  f=0.6293  <S**2>=0.000
     241 -> 247       -0.19041
     243 -> 247       -0.12750
     244 -> 247       -0.10688
     245 -> 247       -0.26091
     246 -> 248        0.59523
     245 <- 247        0.11169

 Excited State   5:      Singlet-A      3.5975 eV  344.64 nm  f=0.0273  <S**2>=0.000
     241 -> 247        0.16513
     241 -> 249       -0.10351
     243 -> 247       -0.21849
     244 -> 247        0.60830
     246 -> 248        0.10768

 The electronic state is 1-A.
 Alpha  occ. eigenvalues --  -46.95796 -19.31126 -19.28158 -19.25705 -19.24254
 Alpha  occ. eigenvalues --  -19.24020 -19.23823 -14.47155 -14.46320 -14.44187
 Alpha  occ. eigenvalues --  -14.44013 -10.44966 -10.41979 -10.40265 -10.38443
 Alpha  occ. eigenvalues --  -10.36434 -10.35933 -10.34749 -10.34714 -10.34253
 Alpha  occ. eigenvalues --  -10.34093 -10.34072 -10.33946 -10.33777 -10.33061
 Alpha  occ. eigenvalues --  -10.32826 -10.32811 -10.32594 -10.32389 -10.32370
 Alpha  occ. eigenvalues --  -10.32359 -10.32345 -10.32046 -10.32037 -10.31878
 Alpha  occ. eigenvalues --  -10.31647 -10.31564 -10.31483 -10.31373 -10.30717
 Alpha  occ. eigenvalues --  -10.30565 -10.30503 -10.30440 -10.30317 -10.30099
 Alpha  occ. eigenvalues --  -10.30090 -10.30073 -10.29998 -10.29955 -10.29948
 Alpha  occ. eigenvalues --  -10.29939 -10.29912 -10.29722 -10.29524 -10.29260
 Alpha  occ. eigenvalues --  -10.29181 -10.29119 -10.29086 -10.28831 -10.28786
 Alpha  occ. eigenvalues --  -10.28769 -10.28491 -10.28455 -10.28350 -10.28348
 Alpha  occ. eigenvalues --  -10.28211  -3.21650  -1.95259  -1.94753  -1.94631
 Alpha  occ. eigenvalues --   -1.18666  -1.17188  -1.11762  -1.10499  -1.08804
 Alpha  occ. eigenvalues --   -1.08714  -1.07657  -1.06580  -1.05642  -1.04694
 Alpha  occ. eigenvalues --   -0.95461  -0.92461  -0.91528  -0.91162  -0.90570
 Alpha  occ. eigenvalues --   -0.90290  -0.89510  -0.89017  -0.88880  -0.88822
 Alpha  occ. eigenvalues --   -0.88197  -0.87306  -0.86185  -0.85709  -0.84963
 Alpha  occ. eigenvalues --   -0.84103  -0.83691  -0.83200  -0.82541  -0.82175
 Alpha  occ. eigenvalues --   -0.81272  -0.80461  -0.79902  -0.79129  -0.78509
 Alpha  occ. eigenvalues --   -0.77845  -0.77805  -0.77204  -0.76461  -0.75778
 Alpha  occ. eigenvalues --   -0.75369  -0.74631  -0.73986  -0.73055  -0.71142
 Alpha  occ. eigenvalues --   -0.70399  -0.70067  -0.69022  -0.68333  -0.67625
 Alpha  occ. eigenvalues --   -0.67355  -0.67256  -0.66579  -0.66446  -0.66261
 Alpha  occ. eigenvalues --   -0.65673  -0.65375  -0.64639  -0.63332  -0.62797
 Alpha  occ. eigenvalues --   -0.62399  -0.61949  -0.61306  -0.60761  -0.60149
 Alpha  occ. eigenvalues --   -0.59769  -0.58513  -0.58094  -0.57779  -0.57428
 Alpha  occ. eigenvalues --   -0.57206  -0.56794  -0.56037  -0.55780  -0.55637
 Alpha  occ. eigenvalues --   -0.55229  -0.54935  -0.54806  -0.54713  -0.54306
 Alpha  occ. eigenvalues --   -0.54232  -0.54135  -0.54126  -0.53808  -0.53585
 Alpha  occ. eigenvalues --   -0.53416  -0.53173  -0.53118  -0.52851  -0.52570
 Alpha  occ. eigenvalues --   -0.52544  -0.52510  -0.52193  -0.51731  -0.51414
 Alpha  occ. eigenvalues --   -0.51296  -0.51170  -0.50940  -0.50580  -0.50508
 Alpha  occ. eigenvalues --   -0.50110  -0.50070  -0.49906  -0.49763  -0.49488
 Alpha  occ. eigenvalues --   -0.49320  -0.49140  -0.48927  -0.48783  -0.48450
 Alpha  occ. eigenvalues --   -0.48305  -0.48172  -0.48086  -0.47853  -0.47804
 Alpha  occ. eigenvalues --   -0.47516  -0.47345  -0.47069  -0.46822  -0.46763
 Alpha  occ. eigenvalues --   -0.46582  -0.46439  -0.46158  -0.46118  -0.46086
 Alpha  occ. eigenvalues --   -0.45991  -0.45714  -0.45641  -0.45494  -0.45484
 Alpha  occ. eigenvalues --   -0.45101  -0.45086  -0.44732  -0.44168  -0.43992
 Alpha  occ. eigenvalues --   -0.43842  -0.43723  -0.43491  -0.43295  -0.42971
 Alpha  occ. eigenvalues --   -0.42825  -0.42682  -0.42207  -0.42082  -0.41746
 Alpha  occ. eigenvalues --   -0.41648  -0.41397  -0.41134  -0.40989  -0.40435
 Alpha  occ. eigenvalues --   -0.40350  -0.40316  -0.39921  -0.39719  -0.39588
 Alpha  occ. eigenvalues --   -0.39260  -0.39057  -0.38966  -0.38894  -0.38634
 Alpha  occ. eigenvalues --   -0.37950  -0.37462  -0.36592  -0.36271  -0.36047
 Alpha  occ. eigenvalues --   -0.35949  -0.35517  -0.35370  -0.33414  -0.33289
 Alpha  occ. eigenvalues --   -0.33068  -0.33064  -0.32368  -0.32253  -0.25791
 Alpha  occ. eigenvalues --   -0.23002
 Alpha virt. eigenvalues --   -0.06894   0.00092   0.02035   0.04407   0.04909
 Alpha virt. eigenvalues --    0.05877   0.07636   0.07871   0.08754   0.09395
 Alpha virt. eigenvalues --    0.10110   0.11339   0.11808   0.12581   0.12670

 Mulliken charges:
               1
     1  Mg   0.950959
     2  C   -0.080846
     3  C   -0.064848
     4  C   -0.054753
     5  C   -0.099487
     6  N   -0.357321
     7  C    0.037183
     8  C   -0.116429
     9  C   -0.110773
    10  C    0.090668
    11  C    0.019471
    12  C    0.026964
    13  C    0.032526
    14  C    0.219494
    15  O   -0.298376
    16  O   -0.363824
    17  N   -0.438969
    18  C    0.108552
    19  C   -0.179210
    20  C   -0.083544
    21  C    0.122489
    22  C    0.062420
    23  C    0.076094
    24  O   -0.249541
    25  C    0.010329
    26  N   -0.332308
    27  C    0.031043
    28  C   -0.062582
    29  C   -0.122931
    30  C    0.111205
    31  C    0.017280
    32  C   -0.023531
    33  C   -0.037729
    34  N   -0.390407
    35  C    0.092688
    36  C   -0.157255
    37  C   -0.057239
    38  C    0.193104
    39  C    0.082439
    40  C    0.129186
    41  O   -0.228091
    42  C   -0.052470
    43  C    0.258593
    44  O   -0.203787
    45  O   -0.417846
    46  C    0.127630
    47  C    0.245283
    48  C   -0.142368
    49  C   -0.127108
    50  C    0.008957
    51  C   -0.044316
    52  C   -0.045873
    53  C    0.023331
    54  C   -0.159325
    55  C    0.001831
    56  C    0.009259
    57  C   -0.048367
    58  C    0.024700
    59  C   -0.180013
    60  C   -0.019363
    61  C    0.002343
    62  C   -0.043933
    63  C   -0.037509
    64  C   -0.192953
    65  C    0.011807
    66  C    0.003711
    67  H   -0.007913
    68  H    0.015349
    69  H    0.000415
    70  H    0.056535
    71  H    0.034678
    72  H    0.044615
    73  H    0.039291
    74  H    0.039190
    75  H    0.034779
    76  H    0.034812
    77  H    0.056125
    78  H    0.061801
    79  H    0.042437
    80  H    0.051516
    81  H    0.048385
    82  H    0.054781
    83  H    0.026354
    84  H    0.075718
    85  H    0.037531
    86  H    0.035549
    87  H    0.033882
    88  H    0.050488
    89  H    0.045537
    90  H    0.038344
    91  H    0.020861
    92  H    0.037186
    93  H    0.048394
    94  H    0.024573
    95  H    0.023483
    96  H    0.065955
    97  H    0.063886
    98  H    0.066864
    99  H    0.056238
   100  H    0.067974
   101  H    0.063958
   102  H    0.046049
   103  H    0.050525
   104  H    0.026753
   105  H    0.019284
   106  H    0.052863
   107  H    0.054544
   108  H    0.047176
   109  H    0.038628
   110  H    0.025256
   111  H    0.016760
   112  H    0.011804
   113  H    0.027087
   114  H    0.024046
   115  H    0.040963
   116  H    0.008009
   117  H    0.025190
   118  H    0.014760
   119  H    0.013456
   120  H    0.016601
   121  H    0.018050
   122  H    0.007224
   123  H    0.014873
   124  H    0.018221
   125  H    0.019095
   126  H    0.037948
   127  H    0.029201
   128  H    0.010994
   129  H    0.012856
   130  H    0.018639
   131  H    0.033592
   132  H    0.005795
   133  H    0.022524
   134  H    0.021356
   135  H    0.039193
   136  H    0.021879
   137  H    0.029584
   138  H    0.028983
   139  H    0.027805
   140  H    0.026555
 Sum of Mulliken charges =  -0.00000

 Dipole moment (field-independent basis, Debye):
    X=              5.2394    Y=              2.6332    Z=             -1.7338  Tot=              6.1148
 Quadrupole moment (field-independent basis, Debye-Ang):
   XX=           -395.3510   YY=           -431.8901   ZZ=           -401.9006
   XY=            -39.9498   XZ=             10.0224   YZ=              9.2927

 Normal termination of Gaussian 16 at Thu May  5 00:54:24 2022.
