 Gaussian 16, Revision A.03,
 Gaussian 16:  ES64L-G16RevA.03 25-Dec-2016

 --------------------
 #p ZINDO=(nstates=5)
 --------------------

 -----------------------------
 step_501_chromophore_21 ZINDO
 -----------------------------
 Symbolic Z-matrix:
 Charge =  0 Multiplicity = 1

                         Standard orientation:
 ---------------------------------------------------------------------
 Center     Atomic      Atomic             Coordinates (Angstroms)
 Number     Number       Type             X           Y           Z
 ---------------------------------------------------------------------
      1         12           0       -5.039726    1.226404   -0.077763
      2          6           0       -5.096998   -2.172797    0.037360
      3          6           0       -1.622755    1.246582    0.323230
      4          6           0       -5.159045    4.609320   -0.028692
      5          6           0       -8.572989    1.175462   -0.005538
      6          7           0       -3.552930   -0.302007    0.377848
      7          6           0       -3.781593   -1.600394    0.044751
      8          6           0       -2.533885   -2.402126   -0.110066
      9          6           0       -1.441272   -1.269139    0.255395
     10          6           0       -2.236612   -0.007160    0.328790
     11          6           0       -0.677583   -1.567693    1.624217
     12          6           0       -2.415970   -2.885211   -1.630449
     13          6           0       -1.549224   -4.114787   -1.910642
     14          6           0       -0.547073   -4.727215   -0.900629
     15          8           0       -0.648916   -5.730741   -0.137861
     16          8           0        0.671617   -4.095904   -0.983027
     17          7           0       -3.619090    2.758497    0.016482
     18          6           0       -2.244325    2.543666    0.207158
     19          6           0       -1.618305    3.844150    0.266662
     20          6           0       -2.623967    4.823386    0.135886
     21          6           0       -3.850570    4.052720   -0.014903
     22          6           0       -0.083201    3.987788    0.387645
     23          6           0       -2.457905    6.429218    0.237612
     24          8           0       -3.376114    7.214184   -0.031063
     25          6           0       -1.169002    7.132245    0.630314
     26          7           0       -6.696318    2.694539   -0.094043
     27          6           0       -6.433226    4.021602   -0.028668
     28          6           0       -7.701321    4.829356    0.242626
     29          6           0       -8.866527    3.729193   -0.086645
     30          6           0       -8.035962    2.439546   -0.179316
     31          6           0       -7.774024    5.572265    1.654510
     32          6           0       -9.607534    3.872088   -1.511445
     33          6           0      -11.123360    3.844897   -1.579871
     34          7           0       -6.600601   -0.161350   -0.052261
     35          6           0       -7.941053   -0.064435   -0.012116
     36          6           0       -8.550450   -1.428688   -0.096157
     37          6           0       -7.411635   -2.267843   -0.133387
     38          6           0       -6.281372   -1.429038    0.024301
     39          6           0       -9.971923   -1.860593   -0.176322
     40          6           0       -7.077641   -3.640388   -0.213477
     41          8           0       -7.812194   -4.646030   -0.297682
     42          6           0       -5.555135   -3.647273   -0.101933
     43          6           0       -5.176771   -4.407322    1.067402
     44          8           0       -5.494487   -4.289115    2.209420
     45          8           0       -4.211569   -5.315555    0.642730
     46          6           0       -3.515740   -6.260034    1.598323
     47          6           0        1.780241   -4.611741   -0.185818
     48          6           0        2.990049   -3.682382   -0.457032
     49          6           0        4.255802   -4.010880   -0.521907
     50          6           0        4.763066   -5.415150   -0.093415
     51          6           0        5.251153   -2.844649   -0.638753
     52          6           0        6.717503   -3.154703   -1.069374
     53          6           0        7.557414   -1.866744   -1.261840
     54          6           0        8.766685   -1.754239   -0.184086
     55          6           0        8.235906   -1.339232    1.175329
     56          6           0        9.936304   -0.798492   -0.622544
     57          6           0       11.396741   -1.404236   -0.372100
     58          6           0       11.973668   -0.958865    0.993320
     59          6           0       13.102402    0.078534    0.900917
     60          6           0       14.259244   -0.223031    2.017738
     61          6           0       12.539098    1.552066    0.893599
     62          6           0       12.688230    2.160971   -0.547965
     63          6           0       14.172993    2.711650   -0.648383
     64          6           0       14.282576    4.247048   -0.784344
     65          6           0       15.455436    4.607508   -1.777580
     66          6           0       14.295707    4.783229    0.623417
     67          1           0       -0.539043    1.328837    0.220917
     68          1           0       -5.194225    5.695142    0.084878
     69          1           0       -9.638413    1.079352    0.210988
     70          1           0       -2.348946   -3.292945    0.489891
     71          1           0       -0.687645   -1.178545   -0.526848
     72          1           0        0.373899   -1.283011    1.654333
     73          1           0       -0.855463   -2.603619    1.912457
     74          1           0       -1.164070   -0.954995    2.383884
     75          1           0       -2.047786   -2.087501   -2.275878
     76          1           0       -3.439493   -3.100984   -1.937999
     77          1           0       -1.005571   -3.884399   -2.827740
     78          1           0       -2.201094   -4.937135   -2.202981
     79          1           0        0.458863    3.042434    0.367709
     80          1           0        0.104971    4.530806    1.313242
     81          1           0        0.241871    4.629084   -0.431929
     82          1           0       -0.497805    6.955486   -0.209319
     83          1           0       -0.621826    6.598440    1.407585
     84          1           0       -1.379398    8.136647    0.997185
     85          1           0       -7.771267    5.599820   -0.526151
     86          1           0       -9.632462    3.728486    0.689132
     87          1           0       -8.643714    5.249795    2.227495
     88          1           0       -7.795088    6.651637    1.508516
     89          1           0       -6.919345    5.301975    2.275103
     90          1           0       -9.221208    3.161724   -2.242213
     91          1           0       -9.281159    4.826410   -1.923683
     92          1           0      -11.386198    3.036380   -2.261124
     93          1           0      -11.552714    4.795194   -1.895972
     94          1           0      -11.528835    3.554139   -0.609761
     95          1           0      -10.695285   -1.048423   -0.246723
     96          1           0      -10.252388   -2.439898    0.703746
     97          1           0      -10.087605   -2.493602   -1.055877
     98          1           0       -5.079750   -4.089512   -0.977937
     99          1           0       -3.842466   -6.073474    2.621561
    100          1           0       -2.441505   -6.071350    1.580798
    101          1           0       -3.786782   -7.261075    1.262938
    102          1           0        1.983922   -5.661778   -0.393158
    103          1           0        1.600225   -4.609617    0.889512
    104          1           0        2.605428   -2.688570   -0.686096
    105          1           0        3.970564   -6.155024    0.024713
    106          1           0        5.139183   -5.469756    0.928221
    107          1           0        5.477200   -5.755068   -0.844027
    108          1           0        5.262341   -2.334493    0.324032
    109          1           0        5.023366   -2.111338   -1.411996
    110          1           0        6.735998   -3.769772   -1.969779
    111          1           0        7.075381   -3.884739   -0.343706
    112          1           0        6.879614   -1.042028   -1.041367
    113          1           0        7.922549   -1.673730   -2.270522
    114          1           0        9.121794   -2.764293    0.018253
    115          1           0        8.838928   -1.795745    1.960363
    116          1           0        7.204776   -1.674135    1.287072
    117          1           0        8.179451   -0.253453    1.242971
    118          1           0        9.903209    0.162225   -0.108428
    119          1           0       10.038990   -0.531315   -1.673820
    120          1           0       12.006832   -1.172732   -1.245338
    121          1           0       11.370798   -2.492455   -0.411627
    122          1           0       12.423316   -1.785532    1.543245
    123          1           0       11.192706   -0.605588    1.666185
    124          1           0       13.536709   -0.100029   -0.083548
    125          1           0       14.803110    0.698137    2.225633
    126          1           0       14.987629   -0.970697    1.704976
    127          1           0       13.863984   -0.504117    2.993514
    128          1           0       13.099695    2.171892    1.593618
    129          1           0       11.490443    1.589393    1.189739
    130          1           0       12.005478    3.008947   -0.504916
    131          1           0       12.407754    1.464148   -1.337944
    132          1           0       14.519933    2.160431   -1.523309
    133          1           0       14.833034    2.309096    0.120180
    134          1           0       13.349463    4.634832   -1.191605
    135          1           0       16.022821    3.722245   -2.065555
    136          1           0       16.042482    5.378229   -1.278143
    137          1           0       15.050342    5.066090   -2.679238
    138          1           0       14.053705    5.838986    0.501478
    139          1           0       15.232256    4.670160    1.169552
    140          1           0       13.550503    4.222497    1.186835
 ---------------------------------------------------------------------

 SCF Done:  E(RZINDO/S) =  -473.995824552     A.U. after   19 cycles

 Excitation energies and oscillator strengths:

 Excited State   1:      Singlet-A      1.2738 eV  973.35 nm  f=0.5906  <S**2>=0.000
     175 ->178         0.19836
     176 ->177         0.66005
 This state for optimization and/or second-order correction.
 Total Energy, E(CIS/TDA) =  -473.949013819
 Copying the excited state density for this state as the 1-particle RhoCI density.

 Excited State   2:      Singlet-A      1.8840 eV  658.10 nm  f=0.0368  <S**2>=0.000
     175 ->177         0.54489
     176 ->178        -0.41944

 Excited State   3:      Singlet-A      2.9012 eV  427.36 nm  f=0.1763  <S**2>=0.000
     168 ->177         0.24170
     168 ->178        -0.13678
     168 ->179        -0.29264
     168 ->181         0.13077
     168 ->186         0.10134
     169 ->177         0.11895
     169 ->179        -0.12677
     172 ->177        -0.14016
     175 ->177         0.17064
     176 ->178         0.28318
     176 ->179         0.25262

 Excited State   4:      Singlet-A      2.9324 eV  422.81 nm  f=0.4114  <S**2>=0.000
     168 ->177        -0.20718
     168 ->178         0.10843
     168 ->179         0.23514
     168 ->181        -0.10803
     169 ->177        -0.10097
     169 ->179         0.12274
     175 ->177         0.24571
     176 ->178         0.38172
     176 ->179         0.27411

 Excited State   5:      Singlet-A      3.0608 eV  405.07 nm  f=0.0117  <S**2>=0.000
     168 ->177        -0.10596
     168 ->179        -0.10378
     168 ->181        -0.22265
     169 ->177         0.20767
     169 ->179         0.22178
     169 ->181         0.44124
     169 ->185         0.13933
     169 ->186        -0.16092
     169 ->187        -0.12675

 The electronic state is 1-A.
 Alpha  occ. eigenvalues --   -1.87019  -1.81438  -1.79750  -1.72456  -1.72065
 Alpha  occ. eigenvalues --   -1.70421  -1.64605  -1.60311  -1.57887  -1.56990
 Alpha  occ. eigenvalues --   -1.54456  -1.49527  -1.47148  -1.46876  -1.44968
 Alpha  occ. eigenvalues --   -1.44214  -1.42563  -1.39237  -1.37982  -1.37482
 Alpha  occ. eigenvalues --   -1.35764  -1.33798  -1.32015  -1.31287  -1.28392
 Alpha  occ. eigenvalues --   -1.26167  -1.25126  -1.21441  -1.20067  -1.18270
 Alpha  occ. eigenvalues --   -1.17641  -1.17320  -1.16138  -1.14867  -1.13055
 Alpha  occ. eigenvalues --   -1.12276  -1.10306  -1.09977  -1.05410  -1.04032
 Alpha  occ. eigenvalues --   -1.03733  -1.00645  -0.98845  -0.98120  -0.95728
 Alpha  occ. eigenvalues --   -0.95219  -0.94207  -0.93747  -0.92986  -0.92675
 Alpha  occ. eigenvalues --   -0.90736  -0.90437  -0.88797  -0.88366  -0.87618
 Alpha  occ. eigenvalues --   -0.86277  -0.86078  -0.83194  -0.82312  -0.81002
 Alpha  occ. eigenvalues --   -0.79919  -0.78861  -0.77524  -0.76650  -0.76074
 Alpha  occ. eigenvalues --   -0.75604  -0.75140  -0.73791  -0.73436  -0.73109
 Alpha  occ. eigenvalues --   -0.72981  -0.72410  -0.72029  -0.71057  -0.70178
 Alpha  occ. eigenvalues --   -0.69859  -0.69739  -0.69337  -0.68327  -0.68151
 Alpha  occ. eigenvalues --   -0.66705  -0.66349  -0.65970  -0.65662  -0.65372
 Alpha  occ. eigenvalues --   -0.65147  -0.64851  -0.64152  -0.63890  -0.63349
 Alpha  occ. eigenvalues --   -0.63133  -0.63004  -0.62522  -0.62281  -0.61883
 Alpha  occ. eigenvalues --   -0.61614  -0.61171  -0.60194  -0.60148  -0.59778
 Alpha  occ. eigenvalues --   -0.59291  -0.59173  -0.59122  -0.58917  -0.58335
 Alpha  occ. eigenvalues --   -0.57564  -0.57463  -0.57326  -0.57288  -0.57023
 Alpha  occ. eigenvalues --   -0.56353  -0.56036  -0.55473  -0.55383  -0.55154
 Alpha  occ. eigenvalues --   -0.54915  -0.54682  -0.54212  -0.53424  -0.53338
 Alpha  occ. eigenvalues --   -0.53296  -0.52683  -0.52495  -0.51935  -0.51648
 Alpha  occ. eigenvalues --   -0.51494  -0.51281  -0.51183  -0.51029  -0.50707
 Alpha  occ. eigenvalues --   -0.50471  -0.49959  -0.49553  -0.49273  -0.49036
 Alpha  occ. eigenvalues --   -0.48762  -0.48373  -0.48322  -0.48151  -0.47905
 Alpha  occ. eigenvalues --   -0.47442  -0.47281  -0.47114  -0.46863  -0.46432
 Alpha  occ. eigenvalues --   -0.46419  -0.46368  -0.45950  -0.45659  -0.45221
 Alpha  occ. eigenvalues --   -0.45165  -0.45114  -0.45014  -0.44992  -0.44389
 Alpha  occ. eigenvalues --   -0.43952  -0.43544  -0.42553  -0.42398  -0.42227
 Alpha  occ. eigenvalues --   -0.41944  -0.41491  -0.41398  -0.39565  -0.38898
 Alpha  occ. eigenvalues --   -0.37989  -0.37202  -0.35359  -0.35192  -0.34826
 Alpha  occ. eigenvalues --   -0.33921  -0.33241  -0.32841  -0.32302  -0.26491
 Alpha  occ. eigenvalues --   -0.21823
 Alpha virt. eigenvalues --   -0.08436  -0.02364  -0.00699   0.00559   0.01548
 Alpha virt. eigenvalues --    0.02461   0.02942   0.03465   0.04504   0.04531
 Alpha virt. eigenvalues --    0.05954   0.06438   0.06859   0.07217   0.07799

 Mulliken charges:
               1
     1  Mg   0.429920
     2  C   -0.069864
     3  C   -0.085461
     4  C   -0.062867
     5  C   -0.059317
     6  N   -0.274820
     7  C    0.148042
     8  C   -0.003332
     9  C   -0.004744
    10  C    0.130276
    11  C   -0.055529
    12  C   -0.019445
    13  C    0.011879
    14  C    0.465394
    15  O   -0.526196
    16  O   -0.269681
    17  N   -0.310291
    18  C    0.069083
    19  C   -0.006622
    20  C   -0.056899
    21  C    0.144817
    22  C   -0.048276
    23  C    0.318534
    24  O   -0.524338
    25  C   -0.025736
    26  N   -0.273189
    27  C    0.121703
    28  C   -0.002126
    29  C   -0.006066
    30  C    0.135591
    31  C   -0.048288
    32  C   -0.032720
    33  C   -0.053080
    34  N   -0.308036
    35  C    0.109596
    36  C    0.049785
    37  C   -0.057492
    38  C    0.134105
    39  C   -0.028395
    40  C    0.336405
    41  O   -0.531950
    42  C    0.066470
    43  C    0.502685
    44  O   -0.509390
    45  O   -0.309528
    46  C    0.069574
    47  C    0.101096
    48  C   -0.070149
    49  C   -0.013789
    50  C   -0.046682
    51  C   -0.026701
    52  C   -0.037201
    53  C   -0.036418
    54  C   -0.011461
    55  C   -0.054416
    56  C   -0.041993
    57  C   -0.041596
    58  C   -0.030334
    59  C   -0.018563
    60  C   -0.065553
    61  C   -0.037647
    62  C   -0.045085
    63  C   -0.038481
    64  C   -0.009957
    65  C   -0.059543
    66  C   -0.051519
    67  H    0.028998
    68  H    0.040141
    69  H    0.021137
    70  H    0.056748
    71  H    0.024524
    72  H    0.027265
    73  H    0.027798
    74  H    0.020029
    75  H    0.026776
    76  H    0.025176
    77  H    0.033924
    78  H    0.036901
    79  H    0.030470
    80  H    0.027799
    81  H    0.025040
    82  H    0.046358
    83  H    0.020240
    84  H    0.052731
    85  H    0.029127
    86  H    0.036975
    87  H    0.020041
    88  H    0.028973
    89  H    0.026418
    90  H    0.023597
    91  H    0.014012
    92  H    0.018581
    93  H    0.027504
    94  H    0.017255
    95  H    0.019482
    96  H    0.043148
    97  H    0.039906
    98  H    0.053544
    99  H    0.046988
   100  H    0.048346
   101  H    0.044612
   102  H    0.051698
   103  H    0.049157
   104  H    0.029530
   105  H    0.020713
   106  H    0.032063
   107  H    0.029686
   108  H    0.030143
   109  H    0.024547
   110  H    0.014819
   111  H    0.017245
   112  H    0.015348
   113  H    0.025459
   114  H    0.023127
   115  H    0.020997
   116  H    0.012070
   117  H    0.019067
   118  H    0.022330
   119  H    0.016504
   120  H    0.020323
   121  H    0.014058
   122  H    0.009421
   123  H    0.019961
   124  H    0.021375
   125  H    0.011740
   126  H    0.023502
   127  H    0.020520
   128  H    0.022285
   129  H    0.014973
   130  H    0.012966
   131  H    0.032667
   132  H    0.000653
   133  H    0.024827
   134  H    0.019284
   135  H    0.029021
   136  H    0.019186
   137  H    0.017634
   138  H    0.013552
   139  H    0.020275
   140  H    0.022519
 Sum of Mulliken charges =  -0.00000

 Dipole moment (field-independent basis, Debye):
    X=              5.8448    Y=              2.7096    Z=             -2.6547  Tot=              6.9678
 N-N= 4.262563062330D+03 E-N= 0.000000000000D+00  KE=-9.198929341924D+03
 Leave Link  601 at Thu May  5 01:14:44 2022, MaxMem=  6710886400 cpu:               1.2 elap:               0.1
 (Enter /sw/apps/gaussian-16.0/g16/l9999.exe)
 1\1\GINC-BP1-COMPUTE216\SP\RZINDO CIS\STO-3G\C55H74Mg1N4O6\OF15641\05-
 May-2022\0\\#p ZINDO=(nstates=5)\\step_501_chromophore_21 ZINDO\\0,1\M
 g,0,15.621,51.824,26.048\C,0,17.474,50.607,28.628\C,0,13.11,52.757,28.
 207\C,0,13.815,52.827,23.366\C,0,17.994,50.426,23.833\N,0,15.236,51.49
 ,28.168\C,0,16.269,51.276,29.026\C,0,15.946,51.618,30.441\C,0,14.406,5
 2.073,30.261\C,0,14.211,52.119,28.781\C,0,13.381,51.071,30.962\C,0,16.
 882,52.829,30.906\C,0,17.113,53.,32.409\C,0,16.277,52.298,33.508\O,0,1

 Normal termination of Gaussian 16 at Thu May  5 01:14:45 2022.
