 Gaussian 16, Revision A.03,
 Gaussian 16:  ES64L-G16RevA.03 25-Dec-2016

 ------------------------------
 #p blyp/Def2SVP td=(nstates=5)
 ------------------------------

 ---------------------------------------------------
 step_1051_chromophore_26 TDDFT with blyp functional
 ---------------------------------------------------
 Symbolic Z-matrix:
 Charge =  0 Multiplicity = 1

                         Standard orientation:
 ---------------------------------------------------------------------
 Center     Atomic      Atomic             Coordinates (Angstroms)
 Number     Number       Type             X           Y           Z
 ---------------------------------------------------------------------
      1         12           0       -4.134826    1.303524    0.672607
      2          6           0       -5.123371   -1.985334   -0.255680
      3          6           0       -2.574316   -0.147846    3.488806
      4          6           0       -2.395693    4.233824    1.267020
      5          6           0       -5.233007    2.447430   -2.443937
      6          7           0       -3.938189   -0.715419    1.456994
      7          6           0       -4.343565   -1.929109    0.891329
      8          6           0       -3.998440   -3.130733    1.689114
      9          6           0       -3.413460   -2.551842    3.013553
     10          6           0       -3.330181   -1.026310    2.685159
     11          6           0       -4.279206   -2.782642    4.384015
     12          6           0       -3.139007   -4.174835    0.829494
     13          6           0       -1.931978   -3.625070    0.022946
     14          6           0       -0.617491   -4.427281    0.086007
     15          8           0       -0.524123   -5.652029    0.223944
     16          8           0        0.499176   -3.618983   -0.041862
     17          7           0       -2.696499    2.024755    2.157462
     18          6           0       -2.146019    1.264030    3.224169
     19          6           0       -1.266441    2.073416    4.023792
     20          6           0       -1.090584    3.322386    3.342342
     21          6           0       -2.090609    3.288574    2.234246
     22          6           0       -0.636376    1.575063    5.290730
     23          6           0       -0.106964    4.414179    3.689631
     24          8           0        0.568136    4.360276    4.668855
     25          6           0       -0.078301    5.545149    2.841724
     26          7           0       -3.933148    3.094650   -0.354025
     27          6           0       -3.218851    4.183926    0.076947
     28          6           0       -3.232732    5.282218   -0.920024
     29          6           0       -4.175978    4.739771   -2.034474
     30          6           0       -4.394210    3.278862   -1.631672
     31          6           0       -3.685742    6.652293   -0.341953
     32          6           0       -3.394797    4.913910   -3.419297
     33          6           0       -4.179221    5.904943   -4.328517
     34          7           0       -5.040583    0.495435   -1.020668
     35          6           0       -5.534427    1.103701   -2.171549
     36          6           0       -6.269422    0.069011   -2.910484
     37          6           0       -6.101616   -1.154421   -2.192319
     38          6           0       -5.331881   -0.833922   -1.033663
     39          6           0       -7.036807    0.245884   -4.153455
     40          6           0       -6.477618   -2.532940   -2.284379
     41          8           0       -7.140282   -3.183568   -3.094503
     42          6           0       -5.810455   -3.154184   -1.019805
     43          6           0       -6.915431   -3.626994   -0.120683
     44          8           0       -7.030142   -4.772193    0.298481
     45          8           0       -7.878624   -2.668013    0.020428
     46          6           0       -8.798293   -2.975459    1.103502
     47          6           0        1.845263   -4.223242   -0.171732
     48          6           0        2.944696   -3.362192   -0.677825
     49          6           0        3.000449   -2.833356   -1.930220
     50          6           0        1.930789   -2.933488   -3.025330
     51          6           0        4.224313   -2.103471   -2.430768
     52          6           0        4.374415   -0.572030   -2.557477
     53          6           0        5.844159   -0.132112   -2.744174
     54          6           0        6.074812    1.145858   -1.821201
     55          6           0        6.036060    2.384316   -2.703902
     56          6           0        7.453768    1.001040   -1.179419
     57          6           0        7.425341    0.285884    0.211152
     58          6           0        8.379678   -0.930541    0.432566
     59          6           0        9.483372   -0.751675    1.557671
     60          6           0        9.175520   -1.817254    2.736642
     61          6           0       10.830448   -1.058288    0.833355
     62          6           0       11.530320    0.271416    0.378790
     63          6           0       12.476980    0.061100   -0.833045
     64          6           0       13.940777    0.376945   -0.598101
     65          6           0       14.656414    0.602006   -1.847322
     66          6           0       14.597577   -0.834583    0.240102
     67          1           0       -2.164622   -0.684152    4.347414
     68          1           0       -1.888395    5.201115    1.269799
     69          1           0       -5.576593    2.972877   -3.337715
     70          1           0       -4.965148   -3.597421    1.881499
     71          1           0       -2.369043   -2.864075    3.004424
     72          1           0       -4.333657   -1.861462    4.963281
     73          1           0       -3.779641   -3.571013    4.946722
     74          1           0       -5.317043   -3.083026    4.238811
     75          1           0       -3.839155   -4.804269    0.279447
     76          1           0       -2.647611   -4.863507    1.517801
     77          1           0       -1.538853   -2.653014    0.322158
     78          1           0       -2.225996   -3.671258   -1.025824
     79          1           0        0.321817    2.082295    5.398513
     80          1           0       -0.462136    0.509386    5.142598
     81          1           0       -1.216832    1.694162    6.205272
     82          1           0       -0.876226    6.285318    2.893594
     83          1           0        0.131685    5.173112    1.839204
     84          1           0        0.828297    6.147766    2.905533
     85          1           0       -2.196669    5.454450   -1.212716
     86          1           0       -5.075170    5.355848   -2.044789
     87          1           0       -4.352663    6.482862    0.503272
     88          1           0       -4.266812    7.289402   -1.009168
     89          1           0       -2.725795    7.154432   -0.221055
     90          1           0       -3.381965    3.935692   -3.902372
     91          1           0       -2.336562    5.174835   -3.417201
     92          1           0       -3.427370    6.209546   -5.057257
     93          1           0       -4.489328    6.762487   -3.731473
     94          1           0       -5.044430    5.430090   -4.791421
     95          1           0       -7.372946   -0.757669   -4.411747
     96          1           0       -6.322288    0.592484   -4.899934
     97          1           0       -7.839292    0.956654   -3.957066
     98          1           0       -5.068295   -3.906562   -1.286741
     99          1           0       -9.322056   -2.043175    1.315110
    100          1           0       -8.269999   -3.304310    1.999148
    101          1           0       -9.564783   -3.736948    0.960855
    102          1           0        1.808264   -4.867941   -1.049482
    103          1           0        2.107535   -4.738216    0.751779
    104          1           0        3.773089   -3.250701    0.021980
    105          1           0        1.549814   -1.974326   -3.376204
    106          1           0        1.027166   -3.418766   -2.656594
    107          1           0        2.260866   -3.436274   -3.933491
    108          1           0        4.410863   -2.325010   -3.481582
    109          1           0        5.089140   -2.559095   -1.948860
    110          1           0        3.922132   -0.101394   -1.684277
    111          1           0        3.792713   -0.306013   -3.439428
    112          1           0        5.964396    0.085663   -3.805056
    113          1           0        6.468212   -0.971190   -2.434520
    114          1           0        5.295287    1.189712   -1.060707
    115          1           0        5.542418    2.117096   -3.637133
    116          1           0        6.983363    2.824000   -3.016121
    117          1           0        5.398246    3.101932   -2.186170
    118          1           0        7.895911    1.990064   -1.061577
    119          1           0        8.120027    0.539660   -1.906902
    120          1           0        6.366912    0.114040    0.410219
    121          1           0        7.631733    1.011985    0.997749
    122          1           0        8.842687   -0.945913   -0.554777
    123          1           0        7.828166   -1.850153    0.626245
    124          1           0        9.434796    0.273871    1.923831
    125          1           0        9.339209   -1.219130    3.631902
    126          1           0        9.868245   -2.657958    2.766011
    127          1           0        8.148493   -2.145643    2.574768
    128          1           0       10.697055   -1.796813    0.042085
    129          1           0       11.413613   -1.543377    1.616373
    130          1           0       11.981324    0.795709    1.221598
    131          1           0       10.668234    0.899175    0.155684
    132          1           0       11.969720    0.723643   -1.534717
    133          1           0       12.501650   -0.980115   -1.153292
    134          1           0       13.970837    1.359452   -0.127711
    135          1           0       15.181302    1.557038   -1.814521
    136          1           0       13.997920    0.557702   -2.715395
    137          1           0       15.344456   -0.161040   -2.210981
    138          1           0       15.404690   -1.340647   -0.290005
    139          1           0       13.810614   -1.574758    0.382220
    140          1           0       14.852235   -0.437262    1.222343
 ---------------------------------------------------------------------

 SCF Done:  E(RB-LYP) =  -3007.33868124     A.U. after   20 cycles

 Excitation energies and oscillator strengths:

 Excited State   1:      Singlet-A      1.7248 eV  718.84 nm  f=0.2864  <S**2>=0.000
     245 -> 248        0.18896
     246 -> 247        0.69173
     246 <- 247       -0.15915
 This state for optimization and/or second-order correction.
 Total Energy, E(TD-HF/TD-DFT) =  -3007.27529698
 Copying the excited state density for this state as the 1-particle RhoCI density.

 Excited State   2:      Singlet-A      1.8673 eV  663.98 nm  f=0.0029  <S**2>=0.000
     243 -> 247        0.10884
     244 -> 247        0.66467
     245 -> 247       -0.20128

 Excited State   3:      Singlet-A      1.9083 eV  649.70 nm  f=0.0286  <S**2>=0.000
     243 -> 247       -0.45240
     244 -> 247        0.22631
     245 -> 247        0.45775
     246 -> 248       -0.15272

 Excited State   4:      Singlet-A      2.0077 eV  617.56 nm  f=0.0287  <S**2>=0.000
     243 -> 247        0.52740
     245 -> 247        0.40431
     246 -> 248       -0.20316

 Excited State   5:      Singlet-A      2.2794 eV  543.94 nm  f=0.0004  <S**2>=0.000
     241 -> 247        0.69596
     242 -> 247        0.12391

 The electronic state is 1-A.
 Alpha  occ. eigenvalues --  -46.27334 -18.82961 -18.81589 -18.77006 -18.76304
 Alpha  occ. eigenvalues --  -18.76076 -18.75448 -14.03929 -14.03887 -14.01418
 Alpha  occ. eigenvalues --  -14.01251 -10.04316 -10.04033  -9.99770  -9.99343
 Alpha  occ. eigenvalues --   -9.97983  -9.97738  -9.97089  -9.97072  -9.97046
 Alpha  occ. eigenvalues --   -9.96794  -9.96351  -9.96255  -9.96019  -9.95113
 Alpha  occ. eigenvalues --   -9.94909  -9.94486  -9.94211  -9.94196  -9.94126
 Alpha  occ. eigenvalues --   -9.93945  -9.93898  -9.93890  -9.93801  -9.93787
 Alpha  occ. eigenvalues --   -9.93741  -9.93691  -9.93645  -9.93530  -9.93193
 Alpha  occ. eigenvalues --   -9.93123  -9.93071  -9.92681  -9.92486  -9.92481
 Alpha  occ. eigenvalues --   -9.92392  -9.92055  -9.92030  -9.91963  -9.91643
 Alpha  occ. eigenvalues --   -9.91621  -9.91586  -9.91567  -9.91527  -9.91486
 Alpha  occ. eigenvalues --   -9.91134  -9.91061  -9.91052  -9.91037  -9.90937
 Alpha  occ. eigenvalues --   -9.90923  -9.90866  -9.90841  -9.90781  -9.90722
 Alpha  occ. eigenvalues --   -9.89875  -2.91934  -1.72361  -1.71770  -1.71685
 Alpha  occ. eigenvalues --   -0.98752  -0.96483  -0.93448  -0.91021  -0.90108
 Alpha  occ. eigenvalues --   -0.88601  -0.86425  -0.85555  -0.84586  -0.83274
 Alpha  occ. eigenvalues --   -0.75981  -0.73765  -0.72818  -0.72571  -0.72486
 Alpha  occ. eigenvalues --   -0.72135  -0.71843  -0.70800  -0.70640  -0.70008
 Alpha  occ. eigenvalues --   -0.69619  -0.69201  -0.68623  -0.67900  -0.67658
 Alpha  occ. eigenvalues --   -0.66590  -0.66331  -0.65420  -0.64995  -0.64548
 Alpha  occ. eigenvalues --   -0.63985  -0.62719  -0.62287  -0.61725  -0.61064
 Alpha  occ. eigenvalues --   -0.60413  -0.60055  -0.59962  -0.59204  -0.58845
 Alpha  occ. eigenvalues --   -0.58548  -0.57562  -0.57037  -0.55972  -0.54428
 Alpha  occ. eigenvalues --   -0.54265  -0.53481  -0.52944  -0.52249  -0.52143
 Alpha  occ. eigenvalues --   -0.51232  -0.50996  -0.50941  -0.50629  -0.50206
 Alpha  occ. eigenvalues --   -0.49705  -0.49608  -0.49277  -0.48708  -0.46520
 Alpha  occ. eigenvalues --   -0.45959  -0.45854  -0.45680  -0.44981  -0.44615
 Alpha  occ. eigenvalues --   -0.44356  -0.43983  -0.43384  -0.43172  -0.43118
 Alpha  occ. eigenvalues --   -0.42421  -0.42192  -0.41674  -0.41478  -0.41254
 Alpha  occ. eigenvalues --   -0.41004  -0.40913  -0.40478  -0.40270  -0.40036
 Alpha  occ. eigenvalues --   -0.39904  -0.39653  -0.39431  -0.39214  -0.39066
 Alpha  occ. eigenvalues --   -0.39030  -0.38660  -0.38556  -0.38501  -0.38199
 Alpha  occ. eigenvalues --   -0.37892  -0.37585  -0.37312  -0.37257  -0.37102
 Alpha  occ. eigenvalues --   -0.37021  -0.36885  -0.36802  -0.36689  -0.36542
 Alpha  occ. eigenvalues --   -0.36345  -0.36248  -0.36107  -0.35767  -0.35684
 Alpha  occ. eigenvalues --   -0.35375  -0.35114  -0.34909  -0.34873  -0.34796
 Alpha  occ. eigenvalues --   -0.34679  -0.34429  -0.34389  -0.34361  -0.34056
 Alpha  occ. eigenvalues --   -0.33927  -0.33594  -0.33505  -0.33383  -0.33265
 Alpha  occ. eigenvalues --   -0.33153  -0.32825  -0.32646  -0.32560  -0.32310
 Alpha  occ. eigenvalues --   -0.32117  -0.31798  -0.31651  -0.31511  -0.31493
 Alpha  occ. eigenvalues --   -0.31392  -0.31308  -0.31293  -0.31155  -0.30905
 Alpha  occ. eigenvalues --   -0.30809  -0.30508  -0.30293  -0.30094  -0.29987
 Alpha  occ. eigenvalues --   -0.29890  -0.29476  -0.29391  -0.29339  -0.29158
 Alpha  occ. eigenvalues --   -0.28887  -0.28387  -0.28298  -0.28167  -0.27974
 Alpha  occ. eigenvalues --   -0.27424  -0.26968  -0.26872  -0.26735  -0.26617
 Alpha  occ. eigenvalues --   -0.26168  -0.26111  -0.26087  -0.25494  -0.25350
 Alpha  occ. eigenvalues --   -0.24962  -0.24438  -0.24050  -0.23925  -0.23708
 Alpha  occ. eigenvalues --   -0.23688  -0.22419  -0.21720  -0.21436  -0.20606
 Alpha  occ. eigenvalues --   -0.20396  -0.20228  -0.19105  -0.18787  -0.17634
 Alpha  occ. eigenvalues --   -0.15985
 Alpha virt. eigenvalues --   -0.12018  -0.07719  -0.06434  -0.04844  -0.03838
 Alpha virt. eigenvalues --   -0.03312  -0.02830  -0.02607  -0.01928  -0.00266
 Alpha virt. eigenvalues --    0.00762   0.01325   0.02097   0.02334   0.02701

 Mulliken charges:
               1
     1  Mg   0.703241
     2  C   -0.146465
     3  C   -0.030963
     4  C   -0.037351
     5  C   -0.084129
     6  N   -0.247634
     7  C   -0.068892
     8  C    0.030001
     9  C    0.045486
    10  C   -0.017040
    11  C    0.113519
    12  C    0.094090
    13  C    0.117017
    14  C    0.064166
    15  O   -0.205277
    16  O   -0.284968
    17  N   -0.295750
    18  C    0.122517
    19  C   -0.139313
    20  C    0.007073
    21  C    0.147262
    22  C    0.173411
    23  C   -0.084432
    24  O   -0.117842
    25  C    0.153386
    26  N   -0.241399
    27  C   -0.026439
    28  C    0.005781
    29  C    0.023042
    30  C    0.043208
    31  C    0.116861
    32  C    0.062783
    33  C    0.054765
    34  N   -0.287403
    35  C    0.160939
    36  C   -0.193265
    37  C    0.034789
    38  C    0.185963
    39  C    0.186465
    40  C   -0.022175
    41  O   -0.131757
    42  C    0.116724
    43  C    0.111288
    44  O   -0.173935
    45  O   -0.258880
    46  C    0.228129
    47  C    0.310320
    48  C   -0.101521
    49  C   -0.074326
    50  C    0.126034
    51  C    0.074835
    52  C    0.082477
    53  C    0.101476
    54  C   -0.105288
    55  C    0.130061
    56  C    0.096226
    57  C    0.070712
    58  C    0.104356
    59  C   -0.121824
    60  C    0.109759
    61  C    0.089626
    62  C    0.062658
    63  C    0.102929
    64  C   -0.084223
    65  C    0.122541
    66  C    0.109049
    67  H   -0.056715
    68  H   -0.087600
    69  H   -0.053322
    70  H   -0.016968
    71  H   -0.019847
    72  H    0.001104
    73  H    0.008201
    74  H   -0.001070
    75  H    0.007537
    76  H   -0.012849
    77  H    0.016242
    78  H    0.015782
    79  H    0.005476
    80  H   -0.015158
    81  H    0.007649
    82  H    0.036392
    83  H   -0.005051
    84  H   -0.033978
    85  H   -0.016558
    86  H   -0.012982
    87  H   -0.001634
    88  H   -0.014162
    89  H   -0.002069
    90  H   -0.027421
    91  H   -0.018241
    92  H   -0.010396
    93  H   -0.005920
    94  H    0.003147
    95  H    0.008498
    96  H   -0.001491
    97  H    0.007217
    98  H   -0.005045
    99  H    0.005660
   100  H    0.001851
   101  H    0.017583
   102  H    0.003716
   103  H    0.000132
   104  H   -0.036283
   105  H   -0.000962
   106  H   -0.019713
   107  H    0.001017
   108  H   -0.042028
   109  H   -0.032078
   110  H   -0.026533
   111  H   -0.034179
   112  H   -0.023274
   113  H   -0.021055
   114  H   -0.022774
   115  H   -0.033379
   116  H   -0.010628
   117  H   -0.019040
   118  H   -0.044127
   119  H   -0.032160
   120  H   -0.042806
   121  H   -0.042522
   122  H   -0.026530
   123  H   -0.028597
   124  H   -0.025375
   125  H   -0.010659
   126  H   -0.008229
   127  H   -0.009869
   128  H   -0.023834
   129  H   -0.039939
   130  H   -0.032209
   131  H   -0.032335
   132  H   -0.034048
   133  H   -0.028173
   134  H   -0.042784
   135  H   -0.013466
   136  H   -0.039558
   137  H   -0.034639
   138  H   -0.007245
   139  H   -0.015965
   140  H   -0.004201
 Sum of Mulliken charges =  -0.00000

 Dipole moment (field-independent basis, Debye):
    X=              0.7531    Y=              6.4835    Z=             -0.7819  Tot=              6.5737
 Quadrupole moment (field-independent basis, Debye-Ang):
   XX=           -404.3692   YY=           -424.7101   ZZ=           -410.5749
   XY=            -40.8699   XZ=            -29.3759   YZ=            -29.4994

 Normal termination of Gaussian 16 at Tue May  3 23:30:47 2022.
