 Gaussian 16, Revision A.03,
 Gaussian 16:  ES64L-G16RevA.03 25-Dec-2016

 -----------------------------------
 #p cam-b3lyp/Def2SVP td=(nstates=5)
 -----------------------------------

 --------------------------------------------------------
 step_1051_chromophore_26 TDDFT with cam-b3lyp functional
 --------------------------------------------------------
 Symbolic Z-matrix:
 Charge =  0 Multiplicity = 1

                         Standard orientation:
 ---------------------------------------------------------------------
 Center     Atomic      Atomic             Coordinates (Angstroms)
 Number     Number       Type             X           Y           Z
 ---------------------------------------------------------------------
      1         12           0       -4.134826    1.303524    0.672607
      2          6           0       -5.123371   -1.985334   -0.255680
      3          6           0       -2.574316   -0.147846    3.488806
      4          6           0       -2.395693    4.233824    1.267020
      5          6           0       -5.233007    2.447430   -2.443937
      6          7           0       -3.938189   -0.715419    1.456994
      7          6           0       -4.343565   -1.929109    0.891329
      8          6           0       -3.998440   -3.130733    1.689114
      9          6           0       -3.413460   -2.551842    3.013553
     10          6           0       -3.330181   -1.026310    2.685159
     11          6           0       -4.279206   -2.782642    4.384015
     12          6           0       -3.139007   -4.174835    0.829494
     13          6           0       -1.931978   -3.625070    0.022946
     14          6           0       -0.617491   -4.427281    0.086007
     15          8           0       -0.524123   -5.652029    0.223944
     16          8           0        0.499176   -3.618983   -0.041862
     17          7           0       -2.696499    2.024755    2.157462
     18          6           0       -2.146019    1.264030    3.224169
     19          6           0       -1.266441    2.073416    4.023792
     20          6           0       -1.090584    3.322386    3.342342
     21          6           0       -2.090609    3.288574    2.234246
     22          6           0       -0.636376    1.575063    5.290730
     23          6           0       -0.106964    4.414179    3.689631
     24          8           0        0.568136    4.360276    4.668855
     25          6           0       -0.078301    5.545149    2.841724
     26          7           0       -3.933148    3.094650   -0.354025
     27          6           0       -3.218851    4.183926    0.076947
     28          6           0       -3.232732    5.282218   -0.920024
     29          6           0       -4.175978    4.739771   -2.034474
     30          6           0       -4.394210    3.278862   -1.631672
     31          6           0       -3.685742    6.652293   -0.341953
     32          6           0       -3.394797    4.913910   -3.419297
     33          6           0       -4.179221    5.904943   -4.328517
     34          7           0       -5.040583    0.495435   -1.020668
     35          6           0       -5.534427    1.103701   -2.171549
     36          6           0       -6.269422    0.069011   -2.910484
     37          6           0       -6.101616   -1.154421   -2.192319
     38          6           0       -5.331881   -0.833922   -1.033663
     39          6           0       -7.036807    0.245884   -4.153455
     40          6           0       -6.477618   -2.532940   -2.284379
     41          8           0       -7.140282   -3.183568   -3.094503
     42          6           0       -5.810455   -3.154184   -1.019805
     43          6           0       -6.915431   -3.626994   -0.120683
     44          8           0       -7.030142   -4.772193    0.298481
     45          8           0       -7.878624   -2.668013    0.020428
     46          6           0       -8.798293   -2.975459    1.103502
     47          6           0        1.845263   -4.223242   -0.171732
     48          6           0        2.944696   -3.362192   -0.677825
     49          6           0        3.000449   -2.833356   -1.930220
     50          6           0        1.930789   -2.933488   -3.025330
     51          6           0        4.224313   -2.103471   -2.430768
     52          6           0        4.374415   -0.572030   -2.557477
     53          6           0        5.844159   -0.132112   -2.744174
     54          6           0        6.074812    1.145858   -1.821201
     55          6           0        6.036060    2.384316   -2.703902
     56          6           0        7.453768    1.001040   -1.179419
     57          6           0        7.425341    0.285884    0.211152
     58          6           0        8.379678   -0.930541    0.432566
     59          6           0        9.483372   -0.751675    1.557671
     60          6           0        9.175520   -1.817254    2.736642
     61          6           0       10.830448   -1.058288    0.833355
     62          6           0       11.530320    0.271416    0.378790
     63          6           0       12.476980    0.061100   -0.833045
     64          6           0       13.940777    0.376945   -0.598101
     65          6           0       14.656414    0.602006   -1.847322
     66          6           0       14.597577   -0.834583    0.240102
     67          1           0       -2.164622   -0.684152    4.347414
     68          1           0       -1.888395    5.201115    1.269799
     69          1           0       -5.576593    2.972877   -3.337715
     70          1           0       -4.965148   -3.597421    1.881499
     71          1           0       -2.369043   -2.864075    3.004424
     72          1           0       -4.333657   -1.861462    4.963281
     73          1           0       -3.779641   -3.571013    4.946722
     74          1           0       -5.317043   -3.083026    4.238811
     75          1           0       -3.839155   -4.804269    0.279447
     76          1           0       -2.647611   -4.863507    1.517801
     77          1           0       -1.538853   -2.653014    0.322158
     78          1           0       -2.225996   -3.671258   -1.025824
     79          1           0        0.321817    2.082295    5.398513
     80          1           0       -0.462136    0.509386    5.142598
     81          1           0       -1.216832    1.694162    6.205272
     82          1           0       -0.876226    6.285318    2.893594
     83          1           0        0.131685    5.173112    1.839204
     84          1           0        0.828297    6.147766    2.905533
     85          1           0       -2.196669    5.454450   -1.212716
     86          1           0       -5.075170    5.355848   -2.044789
     87          1           0       -4.352663    6.482862    0.503272
     88          1           0       -4.266812    7.289402   -1.009168
     89          1           0       -2.725795    7.154432   -0.221055
     90          1           0       -3.381965    3.935692   -3.902372
     91          1           0       -2.336562    5.174835   -3.417201
     92          1           0       -3.427370    6.209546   -5.057257
     93          1           0       -4.489328    6.762487   -3.731473
     94          1           0       -5.044430    5.430090   -4.791421
     95          1           0       -7.372946   -0.757669   -4.411747
     96          1           0       -6.322288    0.592484   -4.899934
     97          1           0       -7.839292    0.956654   -3.957066
     98          1           0       -5.068295   -3.906562   -1.286741
     99          1           0       -9.322056   -2.043175    1.315110
    100          1           0       -8.269999   -3.304310    1.999148
    101          1           0       -9.564783   -3.736948    0.960855
    102          1           0        1.808264   -4.867941   -1.049482
    103          1           0        2.107535   -4.738216    0.751779
    104          1           0        3.773089   -3.250701    0.021980
    105          1           0        1.549814   -1.974326   -3.376204
    106          1           0        1.027166   -3.418766   -2.656594
    107          1           0        2.260866   -3.436274   -3.933491
    108          1           0        4.410863   -2.325010   -3.481582
    109          1           0        5.089140   -2.559095   -1.948860
    110          1           0        3.922132   -0.101394   -1.684277
    111          1           0        3.792713   -0.306013   -3.439428
    112          1           0        5.964396    0.085663   -3.805056
    113          1           0        6.468212   -0.971190   -2.434520
    114          1           0        5.295287    1.189712   -1.060707
    115          1           0        5.542418    2.117096   -3.637133
    116          1           0        6.983363    2.824000   -3.016121
    117          1           0        5.398246    3.101932   -2.186170
    118          1           0        7.895911    1.990064   -1.061577
    119          1           0        8.120027    0.539660   -1.906902
    120          1           0        6.366912    0.114040    0.410219
    121          1           0        7.631733    1.011985    0.997749
    122          1           0        8.842687   -0.945913   -0.554777
    123          1           0        7.828166   -1.850153    0.626245
    124          1           0        9.434796    0.273871    1.923831
    125          1           0        9.339209   -1.219130    3.631902
    126          1           0        9.868245   -2.657958    2.766011
    127          1           0        8.148493   -2.145643    2.574768
    128          1           0       10.697055   -1.796813    0.042085
    129          1           0       11.413613   -1.543377    1.616373
    130          1           0       11.981324    0.795709    1.221598
    131          1           0       10.668234    0.899175    0.155684
    132          1           0       11.969720    0.723643   -1.534717
    133          1           0       12.501650   -0.980115   -1.153292
    134          1           0       13.970837    1.359452   -0.127711
    135          1           0       15.181302    1.557038   -1.814521
    136          1           0       13.997920    0.557702   -2.715395
    137          1           0       15.344456   -0.161040   -2.210981
    138          1           0       15.404690   -1.340647   -0.290005
    139          1           0       13.810614   -1.574758    0.382220
    140          1           0       14.852235   -0.437262    1.222343
 ---------------------------------------------------------------------

 SCF Done:  E(RCAM-B3LYP) =  -3007.12189968     A.U. after   17 cycles

 Excitation energies and oscillator strengths:

 Excited State   1:      Singlet-A      1.6122 eV  769.06 nm  f=0.3674  <S**2>=0.000
     245 -> 248        0.17101
     246 -> 247        0.68739
     245 <- 248        0.10665
 This state for optimization and/or second-order correction.
 Total Energy, E(TD-HF/TD-DFT) =  -3007.06265393
 Copying the excited state density for this state as the 1-particle RhoCI density.

 Excited State   2:      Singlet-A      2.1793 eV  568.93 nm  f=0.0732  <S**2>=0.000
     245 -> 247        0.62317
     246 -> 248       -0.31667

 Excited State   3:      Singlet-A      3.1603 eV  392.32 nm  f=0.0122  <S**2>=0.000
     244 -> 247        0.67119
     246 -> 248        0.16991

 Excited State   4:      Singlet-A      3.3375 eV  371.48 nm  f=0.2342  <S**2>=0.000
     243 -> 247        0.47121
     244 -> 247       -0.14677
     245 -> 247        0.18881
     246 -> 248        0.44854

 Excited State   5:      Singlet-A      3.4386 eV  360.56 nm  f=0.5172  <S**2>=0.000
     243 -> 247        0.49288
     245 -> 247       -0.27114
     246 -> 248       -0.40134

 The electronic state is 1-A.
 Alpha  occ. eigenvalues --  -46.88909 -19.25883 -19.24427 -19.20103 -19.19248
 Alpha  occ. eigenvalues --  -19.19225 -19.18788 -14.43046 -14.42618 -14.40049
 Alpha  occ. eigenvalues --  -14.39654 -10.39708 -10.39356 -10.35126 -10.34495
 Alpha  occ. eigenvalues --  -10.31912 -10.31792 -10.31669 -10.31594 -10.31461
 Alpha  occ. eigenvalues --  -10.31362 -10.30951 -10.30781 -10.30195 -10.29343
 Alpha  occ. eigenvalues --  -10.29183 -10.28859 -10.28392 -10.28356 -10.28287
 Alpha  occ. eigenvalues --  -10.28217 -10.28175 -10.28104 -10.28068 -10.27876
 Alpha  occ. eigenvalues --  -10.27831 -10.27667 -10.27666 -10.27605 -10.27309
 Alpha  occ. eigenvalues --  -10.27218 -10.26923 -10.26839 -10.26395 -10.26156
 Alpha  occ. eigenvalues --  -10.26006 -10.25852 -10.25779 -10.25676 -10.25619
 Alpha  occ. eigenvalues --  -10.25386 -10.25287 -10.25276 -10.25202 -10.25126
 Alpha  occ. eigenvalues --  -10.25072 -10.24829 -10.24710 -10.24668 -10.24634
 Alpha  occ. eigenvalues --  -10.24623 -10.24528 -10.24478 -10.24406 -10.24359
 Alpha  occ. eigenvalues --  -10.23397  -3.17408  -1.92313  -1.91830  -1.91736
 Alpha  occ. eigenvalues --   -1.17261  -1.14858  -1.12055  -1.09361  -1.08053
 Alpha  occ. eigenvalues --   -1.06390  -1.04195  -1.03184  -1.02103  -1.00831
 Alpha  occ. eigenvalues --   -0.93098  -0.90608  -0.89601  -0.89256  -0.89205
 Alpha  occ. eigenvalues --   -0.88827  -0.88610  -0.87394  -0.87250  -0.86552
 Alpha  occ. eigenvalues --   -0.86342  -0.85551  -0.84972  -0.84110  -0.83876
 Alpha  occ. eigenvalues --   -0.82758  -0.82379  -0.81294  -0.80796  -0.80386
 Alpha  occ. eigenvalues --   -0.79789  -0.78365  -0.77815  -0.77393  -0.76520
 Alpha  occ. eigenvalues --   -0.75702  -0.75395  -0.75281  -0.74475  -0.74065
 Alpha  occ. eigenvalues --   -0.73610  -0.72572  -0.71978  -0.70796  -0.69043
 Alpha  occ. eigenvalues --   -0.68959  -0.68018  -0.67435  -0.66483  -0.66363
 Alpha  occ. eigenvalues --   -0.65372  -0.65133  -0.64920  -0.64597  -0.64240
 Alpha  occ. eigenvalues --   -0.63738  -0.63413  -0.62930  -0.62603  -0.60250
 Alpha  occ. eigenvalues --   -0.59520  -0.59280  -0.59212  -0.58438  -0.58072
 Alpha  occ. eigenvalues --   -0.57850  -0.57198  -0.56639  -0.56390  -0.56207
 Alpha  occ. eigenvalues --   -0.55439  -0.55319  -0.54631  -0.54434  -0.54074
 Alpha  occ. eigenvalues --   -0.53895  -0.53841  -0.53252  -0.53097  -0.53056
 Alpha  occ. eigenvalues --   -0.52820  -0.52214  -0.52042  -0.51758  -0.51648
 Alpha  occ. eigenvalues --   -0.51502  -0.51260  -0.51037  -0.50987  -0.50634
 Alpha  occ. eigenvalues --   -0.50620  -0.50131  -0.49864  -0.49546  -0.49445
 Alpha  occ. eigenvalues --   -0.49344  -0.49268  -0.49080  -0.48996  -0.48830
 Alpha  occ. eigenvalues --   -0.48695  -0.48406  -0.48314  -0.47859  -0.47689
 Alpha  occ. eigenvalues --   -0.47483  -0.47063  -0.46861  -0.46791  -0.46649
 Alpha  occ. eigenvalues --   -0.46481  -0.46381  -0.46294  -0.46056  -0.45993
 Alpha  occ. eigenvalues --   -0.45816  -0.45554  -0.45374  -0.45134  -0.45001
 Alpha  occ. eigenvalues --   -0.44935  -0.44546  -0.44104  -0.44022  -0.43915
 Alpha  occ. eigenvalues --   -0.43831  -0.43439  -0.43254  -0.43201  -0.43142
 Alpha  occ. eigenvalues --   -0.42952  -0.42802  -0.42681  -0.42584  -0.42488
 Alpha  occ. eigenvalues --   -0.42202  -0.41954  -0.41682  -0.41488  -0.41330
 Alpha  occ. eigenvalues --   -0.41254  -0.40847  -0.40609  -0.40434  -0.40329
 Alpha  occ. eigenvalues --   -0.40145  -0.39394  -0.39352  -0.39165  -0.38898
 Alpha  occ. eigenvalues --   -0.38362  -0.37976  -0.37685  -0.37635  -0.37533
 Alpha  occ. eigenvalues --   -0.37428  -0.37050  -0.36890  -0.36514  -0.36366
 Alpha  occ. eigenvalues --   -0.35952  -0.34927  -0.34919  -0.34399  -0.34374
 Alpha  occ. eigenvalues --   -0.34092  -0.33401  -0.33234  -0.31598  -0.31251
 Alpha  occ. eigenvalues --   -0.30916  -0.30134  -0.29834  -0.29403  -0.24528
 Alpha  occ. eigenvalues --   -0.21209
 Alpha virt. eigenvalues --   -0.09209  -0.02702  -0.00003   0.01822   0.02226
 Alpha virt. eigenvalues --    0.03529   0.04863   0.05035   0.05344   0.06313
 Alpha virt. eigenvalues --    0.07273   0.08227   0.08372   0.08573   0.08725

 Mulliken charges:
               1
     1  Mg   0.833430
     2  C   -0.174123
     3  C   -0.051385
     4  C   -0.058090
     5  C   -0.080373
     6  N   -0.320907
     7  C   -0.025690
     8  C   -0.018472
     9  C   -0.015234
    10  C    0.007833
    11  C    0.059513
    12  C    0.042415
    13  C    0.045163
    14  C    0.150521
    15  O   -0.246083
    16  O   -0.351385
    17  N   -0.374736
    18  C    0.132374
    19  C   -0.145753
    20  C   -0.057741
    21  C    0.170474
    22  C    0.118849
    23  C    0.002912
    24  O   -0.157723
    25  C    0.050486
    26  N   -0.312196
    27  C    0.003977
    28  C   -0.053019
    29  C   -0.040079
    30  C    0.059265
    31  C    0.059403
    32  C    0.009412
    33  C   -0.001213
    34  N   -0.376277
    35  C    0.157058
    36  C   -0.176373
    37  C   -0.052539
    38  C    0.226798
    39  C    0.130383
    40  C    0.077828
    41  O   -0.171587
    42  C    0.039121
    43  C    0.200517
    44  O   -0.212677
    45  O   -0.319892
    46  C    0.187735
    47  C    0.276442
    48  C   -0.122790
    49  C   -0.098140
    50  C    0.066958
    51  C    0.018111
    52  C    0.033682
    53  C    0.047857
    54  C   -0.161820
    55  C    0.070969
    56  C    0.042121
    57  C    0.017728
    58  C    0.053771
    59  C   -0.176953
    60  C    0.054582
    61  C    0.037099
    62  C    0.014063
    63  C    0.044340
    64  C   -0.144528
    65  C    0.059269
    66  C    0.050965
    67  H   -0.023396
    68  H   -0.049236
    69  H   -0.017502
    70  H    0.017708
    71  H    0.014671
    72  H    0.025713
    73  H    0.031712
    74  H    0.022286
    75  H    0.036317
    76  H    0.021571
    77  H    0.048743
    78  H    0.044777
    79  H    0.036039
    80  H    0.009423
    81  H    0.035001
    82  H    0.065274
    83  H    0.025135
    84  H    0.005189
    85  H    0.016859
    86  H    0.020632
    87  H    0.024677
    88  H    0.010668
    89  H    0.019861
    90  H    0.002641
    91  H    0.010125
    92  H    0.014142
    93  H    0.012968
    94  H    0.023911
    95  H    0.037536
    96  H    0.023981
    97  H    0.032860
    98  H    0.035922
    99  H    0.030558
   100  H    0.023354
   101  H    0.040906
   102  H    0.031410
   103  H    0.029536
   104  H   -0.002534
   105  H    0.023645
   106  H    0.004704
   107  H    0.026031
   108  H   -0.012554
   109  H   -0.003775
   110  H    0.000447
   111  H   -0.007611
   112  H    0.005057
   113  H    0.005237
   114  H    0.008316
   115  H   -0.009126
   116  H    0.013918
   117  H    0.005701
   118  H   -0.013586
   119  H   -0.005196
   120  H   -0.014321
   121  H   -0.013040
   122  H   -0.001031
   123  H   -0.001424
   124  H    0.005003
   125  H    0.013019
   126  H    0.015162
   127  H    0.012670
   128  H    0.004495
   129  H   -0.012325
   130  H   -0.003284
   131  H   -0.007103
   132  H   -0.003786
   133  H   -0.000855
   134  H   -0.010583
   135  H    0.011148
   136  H   -0.012288
   137  H   -0.008921
   138  H    0.016723
   139  H    0.005342
   140  H    0.019108
 Sum of Mulliken charges =  -0.00000

 Dipole moment (field-independent basis, Debye):
    X=              0.8805    Y=              7.0376    Z=             -0.6633  Tot=              7.1234
 Quadrupole moment (field-independent basis, Debye-Ang):
   XX=           -405.6275   YY=           -422.5267   ZZ=           -408.8325
   XY=            -41.9414   XZ=            -30.1161   YZ=            -30.4598

 Normal termination of Gaussian 16 at Tue May  3 22:15:59 2022.
