 Gaussian 16, Revision A.03,
 Gaussian 16:  ES64L-G16RevA.03 25-Dec-2016

 ---------------------------------
 #p PBE1PBE/Def2SVP td=(nstates=5)
 ---------------------------------

 ------------------------------------------------------
 step_1051_chromophore_26 TDDFT with PBE1PBE functional
 ------------------------------------------------------
 Symbolic Z-matrix:
 Charge =  0 Multiplicity = 1

                         Standard orientation:
 ---------------------------------------------------------------------
 Center     Atomic      Atomic             Coordinates (Angstroms)
 Number     Number       Type             X           Y           Z
 ---------------------------------------------------------------------
      1         12           0       -4.134826    1.303524    0.672607
      2          6           0       -5.123371   -1.985334   -0.255680
      3          6           0       -2.574316   -0.147846    3.488806
      4          6           0       -2.395693    4.233824    1.267020
      5          6           0       -5.233007    2.447430   -2.443937
      6          7           0       -3.938189   -0.715419    1.456994
      7          6           0       -4.343565   -1.929109    0.891329
      8          6           0       -3.998440   -3.130733    1.689114
      9          6           0       -3.413460   -2.551842    3.013553
     10          6           0       -3.330181   -1.026310    2.685159
     11          6           0       -4.279206   -2.782642    4.384015
     12          6           0       -3.139007   -4.174835    0.829494
     13          6           0       -1.931978   -3.625070    0.022946
     14          6           0       -0.617491   -4.427281    0.086007
     15          8           0       -0.524123   -5.652029    0.223944
     16          8           0        0.499176   -3.618983   -0.041862
     17          7           0       -2.696499    2.024755    2.157462
     18          6           0       -2.146019    1.264030    3.224169
     19          6           0       -1.266441    2.073416    4.023792
     20          6           0       -1.090584    3.322386    3.342342
     21          6           0       -2.090609    3.288574    2.234246
     22          6           0       -0.636376    1.575063    5.290730
     23          6           0       -0.106964    4.414179    3.689631
     24          8           0        0.568136    4.360276    4.668855
     25          6           0       -0.078301    5.545149    2.841724
     26          7           0       -3.933148    3.094650   -0.354025
     27          6           0       -3.218851    4.183926    0.076947
     28          6           0       -3.232732    5.282218   -0.920024
     29          6           0       -4.175978    4.739771   -2.034474
     30          6           0       -4.394210    3.278862   -1.631672
     31          6           0       -3.685742    6.652293   -0.341953
     32          6           0       -3.394797    4.913910   -3.419297
     33          6           0       -4.179221    5.904943   -4.328517
     34          7           0       -5.040583    0.495435   -1.020668
     35          6           0       -5.534427    1.103701   -2.171549
     36          6           0       -6.269422    0.069011   -2.910484
     37          6           0       -6.101616   -1.154421   -2.192319
     38          6           0       -5.331881   -0.833922   -1.033663
     39          6           0       -7.036807    0.245884   -4.153455
     40          6           0       -6.477618   -2.532940   -2.284379
     41          8           0       -7.140282   -3.183568   -3.094503
     42          6           0       -5.810455   -3.154184   -1.019805
     43          6           0       -6.915431   -3.626994   -0.120683
     44          8           0       -7.030142   -4.772193    0.298481
     45          8           0       -7.878624   -2.668013    0.020428
     46          6           0       -8.798293   -2.975459    1.103502
     47          6           0        1.845263   -4.223242   -0.171732
     48          6           0        2.944696   -3.362192   -0.677825
     49          6           0        3.000449   -2.833356   -1.930220
     50          6           0        1.930789   -2.933488   -3.025330
     51          6           0        4.224313   -2.103471   -2.430768
     52          6           0        4.374415   -0.572030   -2.557477
     53          6           0        5.844159   -0.132112   -2.744174
     54          6           0        6.074812    1.145858   -1.821201
     55          6           0        6.036060    2.384316   -2.703902
     56          6           0        7.453768    1.001040   -1.179419
     57          6           0        7.425341    0.285884    0.211152
     58          6           0        8.379678   -0.930541    0.432566
     59          6           0        9.483372   -0.751675    1.557671
     60          6           0        9.175520   -1.817254    2.736642
     61          6           0       10.830448   -1.058288    0.833355
     62          6           0       11.530320    0.271416    0.378790
     63          6           0       12.476980    0.061100   -0.833045
     64          6           0       13.940777    0.376945   -0.598101
     65          6           0       14.656414    0.602006   -1.847322
     66          6           0       14.597577   -0.834583    0.240102
     67          1           0       -2.164622   -0.684152    4.347414
     68          1           0       -1.888395    5.201115    1.269799
     69          1           0       -5.576593    2.972877   -3.337715
     70          1           0       -4.965148   -3.597421    1.881499
     71          1           0       -2.369043   -2.864075    3.004424
     72          1           0       -4.333657   -1.861462    4.963281
     73          1           0       -3.779641   -3.571013    4.946722
     74          1           0       -5.317043   -3.083026    4.238811
     75          1           0       -3.839155   -4.804269    0.279447
     76          1           0       -2.647611   -4.863507    1.517801
     77          1           0       -1.538853   -2.653014    0.322158
     78          1           0       -2.225996   -3.671258   -1.025824
     79          1           0        0.321817    2.082295    5.398513
     80          1           0       -0.462136    0.509386    5.142598
     81          1           0       -1.216832    1.694162    6.205272
     82          1           0       -0.876226    6.285318    2.893594
     83          1           0        0.131685    5.173112    1.839204
     84          1           0        0.828297    6.147766    2.905533
     85          1           0       -2.196669    5.454450   -1.212716
     86          1           0       -5.075170    5.355848   -2.044789
     87          1           0       -4.352663    6.482862    0.503272
     88          1           0       -4.266812    7.289402   -1.009168
     89          1           0       -2.725795    7.154432   -0.221055
     90          1           0       -3.381965    3.935692   -3.902372
     91          1           0       -2.336562    5.174835   -3.417201
     92          1           0       -3.427370    6.209546   -5.057257
     93          1           0       -4.489328    6.762487   -3.731473
     94          1           0       -5.044430    5.430090   -4.791421
     95          1           0       -7.372946   -0.757669   -4.411747
     96          1           0       -6.322288    0.592484   -4.899934
     97          1           0       -7.839292    0.956654   -3.957066
     98          1           0       -5.068295   -3.906562   -1.286741
     99          1           0       -9.322056   -2.043175    1.315110
    100          1           0       -8.269999   -3.304310    1.999148
    101          1           0       -9.564783   -3.736948    0.960855
    102          1           0        1.808264   -4.867941   -1.049482
    103          1           0        2.107535   -4.738216    0.751779
    104          1           0        3.773089   -3.250701    0.021980
    105          1           0        1.549814   -1.974326   -3.376204
    106          1           0        1.027166   -3.418766   -2.656594
    107          1           0        2.260866   -3.436274   -3.933491
    108          1           0        4.410863   -2.325010   -3.481582
    109          1           0        5.089140   -2.559095   -1.948860
    110          1           0        3.922132   -0.101394   -1.684277
    111          1           0        3.792713   -0.306013   -3.439428
    112          1           0        5.964396    0.085663   -3.805056
    113          1           0        6.468212   -0.971190   -2.434520
    114          1           0        5.295287    1.189712   -1.060707
    115          1           0        5.542418    2.117096   -3.637133
    116          1           0        6.983363    2.824000   -3.016121
    117          1           0        5.398246    3.101932   -2.186170
    118          1           0        7.895911    1.990064   -1.061577
    119          1           0        8.120027    0.539660   -1.906902
    120          1           0        6.366912    0.114040    0.410219
    121          1           0        7.631733    1.011985    0.997749
    122          1           0        8.842687   -0.945913   -0.554777
    123          1           0        7.828166   -1.850153    0.626245
    124          1           0        9.434796    0.273871    1.923831
    125          1           0        9.339209   -1.219130    3.631902
    126          1           0        9.868245   -2.657958    2.766011
    127          1           0        8.148493   -2.145643    2.574768
    128          1           0       10.697055   -1.796813    0.042085
    129          1           0       11.413613   -1.543377    1.616373
    130          1           0       11.981324    0.795709    1.221598
    131          1           0       10.668234    0.899175    0.155684
    132          1           0       11.969720    0.723643   -1.534717
    133          1           0       12.501650   -0.980115   -1.153292
    134          1           0       13.970837    1.359452   -0.127711
    135          1           0       15.181302    1.557038   -1.814521
    136          1           0       13.997920    0.557702   -2.715395
    137          1           0       15.344456   -0.161040   -2.210981
    138          1           0       15.404690   -1.340647   -0.290005
    139          1           0       13.810614   -1.574758    0.382220
    140          1           0       14.852235   -0.437262    1.222343
 ---------------------------------------------------------------------

 SCF Done:  E(RPBE1PBE) =  -3005.31191853     A.U. after   15 cycles

 Excitation energies and oscillator strengths:

 Excited State   1:      Singlet-A      1.7675 eV  701.47 nm  f=0.3533  <S**2>=0.000
     245 -> 248        0.16513
     246 -> 247        0.69541
     246 <- 247       -0.11604
 This state for optimization and/or second-order correction.
 Total Energy, E(TD-HF/TD-DFT) =  -3005.24696487
 Copying the excited state density for this state as the 1-particle RhoCI density.

 Excited State   2:      Singlet-A      2.1791 eV  568.97 nm  f=0.0737  <S**2>=0.000
     245 -> 247        0.63801
     246 -> 248       -0.28412

 Excited State   3:      Singlet-A      2.8210 eV  439.50 nm  f=0.0024  <S**2>=0.000
     244 -> 247        0.69378

 Excited State   4:      Singlet-A      2.9838 eV  415.52 nm  f=0.0011  <S**2>=0.000
     241 -> 247       -0.43867
     241 -> 249        0.11217
     242 -> 247        0.50755
     246 -> 248        0.13595

 Excited State   5:      Singlet-A      3.0369 eV  408.25 nm  f=0.0073  <S**2>=0.000
     240 -> 247       -0.26173
     241 -> 247        0.45502
     241 -> 249       -0.11700
     242 -> 247        0.43537

 The electronic state is 1-A.
 Alpha  occ. eigenvalues --  -46.92308 -19.26498 -19.25109 -19.20360 -19.19527
 Alpha  occ. eigenvalues --  -19.19501 -19.18880 -14.42449 -14.42295 -14.39669
 Alpha  occ. eigenvalues --  -14.39363 -10.36765 -10.36405 -10.32289 -10.31483
 Alpha  occ. eigenvalues --  -10.29393 -10.29320 -10.29307 -10.29160 -10.29112
 Alpha  occ. eigenvalues --  -10.29081 -10.28591 -10.28433 -10.28007 -10.27019
 Alpha  occ. eigenvalues --  -10.27010 -10.26527 -10.26050 -10.26023 -10.25983
 Alpha  occ. eigenvalues --  -10.25979 -10.25842 -10.25803 -10.25713 -10.25670
 Alpha  occ. eigenvalues --  -10.25649 -10.25460 -10.25341 -10.25108 -10.24859
 Alpha  occ. eigenvalues --  -10.24820 -10.24606 -10.24344 -10.23927 -10.23608
 Alpha  occ. eigenvalues --  -10.23605 -10.23408 -10.23391 -10.23179 -10.22873
 Alpha  occ. eigenvalues --  -10.22864 -10.22840 -10.22831 -10.22810 -10.22790
 Alpha  occ. eigenvalues --  -10.22768 -10.22362 -10.22230 -10.22173 -10.22138
 Alpha  occ. eigenvalues --  -10.22104 -10.22070 -10.22060 -10.21908 -10.21802
 Alpha  occ. eigenvalues --  -10.20751  -3.14388  -1.87233  -1.86729  -1.86638
 Alpha  occ. eigenvalues --   -1.12018  -1.09650  -1.06717  -1.04130  -1.02884
 Alpha  occ. eigenvalues --   -1.01245  -0.98769  -0.97817  -0.96741  -0.95405
 Alpha  occ. eigenvalues --   -0.87482  -0.84731  -0.83703  -0.83543  -0.83354
 Alpha  occ. eigenvalues --   -0.83048  -0.82875  -0.81567  -0.81504  -0.80847
 Alpha  occ. eigenvalues --   -0.80549  -0.79770  -0.79172  -0.78388  -0.78093
 Alpha  occ. eigenvalues --   -0.77000  -0.76538  -0.75582  -0.75009  -0.74730
 Alpha  occ. eigenvalues --   -0.73921  -0.72664  -0.72129  -0.71652  -0.70821
 Alpha  occ. eigenvalues --   -0.69881  -0.69629  -0.69472  -0.68618  -0.68241
 Alpha  occ. eigenvalues --   -0.67922  -0.67002  -0.66396  -0.65129  -0.63461
 Alpha  occ. eigenvalues --   -0.63337  -0.62259  -0.61873  -0.60783  -0.60712
 Alpha  occ. eigenvalues --   -0.59754  -0.59617  -0.59332  -0.59094  -0.58410
 Alpha  occ. eigenvalues --   -0.57973  -0.57849  -0.57452  -0.56796  -0.54740
 Alpha  occ. eigenvalues --   -0.54041  -0.53833  -0.53626  -0.53014  -0.52663
 Alpha  occ. eigenvalues --   -0.52327  -0.51530  -0.51175  -0.50842  -0.50804
 Alpha  occ. eigenvalues --   -0.49895  -0.49753  -0.49267  -0.48881  -0.48688
 Alpha  occ. eigenvalues --   -0.48303  -0.48117  -0.47864  -0.47768  -0.47507
 Alpha  occ. eigenvalues --   -0.47363  -0.46714  -0.46606  -0.46377  -0.46173
 Alpha  occ. eigenvalues --   -0.45998  -0.45889  -0.45593  -0.45545  -0.45163
 Alpha  occ. eigenvalues --   -0.45155  -0.44799  -0.44490  -0.44147  -0.44046
 Alpha  occ. eigenvalues --   -0.43959  -0.43875  -0.43653  -0.43568  -0.43461
 Alpha  occ. eigenvalues --   -0.43285  -0.43052  -0.42871  -0.42548  -0.42229
 Alpha  occ. eigenvalues --   -0.42153  -0.41766  -0.41558  -0.41476  -0.41249
 Alpha  occ. eigenvalues --   -0.41086  -0.41079  -0.40985  -0.40673  -0.40665
 Alpha  occ. eigenvalues --   -0.40541  -0.40282  -0.40080  -0.39832  -0.39701
 Alpha  occ. eigenvalues --   -0.39675  -0.39262  -0.38894  -0.38744  -0.38666
 Alpha  occ. eigenvalues --   -0.38617  -0.38176  -0.38079  -0.38033  -0.37885
 Alpha  occ. eigenvalues --   -0.37665  -0.37628  -0.37459  -0.37358  -0.37269
 Alpha  occ. eigenvalues --   -0.36967  -0.36870  -0.36515  -0.36308  -0.36203
 Alpha  occ. eigenvalues --   -0.36066  -0.35689  -0.35525  -0.35196  -0.35108
 Alpha  occ. eigenvalues --   -0.35057  -0.34303  -0.34148  -0.33926  -0.33682
 Alpha  occ. eigenvalues --   -0.33176  -0.32984  -0.32628  -0.32448  -0.32422
 Alpha  occ. eigenvalues --   -0.32308  -0.32047  -0.31699  -0.31591  -0.31326
 Alpha  occ. eigenvalues --   -0.30819  -0.30051  -0.29845  -0.29393  -0.29294
 Alpha  occ. eigenvalues --   -0.29039  -0.28760  -0.28163  -0.26958  -0.26169
 Alpha  occ. eigenvalues --   -0.25946  -0.25470  -0.25458  -0.24934  -0.21407
 Alpha  occ. eigenvalues --   -0.18879
 Alpha virt. eigenvalues --   -0.11655  -0.06139  -0.04210  -0.02299  -0.00918
 Alpha virt. eigenvalues --   -0.00893   0.00272   0.00687   0.00787   0.02639
 Alpha virt. eigenvalues --    0.03615   0.04110   0.04969   0.05195   0.05505

 Mulliken charges:
               1
     1  Mg   0.979099
     2  C   -0.161433
     3  C   -0.045827
     4  C   -0.067197
     5  C   -0.072953
     6  N   -0.420597
     7  C    0.035607
     8  C   -0.075934
     9  C   -0.097314
    10  C    0.039656
    11  C    0.001659
    12  C   -0.009431
    13  C   -0.034163
    14  C    0.218998
    15  O   -0.278282
    16  O   -0.382194
    17  N   -0.476459
    18  C    0.156675
    19  C   -0.170577
    20  C   -0.102901
    21  C    0.202102
    22  C    0.061025
    23  C    0.057463
    24  O   -0.199068
    25  C   -0.026454
    26  N   -0.425229
    27  C    0.055756
    28  C   -0.132566
    29  C   -0.127042
    30  C    0.104601
    31  C    0.003826
    32  C   -0.043220
    33  C   -0.077482
    34  N   -0.502461
    35  C    0.180274
    36  C   -0.193200
    37  C   -0.093661
    38  C    0.272321
    39  C    0.073655
    40  C    0.165039
    41  O   -0.219221
    42  C   -0.078621
    43  C    0.291178
    44  O   -0.249926
    45  O   -0.347610
    46  C    0.131580
    47  C    0.230003
    48  C   -0.132287
    49  C   -0.140070
    50  C    0.004175
    51  C   -0.043771
    52  C   -0.027357
    53  C   -0.006614
    54  C   -0.253887
    55  C    0.014712
    56  C   -0.012607
    57  C   -0.036504
    58  C   -0.002051
    59  C   -0.260793
    60  C   -0.005656
    61  C   -0.019200
    62  C   -0.042993
    63  C   -0.018336
    64  C   -0.240013
    65  C    0.006627
    66  C   -0.009942
    67  H    0.007950
    68  H   -0.016263
    69  H    0.013863
    70  H    0.060502
    71  H    0.052552
    72  H    0.052198
    73  H    0.058908
    74  H    0.048551
    75  H    0.066668
    76  H    0.055075
    77  H    0.080725
    78  H    0.078132
    79  H    0.063889
    80  H    0.036884
    81  H    0.062360
    82  H    0.090091
    83  H    0.052648
    84  H    0.033656
    85  H    0.053920
    86  H    0.056989
    87  H    0.052595
    88  H    0.038632
    89  H    0.046125
    90  H    0.036582
    91  H    0.040634
    92  H    0.042803
    93  H    0.041940
    94  H    0.051645
    95  H    0.065767
    96  H    0.052154
    97  H    0.060419
    98  H    0.072845
    99  H    0.052920
   100  H    0.045193
   101  H    0.062774
   102  H    0.058571
   103  H    0.055379
   104  H    0.026691
   105  H    0.051473
   106  H    0.034054
   107  H    0.053004
   108  H    0.021843
   109  H    0.027629
   110  H    0.033536
   111  H    0.025621
   112  H    0.037009
   113  H    0.038654
   114  H    0.043668
   115  H    0.019030
   116  H    0.040011
   117  H    0.034158
   118  H    0.019832
   119  H    0.025836
   120  H    0.018724
   121  H    0.019740
   122  H    0.033098
   123  H    0.029755
   124  H    0.039728
   125  H    0.041124
   126  H    0.041460
   127  H    0.039775
   128  H    0.034795
   129  H    0.022078
   130  H    0.028061
   131  H    0.028832
   132  H    0.028687
   133  H    0.032091
   134  H    0.026803
   135  H    0.038015
   136  H    0.014866
   137  H    0.017887
   138  H    0.042955
   139  H    0.033861
   140  H    0.046412
 Sum of Mulliken charges =  -0.00000

 Dipole moment (field-independent basis, Debye):
    X=              0.8400    Y=              7.0403    Z=             -0.7727  Tot=              7.1322
 Quadrupole moment (field-independent basis, Debye-Ang):
   XX=           -402.5200   YY=           -418.9449   ZZ=           -405.1168
   XY=            -42.1076   XZ=            -29.9561   YZ=            -32.0287

 Normal termination of Gaussian 16 at Tue May  3 22:41:05 2022.
