 Gaussian 16, Revision A.03,
 Gaussian 16:  ES64L-G16RevA.03 25-Dec-2016

 --------------------------------
 #p wB97XD/Def2SVP td=(nstates=5)
 --------------------------------

 -----------------------------------------------------
 step_1051_chromophore_26 TDDFT with wB97XD functional
 -----------------------------------------------------
 Symbolic Z-matrix:
 Charge =  0 Multiplicity = 1

                         Standard orientation:
 ---------------------------------------------------------------------
 Center     Atomic      Atomic             Coordinates (Angstroms)
 Number     Number       Type             X           Y           Z
 ---------------------------------------------------------------------
      1         12           0       -4.134826    1.303524    0.672607
      2          6           0       -5.123371   -1.985334   -0.255680
      3          6           0       -2.574316   -0.147846    3.488806
      4          6           0       -2.395693    4.233824    1.267020
      5          6           0       -5.233007    2.447430   -2.443937
      6          7           0       -3.938189   -0.715419    1.456994
      7          6           0       -4.343565   -1.929109    0.891329
      8          6           0       -3.998440   -3.130733    1.689114
      9          6           0       -3.413460   -2.551842    3.013553
     10          6           0       -3.330181   -1.026310    2.685159
     11          6           0       -4.279206   -2.782642    4.384015
     12          6           0       -3.139007   -4.174835    0.829494
     13          6           0       -1.931978   -3.625070    0.022946
     14          6           0       -0.617491   -4.427281    0.086007
     15          8           0       -0.524123   -5.652029    0.223944
     16          8           0        0.499176   -3.618983   -0.041862
     17          7           0       -2.696499    2.024755    2.157462
     18          6           0       -2.146019    1.264030    3.224169
     19          6           0       -1.266441    2.073416    4.023792
     20          6           0       -1.090584    3.322386    3.342342
     21          6           0       -2.090609    3.288574    2.234246
     22          6           0       -0.636376    1.575063    5.290730
     23          6           0       -0.106964    4.414179    3.689631
     24          8           0        0.568136    4.360276    4.668855
     25          6           0       -0.078301    5.545149    2.841724
     26          7           0       -3.933148    3.094650   -0.354025
     27          6           0       -3.218851    4.183926    0.076947
     28          6           0       -3.232732    5.282218   -0.920024
     29          6           0       -4.175978    4.739771   -2.034474
     30          6           0       -4.394210    3.278862   -1.631672
     31          6           0       -3.685742    6.652293   -0.341953
     32          6           0       -3.394797    4.913910   -3.419297
     33          6           0       -4.179221    5.904943   -4.328517
     34          7           0       -5.040583    0.495435   -1.020668
     35          6           0       -5.534427    1.103701   -2.171549
     36          6           0       -6.269422    0.069011   -2.910484
     37          6           0       -6.101616   -1.154421   -2.192319
     38          6           0       -5.331881   -0.833922   -1.033663
     39          6           0       -7.036807    0.245884   -4.153455
     40          6           0       -6.477618   -2.532940   -2.284379
     41          8           0       -7.140282   -3.183568   -3.094503
     42          6           0       -5.810455   -3.154184   -1.019805
     43          6           0       -6.915431   -3.626994   -0.120683
     44          8           0       -7.030142   -4.772193    0.298481
     45          8           0       -7.878624   -2.668013    0.020428
     46          6           0       -8.798293   -2.975459    1.103502
     47          6           0        1.845263   -4.223242   -0.171732
     48          6           0        2.944696   -3.362192   -0.677825
     49          6           0        3.000449   -2.833356   -1.930220
     50          6           0        1.930789   -2.933488   -3.025330
     51          6           0        4.224313   -2.103471   -2.430768
     52          6           0        4.374415   -0.572030   -2.557477
     53          6           0        5.844159   -0.132112   -2.744174
     54          6           0        6.074812    1.145858   -1.821201
     55          6           0        6.036060    2.384316   -2.703902
     56          6           0        7.453768    1.001040   -1.179419
     57          6           0        7.425341    0.285884    0.211152
     58          6           0        8.379678   -0.930541    0.432566
     59          6           0        9.483372   -0.751675    1.557671
     60          6           0        9.175520   -1.817254    2.736642
     61          6           0       10.830448   -1.058288    0.833355
     62          6           0       11.530320    0.271416    0.378790
     63          6           0       12.476980    0.061100   -0.833045
     64          6           0       13.940777    0.376945   -0.598101
     65          6           0       14.656414    0.602006   -1.847322
     66          6           0       14.597577   -0.834583    0.240102
     67          1           0       -2.164622   -0.684152    4.347414
     68          1           0       -1.888395    5.201115    1.269799
     69          1           0       -5.576593    2.972877   -3.337715
     70          1           0       -4.965148   -3.597421    1.881499
     71          1           0       -2.369043   -2.864075    3.004424
     72          1           0       -4.333657   -1.861462    4.963281
     73          1           0       -3.779641   -3.571013    4.946722
     74          1           0       -5.317043   -3.083026    4.238811
     75          1           0       -3.839155   -4.804269    0.279447
     76          1           0       -2.647611   -4.863507    1.517801
     77          1           0       -1.538853   -2.653014    0.322158
     78          1           0       -2.225996   -3.671258   -1.025824
     79          1           0        0.321817    2.082295    5.398513
     80          1           0       -0.462136    0.509386    5.142598
     81          1           0       -1.216832    1.694162    6.205272
     82          1           0       -0.876226    6.285318    2.893594
     83          1           0        0.131685    5.173112    1.839204
     84          1           0        0.828297    6.147766    2.905533
     85          1           0       -2.196669    5.454450   -1.212716
     86          1           0       -5.075170    5.355848   -2.044789
     87          1           0       -4.352663    6.482862    0.503272
     88          1           0       -4.266812    7.289402   -1.009168
     89          1           0       -2.725795    7.154432   -0.221055
     90          1           0       -3.381965    3.935692   -3.902372
     91          1           0       -2.336562    5.174835   -3.417201
     92          1           0       -3.427370    6.209546   -5.057257
     93          1           0       -4.489328    6.762487   -3.731473
     94          1           0       -5.044430    5.430090   -4.791421
     95          1           0       -7.372946   -0.757669   -4.411747
     96          1           0       -6.322288    0.592484   -4.899934
     97          1           0       -7.839292    0.956654   -3.957066
     98          1           0       -5.068295   -3.906562   -1.286741
     99          1           0       -9.322056   -2.043175    1.315110
    100          1           0       -8.269999   -3.304310    1.999148
    101          1           0       -9.564783   -3.736948    0.960855
    102          1           0        1.808264   -4.867941   -1.049482
    103          1           0        2.107535   -4.738216    0.751779
    104          1           0        3.773089   -3.250701    0.021980
    105          1           0        1.549814   -1.974326   -3.376204
    106          1           0        1.027166   -3.418766   -2.656594
    107          1           0        2.260866   -3.436274   -3.933491
    108          1           0        4.410863   -2.325010   -3.481582
    109          1           0        5.089140   -2.559095   -1.948860
    110          1           0        3.922132   -0.101394   -1.684277
    111          1           0        3.792713   -0.306013   -3.439428
    112          1           0        5.964396    0.085663   -3.805056
    113          1           0        6.468212   -0.971190   -2.434520
    114          1           0        5.295287    1.189712   -1.060707
    115          1           0        5.542418    2.117096   -3.637133
    116          1           0        6.983363    2.824000   -3.016121
    117          1           0        5.398246    3.101932   -2.186170
    118          1           0        7.895911    1.990064   -1.061577
    119          1           0        8.120027    0.539660   -1.906902
    120          1           0        6.366912    0.114040    0.410219
    121          1           0        7.631733    1.011985    0.997749
    122          1           0        8.842687   -0.945913   -0.554777
    123          1           0        7.828166   -1.850153    0.626245
    124          1           0        9.434796    0.273871    1.923831
    125          1           0        9.339209   -1.219130    3.631902
    126          1           0        9.868245   -2.657958    2.766011
    127          1           0        8.148493   -2.145643    2.574768
    128          1           0       10.697055   -1.796813    0.042085
    129          1           0       11.413613   -1.543377    1.616373
    130          1           0       11.981324    0.795709    1.221598
    131          1           0       10.668234    0.899175    0.155684
    132          1           0       11.969720    0.723643   -1.534717
    133          1           0       12.501650   -0.980115   -1.153292
    134          1           0       13.970837    1.359452   -0.127711
    135          1           0       15.181302    1.557038   -1.814521
    136          1           0       13.997920    0.557702   -2.715395
    137          1           0       15.344456   -0.161040   -2.210981
    138          1           0       15.404690   -1.340647   -0.290005
    139          1           0       13.810614   -1.574758    0.382220
    140          1           0       14.852235   -0.437262    1.222343
 ---------------------------------------------------------------------

 SCF Done:  E(RwB97XD) =  -3007.82000373     A.U. after   20 cycles

 Excitation energies and oscillator strengths:

 Excited State   1:      Singlet-A      1.5521 eV  798.81 nm  f=0.3665  <S**2>=0.000
     245 -> 248        0.17701
     246 -> 247        0.68499
     245 <- 248        0.11648
 This state for optimization and/or second-order correction.
 Total Energy, E(TD-HF/TD-DFT) =  -3007.76296504
 Copying the excited state density for this state as the 1-particle RhoCI density.

 Excited State   2:      Singlet-A      2.1248 eV  583.50 nm  f=0.0717  <S**2>=0.000
     245 -> 247        0.62183
     246 -> 248       -0.31737

 Excited State   3:      Singlet-A      3.1847 eV  389.32 nm  f=0.0172  <S**2>=0.000
     244 -> 247        0.65951
     246 -> 248        0.18417

 Excited State   4:      Singlet-A      3.3544 eV  369.62 nm  f=0.2700  <S**2>=0.000
     243 -> 247        0.44022
     244 -> 247       -0.17219
     245 -> 247        0.19923
     246 -> 248        0.46588

 Excited State   5:      Singlet-A      3.4886 eV  355.40 nm  f=0.5218  <S**2>=0.000
     243 -> 247        0.50731
     245 -> 247       -0.26922
     246 -> 248       -0.37651

 The electronic state is 1-A.
 Alpha  occ. eigenvalues --  -46.95245 -19.31075 -19.29650 -19.25048 -19.24276
 Alpha  occ. eigenvalues --  -19.24181 -19.23809 -14.47661 -14.47215 -14.44711
 Alpha  occ. eigenvalues --  -14.44249 -10.43563 -10.43161 -10.39143 -10.38421
 Alpha  occ. eigenvalues --  -10.35737 -10.35658 -10.35627 -10.35614 -10.35447
 Alpha  occ. eigenvalues --  -10.35367 -10.35061 -10.34848 -10.34196 -10.33341
 Alpha  occ. eigenvalues --  -10.33251 -10.32899 -10.32515 -10.32514 -10.32344
 Alpha  occ. eigenvalues --  -10.32274 -10.32159 -10.32074 -10.32067 -10.31962
 Alpha  occ. eigenvalues --  -10.31858 -10.31741 -10.31705 -10.31671 -10.31348
 Alpha  occ. eigenvalues --  -10.31196 -10.30869 -10.30725 -10.30300 -10.29984
 Alpha  occ. eigenvalues --  -10.29856 -10.29826 -10.29659 -10.29643 -10.29484
 Alpha  occ. eigenvalues --  -10.29314 -10.29208 -10.29184 -10.29142 -10.29105
 Alpha  occ. eigenvalues --  -10.29049 -10.28739 -10.28573 -10.28548 -10.28539
 Alpha  occ. eigenvalues --  -10.28490 -10.28452 -10.28415 -10.28272 -10.28223
 Alpha  occ. eigenvalues --  -10.27180  -3.21193  -1.94785  -1.94280  -1.94188
 Alpha  occ. eigenvalues --   -1.19415  -1.17017  -1.14278  -1.11591  -1.10244
 Alpha  occ. eigenvalues --   -1.08574  -1.06184  -1.05177  -1.04107  -1.02890
 Alpha  occ. eigenvalues --   -0.95062  -0.92391  -0.91364  -0.91117  -0.90994
 Alpha  occ. eigenvalues --   -0.90667  -0.90532  -0.89173  -0.89164  -0.88494
 Alpha  occ. eigenvalues --   -0.88317  -0.87427  -0.86851  -0.86007  -0.85742
 Alpha  occ. eigenvalues --   -0.84688  -0.84195  -0.83219  -0.82659  -0.82338
 Alpha  occ. eigenvalues --   -0.81595  -0.80283  -0.79730  -0.79345  -0.78445
 Alpha  occ. eigenvalues --   -0.77539  -0.77236  -0.77173  -0.76297  -0.75897
 Alpha  occ. eigenvalues --   -0.75522  -0.74551  -0.73954  -0.72725  -0.71017
 Alpha  occ. eigenvalues --   -0.70894  -0.69883  -0.69436  -0.68356  -0.68272
 Alpha  occ. eigenvalues --   -0.67288  -0.67115  -0.66859  -0.66572  -0.66060
 Alpha  occ. eigenvalues --   -0.65536  -0.65400  -0.64890  -0.64428  -0.62224
 Alpha  occ. eigenvalues --   -0.61481  -0.61269  -0.61118  -0.60400  -0.60057
 Alpha  occ. eigenvalues --   -0.59791  -0.59044  -0.58615  -0.58308  -0.58152
 Alpha  occ. eigenvalues --   -0.57326  -0.57189  -0.56612  -0.56307  -0.56039
 Alpha  occ. eigenvalues --   -0.55783  -0.55736  -0.55195  -0.55080  -0.54914
 Alpha  occ. eigenvalues --   -0.54724  -0.54084  -0.53951  -0.53713  -0.53538
 Alpha  occ. eigenvalues --   -0.53361  -0.53227  -0.52976  -0.52876  -0.52595
 Alpha  occ. eigenvalues --   -0.52491  -0.52063  -0.51785  -0.51471  -0.51389
 Alpha  occ. eigenvalues --   -0.51263  -0.51222  -0.50975  -0.50875  -0.50724
 Alpha  occ. eigenvalues --   -0.50558  -0.50294  -0.50176  -0.49753  -0.49546
 Alpha  occ. eigenvalues --   -0.49397  -0.48975  -0.48813  -0.48706  -0.48492
 Alpha  occ. eigenvalues --   -0.48330  -0.48315  -0.48191  -0.47947  -0.47899
 Alpha  occ. eigenvalues --   -0.47720  -0.47488  -0.47283  -0.47045  -0.46931
 Alpha  occ. eigenvalues --   -0.46861  -0.46450  -0.46020  -0.45906  -0.45830
 Alpha  occ. eigenvalues --   -0.45747  -0.45339  -0.45227  -0.45143  -0.45132
 Alpha  occ. eigenvalues --   -0.44805  -0.44725  -0.44563  -0.44474  -0.44372
 Alpha  occ. eigenvalues --   -0.44079  -0.43946  -0.43603  -0.43398  -0.43239
 Alpha  occ. eigenvalues --   -0.43165  -0.42747  -0.42501  -0.42281  -0.42178
 Alpha  occ. eigenvalues --   -0.42034  -0.41261  -0.41218  -0.41000  -0.40744
 Alpha  occ. eigenvalues --   -0.40202  -0.39911  -0.39641  -0.39523  -0.39397
 Alpha  occ. eigenvalues --   -0.39368  -0.39007  -0.38731  -0.38553  -0.38371
 Alpha  occ. eigenvalues --   -0.37784  -0.36927  -0.36763  -0.36363  -0.36211
 Alpha  occ. eigenvalues --   -0.35926  -0.35475  -0.35289  -0.33656  -0.33292
 Alpha  occ. eigenvalues --   -0.32960  -0.32136  -0.32004  -0.31593  -0.26446
 Alpha  occ. eigenvalues --   -0.22994
 Alpha virt. eigenvalues --   -0.07561  -0.00769   0.02047   0.04189   0.05109
 Alpha virt. eigenvalues --    0.05743   0.07085   0.07355   0.07667   0.09154
 Alpha virt. eigenvalues --    0.10115   0.10854   0.11695   0.11907   0.12256

 Mulliken charges:
               1
     1  Mg   0.967977
     2  C   -0.174286
     3  C   -0.066028
     4  C   -0.069668
     5  C   -0.086831
     6  N   -0.392708
     7  C    0.012520
     8  C   -0.056951
     9  C   -0.072092
    10  C    0.033332
    11  C    0.013720
    12  C    0.002757
    13  C   -0.016506
    14  C    0.208079
    15  O   -0.275437
    16  O   -0.380818
    17  N   -0.447851
    18  C    0.150592
    19  C   -0.164131
    20  C   -0.097854
    21  C    0.193848
    22  C    0.074804
    23  C    0.054595
    24  O   -0.192183
    25  C   -0.015344
    26  N   -0.388715
    27  C    0.036579
    28  C   -0.104035
    29  C   -0.096862
    30  C    0.087045
    31  C    0.012129
    32  C   -0.032958
    33  C   -0.056975
    34  N   -0.463258
    35  C    0.165645
    36  C   -0.185834
    37  C   -0.094839
    38  C    0.255866
    39  C    0.084279
    40  C    0.150123
    41  O   -0.208127
    42  C   -0.037148
    43  C    0.269307
    44  O   -0.243775
    45  O   -0.349156
    46  C    0.147250
    47  C    0.245784
    48  C   -0.142640
    49  C   -0.129309
    50  C    0.019162
    51  C   -0.022619
    52  C   -0.010457
    53  C    0.008266
    54  C   -0.218665
    55  C    0.023699
    56  C    0.003729
    57  C   -0.023750
    58  C    0.018541
    59  C   -0.232941
    60  C    0.007898
    61  C   -0.002370
    62  C   -0.027668
    63  C    0.003022
    64  C   -0.211501
    65  C    0.013540
    66  C    0.004564
    67  H    0.001320
    68  H   -0.028788
    69  H    0.010284
    70  H    0.045277
    71  H    0.042104
    72  H    0.045744
    73  H    0.053691
    74  H    0.043679
    75  H    0.060256
    76  H    0.047093
    77  H    0.073111
    78  H    0.071338
    79  H    0.059500
    80  H    0.030343
    81  H    0.059052
    82  H    0.087089
    83  H    0.045322
    84  H    0.032519
    85  H    0.041985
    86  H    0.044884
    87  H    0.046803
    88  H    0.032928
    89  H    0.040830
    90  H    0.026701
    91  H    0.033953
    92  H    0.037307
    93  H    0.032680
    94  H    0.045180
    95  H    0.061292
    96  H    0.046934
    97  H    0.055841
    98  H    0.066097
    99  H    0.049795
   100  H    0.039703
   101  H    0.059008
   102  H    0.050826
   103  H    0.053098
   104  H    0.024818
   105  H    0.046039
   106  H    0.026018
   107  H    0.048006
   108  H    0.011650
   109  H    0.018337
   110  H    0.022811
   111  H    0.016998
   112  H    0.029131
   113  H    0.025487
   114  H    0.030191
   115  H    0.011518
   116  H    0.034987
   117  H    0.029047
   118  H    0.011214
   119  H    0.015403
   120  H    0.008924
   121  H    0.010855
   122  H    0.016435
   123  H    0.021563
   124  H    0.027595
   125  H    0.035537
   126  H    0.035954
   127  H    0.033037
   128  H    0.025868
   129  H    0.010993
   130  H    0.020824
   131  H    0.015076
   132  H    0.021071
   133  H    0.020261
   134  H    0.016635
   135  H    0.033596
   136  H    0.008504
   137  H    0.011805
   138  H    0.037875
   139  H    0.023707
   140  H    0.041087
 Sum of Mulliken charges =  -0.00000

 Dipole moment (field-independent basis, Debye):
    X=              0.8888    Y=              7.2132    Z=             -0.6365  Tot=              7.2955
 Quadrupole moment (field-independent basis, Debye-Ang):
   XX=           -401.9188   YY=           -418.8231   ZZ=           -404.4799
   XY=            -42.2049   XZ=            -29.9694   YZ=            -31.2515

 Normal termination of Gaussian 16 at Tue May  3 23:15:37 2022.
