 Gaussian 16, Revision A.03,
 Gaussian 16:  ES64L-G16RevA.03 25-Dec-2016

 --------------------
 #p ZINDO=(nstates=5)
 --------------------

 ------------------------------
 step_1051_chromophore_26 ZINDO
 ------------------------------
 Symbolic Z-matrix:
 Charge =  0 Multiplicity = 1

                         Standard orientation:
 ---------------------------------------------------------------------
 Center     Atomic      Atomic             Coordinates (Angstroms)
 Number     Number       Type             X           Y           Z
 ---------------------------------------------------------------------
      1         12           0       -4.134826    1.303524    0.672607
      2          6           0       -5.123371   -1.985334   -0.255680
      3          6           0       -2.574316   -0.147846    3.488806
      4          6           0       -2.395693    4.233824    1.267020
      5          6           0       -5.233007    2.447430   -2.443937
      6          7           0       -3.938189   -0.715419    1.456994
      7          6           0       -4.343565   -1.929109    0.891329
      8          6           0       -3.998440   -3.130733    1.689114
      9          6           0       -3.413460   -2.551842    3.013553
     10          6           0       -3.330181   -1.026310    2.685159
     11          6           0       -4.279206   -2.782642    4.384015
     12          6           0       -3.139007   -4.174835    0.829494
     13          6           0       -1.931978   -3.625070    0.022946
     14          6           0       -0.617491   -4.427281    0.086007
     15          8           0       -0.524123   -5.652029    0.223944
     16          8           0        0.499176   -3.618983   -0.041862
     17          7           0       -2.696499    2.024755    2.157462
     18          6           0       -2.146019    1.264030    3.224169
     19          6           0       -1.266441    2.073416    4.023792
     20          6           0       -1.090584    3.322386    3.342342
     21          6           0       -2.090609    3.288574    2.234246
     22          6           0       -0.636376    1.575063    5.290730
     23          6           0       -0.106964    4.414179    3.689631
     24          8           0        0.568136    4.360276    4.668855
     25          6           0       -0.078301    5.545149    2.841724
     26          7           0       -3.933148    3.094650   -0.354025
     27          6           0       -3.218851    4.183926    0.076947
     28          6           0       -3.232732    5.282218   -0.920024
     29          6           0       -4.175978    4.739771   -2.034474
     30          6           0       -4.394210    3.278862   -1.631672
     31          6           0       -3.685742    6.652293   -0.341953
     32          6           0       -3.394797    4.913910   -3.419297
     33          6           0       -4.179221    5.904943   -4.328517
     34          7           0       -5.040583    0.495435   -1.020668
     35          6           0       -5.534427    1.103701   -2.171549
     36          6           0       -6.269422    0.069011   -2.910484
     37          6           0       -6.101616   -1.154421   -2.192319
     38          6           0       -5.331881   -0.833922   -1.033663
     39          6           0       -7.036807    0.245884   -4.153455
     40          6           0       -6.477618   -2.532940   -2.284379
     41          8           0       -7.140282   -3.183568   -3.094503
     42          6           0       -5.810455   -3.154184   -1.019805
     43          6           0       -6.915431   -3.626994   -0.120683
     44          8           0       -7.030142   -4.772193    0.298481
     45          8           0       -7.878624   -2.668013    0.020428
     46          6           0       -8.798293   -2.975459    1.103502
     47          6           0        1.845263   -4.223242   -0.171732
     48          6           0        2.944696   -3.362192   -0.677825
     49          6           0        3.000449   -2.833356   -1.930220
     50          6           0        1.930789   -2.933488   -3.025330
     51          6           0        4.224313   -2.103471   -2.430768
     52          6           0        4.374415   -0.572030   -2.557477
     53          6           0        5.844159   -0.132112   -2.744174
     54          6           0        6.074812    1.145858   -1.821201
     55          6           0        6.036060    2.384316   -2.703902
     56          6           0        7.453768    1.001040   -1.179419
     57          6           0        7.425341    0.285884    0.211152
     58          6           0        8.379678   -0.930541    0.432566
     59          6           0        9.483372   -0.751675    1.557671
     60          6           0        9.175520   -1.817254    2.736642
     61          6           0       10.830448   -1.058288    0.833355
     62          6           0       11.530320    0.271416    0.378790
     63          6           0       12.476980    0.061100   -0.833045
     64          6           0       13.940777    0.376945   -0.598101
     65          6           0       14.656414    0.602006   -1.847322
     66          6           0       14.597577   -0.834583    0.240102
     67          1           0       -2.164622   -0.684152    4.347414
     68          1           0       -1.888395    5.201115    1.269799
     69          1           0       -5.576593    2.972877   -3.337715
     70          1           0       -4.965148   -3.597421    1.881499
     71          1           0       -2.369043   -2.864075    3.004424
     72          1           0       -4.333657   -1.861462    4.963281
     73          1           0       -3.779641   -3.571013    4.946722
     74          1           0       -5.317043   -3.083026    4.238811
     75          1           0       -3.839155   -4.804269    0.279447
     76          1           0       -2.647611   -4.863507    1.517801
     77          1           0       -1.538853   -2.653014    0.322158
     78          1           0       -2.225996   -3.671258   -1.025824
     79          1           0        0.321817    2.082295    5.398513
     80          1           0       -0.462136    0.509386    5.142598
     81          1           0       -1.216832    1.694162    6.205272
     82          1           0       -0.876226    6.285318    2.893594
     83          1           0        0.131685    5.173112    1.839204
     84          1           0        0.828297    6.147766    2.905533
     85          1           0       -2.196669    5.454450   -1.212716
     86          1           0       -5.075170    5.355848   -2.044789
     87          1           0       -4.352663    6.482862    0.503272
     88          1           0       -4.266812    7.289402   -1.009168
     89          1           0       -2.725795    7.154432   -0.221055
     90          1           0       -3.381965    3.935692   -3.902372
     91          1           0       -2.336562    5.174835   -3.417201
     92          1           0       -3.427370    6.209546   -5.057257
     93          1           0       -4.489328    6.762487   -3.731473
     94          1           0       -5.044430    5.430090   -4.791421
     95          1           0       -7.372946   -0.757669   -4.411747
     96          1           0       -6.322288    0.592484   -4.899934
     97          1           0       -7.839292    0.956654   -3.957066
     98          1           0       -5.068295   -3.906562   -1.286741
     99          1           0       -9.322056   -2.043175    1.315110
    100          1           0       -8.269999   -3.304310    1.999148
    101          1           0       -9.564783   -3.736948    0.960855
    102          1           0        1.808264   -4.867941   -1.049482
    103          1           0        2.107535   -4.738216    0.751779
    104          1           0        3.773089   -3.250701    0.021980
    105          1           0        1.549814   -1.974326   -3.376204
    106          1           0        1.027166   -3.418766   -2.656594
    107          1           0        2.260866   -3.436274   -3.933491
    108          1           0        4.410863   -2.325010   -3.481582
    109          1           0        5.089140   -2.559095   -1.948860
    110          1           0        3.922132   -0.101394   -1.684277
    111          1           0        3.792713   -0.306013   -3.439428
    112          1           0        5.964396    0.085663   -3.805056
    113          1           0        6.468212   -0.971190   -2.434520
    114          1           0        5.295287    1.189712   -1.060707
    115          1           0        5.542418    2.117096   -3.637133
    116          1           0        6.983363    2.824000   -3.016121
    117          1           0        5.398246    3.101932   -2.186170
    118          1           0        7.895911    1.990064   -1.061577
    119          1           0        8.120027    0.539660   -1.906902
    120          1           0        6.366912    0.114040    0.410219
    121          1           0        7.631733    1.011985    0.997749
    122          1           0        8.842687   -0.945913   -0.554777
    123          1           0        7.828166   -1.850153    0.626245
    124          1           0        9.434796    0.273871    1.923831
    125          1           0        9.339209   -1.219130    3.631902
    126          1           0        9.868245   -2.657958    2.766011
    127          1           0        8.148493   -2.145643    2.574768
    128          1           0       10.697055   -1.796813    0.042085
    129          1           0       11.413613   -1.543377    1.616373
    130          1           0       11.981324    0.795709    1.221598
    131          1           0       10.668234    0.899175    0.155684
    132          1           0       11.969720    0.723643   -1.534717
    133          1           0       12.501650   -0.980115   -1.153292
    134          1           0       13.970837    1.359452   -0.127711
    135          1           0       15.181302    1.557038   -1.814521
    136          1           0       13.997920    0.557702   -2.715395
    137          1           0       15.344456   -0.161040   -2.210981
    138          1           0       15.404690   -1.340647   -0.290005
    139          1           0       13.810614   -1.574758    0.382220
    140          1           0       14.852235   -0.437262    1.222343
 ---------------------------------------------------------------------

 SCF Done:  E(RZINDO/S) =  -473.999563652     A.U. after   19 cycles

 Excitation energies and oscillator strengths:

 Excited State   1:      Singlet-A      1.2076 eV 1026.70 nm  f=0.6020  <S**2>=0.000
     175 ->178         0.18354
     176 ->177         0.66360
 This state for optimization and/or second-order correction.
 Total Energy, E(CIS/TDA) =  -473.955185330
 Copying the excited state density for this state as the 1-particle RhoCI density.

 Excited State   2:      Singlet-A      1.9154 eV  647.29 nm  f=0.0150  <S**2>=0.000
     175 ->177         0.50903
     176 ->178        -0.46636

 Excited State   3:      Singlet-A      2.9268 eV  423.62 nm  f=0.7073  <S**2>=0.000
     168 ->177        -0.11789
     168 ->180        -0.12319
     171 ->177        -0.13466
     175 ->177         0.31596
     176 ->178         0.38738
     176 ->179         0.32233

 Excited State   4:      Singlet-A      2.9515 eV  420.07 nm  f=0.2175  <S**2>=0.000
     168 ->177         0.25967
     168 ->178         0.16514
     168 ->179         0.20750
     168 ->180         0.28408
     168 ->181         0.15446
     168 ->185        -0.14505
     168 ->186         0.16482
     171 ->177         0.13280
     175 ->177         0.16121
     176 ->178         0.18915
     176 ->179         0.17093

 Excited State   5:      Singlet-A      3.0294 eV  409.27 nm  f=0.4276  <S**2>=0.000
     175 ->177        -0.26653
     176 ->178        -0.25427
     176 ->179         0.54480

 The electronic state is 1-A.
 Alpha  occ. eigenvalues --   -1.83698  -1.80812  -1.76580  -1.73467  -1.70827
 Alpha  occ. eigenvalues --   -1.69192  -1.65101  -1.62867  -1.61731  -1.57578
 Alpha  occ. eigenvalues --   -1.55087  -1.51860  -1.47894  -1.47364  -1.46566
 Alpha  occ. eigenvalues --   -1.45676  -1.41983  -1.40971  -1.37883  -1.37108
 Alpha  occ. eigenvalues --   -1.35799  -1.33871  -1.32992  -1.30956  -1.28682
 Alpha  occ. eigenvalues --   -1.27887  -1.27716  -1.23998  -1.21983  -1.18198
 Alpha  occ. eigenvalues --   -1.17208  -1.15799  -1.14097  -1.12452  -1.12056
 Alpha  occ. eigenvalues --   -1.11835  -1.10863  -1.09841  -1.05600  -1.04019
 Alpha  occ. eigenvalues --   -1.03421  -1.01515  -0.99719  -0.97650  -0.96647
 Alpha  occ. eigenvalues --   -0.95713  -0.94821  -0.93690  -0.92752  -0.91799
 Alpha  occ. eigenvalues --   -0.91579  -0.90374  -0.88849  -0.88655  -0.87629
 Alpha  occ. eigenvalues --   -0.86147  -0.84875  -0.83845  -0.83403  -0.80815
 Alpha  occ. eigenvalues --   -0.79085  -0.78687  -0.78200  -0.77515  -0.76938
 Alpha  occ. eigenvalues --   -0.76492  -0.75684  -0.75511  -0.73989  -0.73391
 Alpha  occ. eigenvalues --   -0.73158  -0.72696  -0.71674  -0.71574  -0.70811
 Alpha  occ. eigenvalues --   -0.70539  -0.69903  -0.69292  -0.68156  -0.68115
 Alpha  occ. eigenvalues --   -0.67107  -0.67029  -0.66131  -0.66007  -0.65770
 Alpha  occ. eigenvalues --   -0.65438  -0.64843  -0.64336  -0.64030  -0.63880
 Alpha  occ. eigenvalues --   -0.63488  -0.63203  -0.62338  -0.62218  -0.61991
 Alpha  occ. eigenvalues --   -0.61779  -0.61298  -0.61061  -0.60536  -0.60145
 Alpha  occ. eigenvalues --   -0.59794  -0.59676  -0.59467  -0.58851  -0.58353
 Alpha  occ. eigenvalues --   -0.57854  -0.57543  -0.56974  -0.56698  -0.56232
 Alpha  occ. eigenvalues --   -0.55890  -0.55603  -0.55461  -0.55075  -0.54567
 Alpha  occ. eigenvalues --   -0.54310  -0.53835  -0.53691  -0.53420  -0.53308
 Alpha  occ. eigenvalues --   -0.52962  -0.52822  -0.52397  -0.51984  -0.51904
 Alpha  occ. eigenvalues --   -0.51863  -0.51556  -0.51287  -0.51204  -0.50718
 Alpha  occ. eigenvalues --   -0.50202  -0.49890  -0.49408  -0.49198  -0.48705
 Alpha  occ. eigenvalues --   -0.48598  -0.48413  -0.48215  -0.47945  -0.47574
 Alpha  occ. eigenvalues --   -0.47425  -0.47142  -0.46961  -0.46814  -0.46539
 Alpha  occ. eigenvalues --   -0.46437  -0.46085  -0.45976  -0.45735  -0.45360
 Alpha  occ. eigenvalues --   -0.45289  -0.44899  -0.44768  -0.44580  -0.44061
 Alpha  occ. eigenvalues --   -0.43892  -0.43063  -0.42413  -0.42145  -0.42068
 Alpha  occ. eigenvalues --   -0.41932  -0.41684  -0.41342  -0.39314  -0.38846
 Alpha  occ. eigenvalues --   -0.38320  -0.37588  -0.35839  -0.35305  -0.35003
 Alpha  occ. eigenvalues --   -0.33414  -0.32904  -0.32556  -0.32375  -0.27471
 Alpha  occ. eigenvalues --   -0.22125
 Alpha virt. eigenvalues --   -0.09100  -0.03107  -0.01050   0.00957   0.01123
 Alpha virt. eigenvalues --    0.01928   0.02075   0.02618   0.04225   0.04241
 Alpha virt. eigenvalues --    0.05698   0.06551   0.06938   0.07154   0.07825

 Mulliken charges:
               1
     1  Mg   0.428388
     2  C   -0.064655
     3  C   -0.098545
     4  C   -0.069255
     5  C   -0.043189
     6  N   -0.312813
     7  C    0.142708
     8  C    0.001424
     9  C   -0.001131
    10  C    0.136103
    11  C   -0.047331
    12  C   -0.023111
    13  C    0.011365
    14  C    0.460240
    15  O   -0.521883
    16  O   -0.281356
    17  N   -0.345709
    18  C    0.118773
    19  C    0.042039
    20  C   -0.049890
    21  C    0.117545
    22  C   -0.038049
    23  C    0.354982
    24  O   -0.508089
    25  C   -0.029031
    26  N   -0.242876
    27  C    0.131436
    28  C    0.000895
    29  C   -0.002980
    30  C    0.086639
    31  C   -0.058986
    32  C   -0.043163
    33  C   -0.060529
    34  N   -0.327738
    35  C    0.071162
    36  C    0.044098
    37  C   -0.076159
    38  C    0.122714
    39  C   -0.038992
    40  C    0.335804
    41  O   -0.526441
    42  C    0.057133
    43  C    0.490425
    44  O   -0.529572
    45  O   -0.255247
    46  C    0.078345
    47  C    0.102315
    48  C   -0.076184
    49  C    0.003192
    50  C   -0.042425
    51  C   -0.032924
    52  C   -0.029365
    53  C   -0.039154
    54  C   -0.011372
    55  C   -0.057534
    56  C   -0.032876
    57  C   -0.047146
    58  C   -0.044282
    59  C   -0.027773
    60  C   -0.068222
    61  C   -0.037849
    62  C   -0.044472
    63  C   -0.032643
    64  C   -0.005607
    65  C   -0.053774
    66  C   -0.062231
    67  H    0.028207
    68  H    0.022942
    69  H    0.035152
    70  H    0.037171
    71  H    0.041018
    72  H    0.027486
    73  H    0.024359
    74  H    0.030453
    75  H    0.042579
    76  H    0.025850
    77  H    0.046031
    78  H    0.049386
    79  H    0.039717
    80  H    0.021632
    81  H    0.041233
    82  H    0.051251
    83  H    0.029230
    84  H    0.021584
    85  H    0.034172
    86  H    0.042007
    87  H    0.030538
    88  H    0.017586
    89  H    0.023758
    90  H    0.013243
    91  H    0.029569
    92  H    0.016692
    93  H    0.020522
    94  H    0.026891
    95  H    0.040397
    96  H    0.032294
    97  H    0.039105
    98  H    0.061510
    99  H    0.022804
   100  H    0.035849
   101  H    0.050832
   102  H    0.049879
   103  H    0.049517
   104  H    0.032615
   105  H    0.024697
   106  H    0.016814
   107  H    0.030652
   108  H    0.010983
   109  H    0.014102
   110  H    0.019736
   111  H    0.015975
   112  H    0.027336
   113  H    0.023961
   114  H    0.032978
   115  H    0.010356
   116  H    0.026095
   117  H    0.014029
   118  H    0.008240
   119  H    0.019729
   120  H    0.015613
   121  H    0.012197
   122  H    0.018791
   123  H    0.025657
   124  H    0.034092
   125  H    0.018572
   126  H    0.026147
   127  H    0.028069
   128  H    0.028807
   129  H    0.007352
   130  H    0.022637
   131  H    0.014814
   132  H    0.016494
   133  H    0.024597
   134  H    0.021921
   135  H    0.015335
   136  H    0.008795
   137  H    0.013420
   138  H    0.029840
   139  H    0.018613
   140  H    0.022321
 Sum of Mulliken charges =  -0.00000

 Dipole moment (field-independent basis, Debye):
    X=              1.9373    Y=              9.3052    Z=             -1.1445  Tot=              9.5734
 N-N= 4.453920080486D+03 E-N= 0.000000000000D+00  KE=-9.581256429565D+03
 Leave Link  601 at Tue May  3 23:30:55 2022, MaxMem=  6710886400 cpu:               1.9 elap:               0.1
 (Enter /sw/apps/gaussian-16.0/g16/l9999.exe)
 1\1\GINC-BP1-COMPUTE180\SP\RZINDO CIS\STO-3G\C55H74Mg1N4O6\OF15641\03-
 May-2022\0\\#p ZINDO=(nstates=5)\\step_1051_chromophore_26 ZINDO\\0,1\
 Mg,0,-8.885,18.532,42.779\C,0,-5.328,18.486,42.745\C,0,-8.674,21.982,4
 2.054\C,0,-12.24,18.6,41.94\C,0,-8.868,15.038,42.917\N,0,-7.262,19.951
 ,42.492\C,0,-5.883,19.721,42.439\C,0,-5.063,20.928,42.174\C,0,-6.091,2
 2.1,42.207\C,0,-7.448,21.331,42.303\C,0,-5.969,23.175,43.436\C,0,-4.12
 7,20.727,40.889\C,0,-4.78,20.153,39.603\C,0,-4.424,20.834,38.267\O,0,-

 Normal termination of Gaussian 16 at Tue May  3 23:30:55 2022.
