 Gaussian 16, Revision A.03,
 Gaussian 16:  ES64L-G16RevA.03 25-Dec-2016

 ------------------------------
 #p blyp/Def2SVP td=(nstates=5)
 ------------------------------

 ---------------------------------------------------
 step_1251_chromophore_17 TDDFT with blyp functional
 ---------------------------------------------------
 Symbolic Z-matrix:
 Charge =  0 Multiplicity = 1

                         Standard orientation:
 ---------------------------------------------------------------------
 Center     Atomic      Atomic             Coordinates (Angstroms)
 Number     Number       Type             X           Y           Z
 ---------------------------------------------------------------------
      1         12           0        4.422846    1.337850   -0.682295
      2          6           0        4.475292   -2.213234   -0.483422
      3          6           0        2.145473    1.261098   -3.032116
      4          6           0        3.979715    4.559454    0.070251
      5          6           0        6.442043    1.197403    2.497589
      6          7           0        3.397058   -0.359623   -1.526260
      7          6           0        3.568658   -1.713121   -1.396554
      8          6           0        2.635114   -2.430843   -2.282663
      9          6           0        2.261225   -1.352287   -3.354007
     10          6           0        2.585268   -0.019117   -2.599816
     11          6           0        2.923020   -1.434574   -4.767501
     12          6           0        1.426517   -3.002935   -1.412017
     13          6           0        0.748111   -4.276735   -1.778488
     14          6           0        0.203491   -5.148927   -0.639460
     15          8           0        0.775755   -6.164162   -0.253380
     16          8           0       -0.848745   -4.480284    0.009281
     17          7           0        3.336999    2.825569   -1.586318
     18          6           0        2.360949    2.619151   -2.495452
     19          6           0        1.651344    3.850089   -2.808978
     20          6           0        2.275904    4.819053   -1.950225
     21          6           0        3.300335    4.107260   -1.064328
     22          6           0        0.417783    4.022132   -3.664921
     23          6           0        1.898952    6.304751   -1.839666
     24          8           0        0.880767    6.707566   -2.416004
     25          6           0        2.603595    7.266706   -1.043328
     26          7           0        5.049693    2.690075    1.061280
     27          6           0        4.805498    3.980892    1.035486
     28          6           0        5.366068    4.800334    2.199161
     29          6           0        6.174163    3.682229    2.961886
     30          6           0        5.847417    2.412619    2.164965
     31          6           0        6.175953    6.147277    1.915871
     32          6           0        5.803145    3.589219    4.538501
     33          6           0        7.012938    3.977799    5.454429
     34          7           0        5.321319   -0.103459    0.684428
     35          6           0        6.124260   -0.004597    1.873029
     36          6           0        6.489015   -1.330147    2.244421
     37          6           0        5.913666   -2.210726    1.326009
     38          6           0        5.199152   -1.411516    0.423645
     39          6           0        7.457555   -1.704904    3.320348
     40          6           0        5.795662   -3.660727    0.920922
     41          8           0        6.266555   -4.685443    1.363949
     42          6           0        4.827136   -3.672780   -0.306197
     43          6           0        5.505837   -4.187841   -1.487224
     44          8           0        6.596142   -3.861336   -1.911527
     45          8           0        4.652546   -5.054823   -2.112671
     46          6           0        5.029911   -5.466227   -3.519535
     47          6           0       -1.469168   -4.999849    1.186660
     48          6           0       -2.977541   -4.570798    0.987771
     49          6           0       -3.974550   -4.492564    1.910266
     50          6           0       -3.710946   -4.737600    3.422171
     51          6           0       -5.348252   -4.002642    1.665157
     52          6           0       -5.444246   -2.501676    1.310214
     53          6           0       -6.146879   -1.533138    2.328136
     54          6           0       -7.369743   -0.843880    1.727024
     55          6           0       -8.635668   -0.992252    2.647786
     56          6           0       -7.096118    0.624122    1.278278
     57          6           0       -7.353744    0.930685   -0.208177
     58          6           0       -8.057627    2.276819   -0.537889
     59          6           0       -9.312606    2.114837   -1.455066
     60          6           0       -9.121294    3.104159   -2.693493
     61          6           0      -10.610615    2.259674   -0.677390
     62          6           0      -11.311933    0.846752   -0.421741
     63          6           0      -12.314246    0.938863    0.765821
     64          6           0      -13.692510    0.668531    0.318253
     65          6           0      -14.291892    2.002104   -0.091844
     66          6           0      -14.547046    0.085983    1.524969
     67          1           0        1.495911    1.112350   -3.896294
     68          1           0        3.704859    5.537484    0.471539
     69          1           0        7.120119    1.137035    3.350876
     70          1           0        3.109146   -3.281003   -2.773348
     71          1           0        1.186095   -1.323470   -3.527966
     72          1           0        3.724301   -2.168037   -4.681764
     73          1           0        3.309708   -0.563247   -5.295511
     74          1           0        2.173406   -1.790743   -5.474112
     75          1           0        0.713746   -2.177801   -1.392738
     76          1           0        1.911635   -3.238023   -0.465273
     77          1           0        1.300830   -4.957018   -2.426752
     78          1           0       -0.141747   -3.991272   -2.339022
     79          1           0       -0.125489    4.869820   -3.248187
     80          1           0       -0.204280    3.127255   -3.632637
     81          1           0        0.734067    4.211497   -4.690891
     82          1           0        2.272940    7.261496   -0.005080
     83          1           0        2.507171    8.287021   -1.416123
     84          1           0        3.690303    7.185532   -1.084137
     85          1           0        4.495452    5.114850    2.775001
     86          1           0        7.248642    3.773405    2.806417
     87          1           0        7.233145    5.923664    2.061872
     88          1           0        5.903961    6.887225    2.668218
     89          1           0        5.955023    6.500452    0.908152
     90          1           0        5.431703    2.603714    4.822182
     91          1           0        5.097415    4.378278    4.797961
     92          1           0        7.370088    3.039603    5.877439
     93          1           0        6.657922    4.625993    6.254975
     94          1           0        7.829406    4.529293    4.986629
     95          1           0        8.396394   -1.199020    3.091284
     96          1           0        7.650373   -2.759186    3.118784
     97          1           0        7.196480   -1.430585    4.342346
     98          1           0        3.905710   -4.246220   -0.213896
     99          1           0        4.525710   -6.403501   -3.752832
    100          1           0        6.098111   -5.492410   -3.734641
    101          1           0        4.770812   -4.630444   -4.169815
    102          1           0       -1.060577   -4.510461    2.071579
    103          1           0       -1.466693   -6.089690    1.198091
    104          1           0       -3.305852   -4.355268   -0.029506
    105          1           0       -2.642389   -4.828979    3.616546
    106          1           0       -4.300918   -5.610494    3.701831
    107          1           0       -3.906172   -3.823421    3.982933
    108          1           0       -5.875697   -4.134889    2.609595
    109          1           0       -5.928207   -4.589783    0.954377
    110          1           0       -5.858499   -2.494913    0.301763
    111          1           0       -4.374305   -2.300401    1.266144
    112          1           0       -5.484230   -0.824008    2.824338
    113          1           0       -6.358386   -2.179228    3.179277
    114          1           0       -7.563642   -1.491088    0.871960
    115          1           0       -9.200177   -1.889874    2.396919
    116          1           0       -9.299681   -0.143850    2.483287
    117          1           0       -8.436598   -0.919840    3.717177
    118          1           0       -6.079197    0.987988    1.428557
    119          1           0       -7.660864    1.384159    1.818952
    120          1           0       -8.000897    0.150725   -0.610693
    121          1           0       -6.435980    0.916611   -0.795027
    122          1           0       -7.349419    2.838452   -1.147015
    123          1           0       -8.260426    2.783530    0.405295
    124          1           0       -9.423760    1.131496   -1.910886
    125          1           0       -8.360720    2.651052   -3.330794
    126          1           0       -8.777302    4.075294   -2.336882
    127          1           0      -10.082141    3.229460   -3.191212
    128          1           0      -11.255991    2.908608   -1.268718
    129          1           0      -10.530651    2.873312    0.220484
    130          1           0      -10.519411    0.122768   -0.235369
    131          1           0      -11.944676    0.547868   -1.256690
    132          1           0      -12.336082    1.945183    1.185811
    133          1           0      -12.029224    0.186399    1.500647
    134          1           0      -13.752221   -0.075353   -0.476138
    135          1           0      -15.367834    1.848180   -0.171999
    136          1           0      -13.940680    2.334451   -1.067955
    137          1           0      -14.080992    2.787666    0.634173
    138          1           0      -15.053575   -0.878581    1.476899
    139          1           0      -15.353814    0.762917    1.803983
    140          1           0      -13.846221   -0.100411    2.338925
 ---------------------------------------------------------------------

 SCF Done:  E(RB-LYP) =  -3007.35419574     A.U. after   20 cycles

 Excitation energies and oscillator strengths:

 Excited State   1:      Singlet-A      1.8131 eV  683.83 nm  f=0.2734  <S**2>=0.000
     244 -> 247        0.21437
     245 -> 248        0.18118
     246 -> 247        0.64848
     246 <- 247       -0.13822
 This state for optimization and/or second-order correction.
 Total Energy, E(TD-HF/TD-DFT) =  -3007.28756631
 Copying the excited state density for this state as the 1-particle RhoCI density.

 Excited State   2:      Singlet-A      1.8497 eV  670.28 nm  f=0.0340  <S**2>=0.000
     244 -> 247        0.66431
     246 -> 247       -0.21928

 Excited State   3:      Singlet-A      1.9570 eV  633.54 nm  f=0.0424  <S**2>=0.000
     243 -> 247        0.45416
     245 -> 247        0.49910
     246 -> 248       -0.14996

 Excited State   4:      Singlet-A      2.0821 eV  595.47 nm  f=0.0371  <S**2>=0.000
     243 -> 247        0.53567
     245 -> 247       -0.39802
     246 -> 248        0.19214

 Excited State   5:      Singlet-A      2.2962 eV  539.95 nm  f=0.0000  <S**2>=0.000
     242 -> 247        0.70701

 The electronic state is 1-A.
 Alpha  occ. eigenvalues --  -46.28353 -18.82479 -18.82149 -18.77530 -18.76532
 Alpha  occ. eigenvalues --  -18.76089 -18.75104 -14.03364 -14.03173 -14.01747
 Alpha  occ. eigenvalues --  -14.00635 -10.04642 -10.03598 -10.00085  -9.99578
 Alpha  occ. eigenvalues --   -9.98761  -9.98305  -9.97120  -9.96846  -9.96560
 Alpha  occ. eigenvalues --   -9.96489  -9.96429  -9.96235  -9.94979  -9.94682
 Alpha  occ. eigenvalues --   -9.94670  -9.94403  -9.94347  -9.94203  -9.94028
 Alpha  occ. eigenvalues --   -9.93830  -9.93705  -9.93576  -9.93444  -9.93443
 Alpha  occ. eigenvalues --   -9.93431  -9.93333  -9.93319  -9.93057  -9.93042
 Alpha  occ. eigenvalues --   -9.92856  -9.92770  -9.92630  -9.92297  -9.92232
 Alpha  occ. eigenvalues --   -9.92220  -9.91940  -9.91817  -9.91799  -9.91683
 Alpha  occ. eigenvalues --   -9.91585  -9.91495  -9.91458  -9.91365  -9.91362
 Alpha  occ. eigenvalues --   -9.91275  -9.91106  -9.91021  -9.90855  -9.90832
 Alpha  occ. eigenvalues --   -9.90696  -9.90688  -9.90657  -9.90555  -9.90427
 Alpha  occ. eigenvalues --   -9.90255  -2.92790  -1.73201  -1.72696  -1.72491
 Alpha  occ. eigenvalues --   -0.97650  -0.97197  -0.91955  -0.90894  -0.90484
 Alpha  occ. eigenvalues --   -0.89711  -0.86856  -0.85950  -0.85325  -0.84564
 Alpha  occ. eigenvalues --   -0.75649  -0.73537  -0.73186  -0.73009  -0.72314
 Alpha  occ. eigenvalues --   -0.71994  -0.71595  -0.70745  -0.70617  -0.70053
 Alpha  occ. eigenvalues --   -0.69450  -0.69224  -0.68134  -0.67624  -0.67350
 Alpha  occ. eigenvalues --   -0.66634  -0.66224  -0.65694  -0.64970  -0.64478
 Alpha  occ. eigenvalues --   -0.63810  -0.62549  -0.62280  -0.61539  -0.60989
 Alpha  occ. eigenvalues --   -0.60326  -0.60117  -0.59924  -0.59120  -0.58974
 Alpha  occ. eigenvalues --   -0.58362  -0.57867  -0.57060  -0.55885  -0.54694
 Alpha  occ. eigenvalues --   -0.53722  -0.53423  -0.52759  -0.52690  -0.52068
 Alpha  occ. eigenvalues --   -0.51301  -0.51065  -0.50952  -0.50568  -0.50302
 Alpha  occ. eigenvalues --   -0.49929  -0.49675  -0.48615  -0.48441  -0.46479
 Alpha  occ. eigenvalues --   -0.46167  -0.45659  -0.45542  -0.45022  -0.44622
 Alpha  occ. eigenvalues --   -0.44194  -0.43976  -0.43308  -0.42769  -0.42350
 Alpha  occ. eigenvalues --   -0.42317  -0.42160  -0.41767  -0.41393  -0.40981
 Alpha  occ. eigenvalues --   -0.40959  -0.40601  -0.40497  -0.40414  -0.40172
 Alpha  occ. eigenvalues --   -0.40024  -0.39968  -0.39547  -0.39244  -0.39184
 Alpha  occ. eigenvalues --   -0.38884  -0.38757  -0.38441  -0.38373  -0.38204
 Alpha  occ. eigenvalues --   -0.37948  -0.37886  -0.37653  -0.37564  -0.37056
 Alpha  occ. eigenvalues --   -0.36889  -0.36779  -0.36747  -0.36564  -0.36513
 Alpha  occ. eigenvalues --   -0.36333  -0.36303  -0.36179  -0.36069  -0.35597
 Alpha  occ. eigenvalues --   -0.35502  -0.35437  -0.35120  -0.34941  -0.34791
 Alpha  occ. eigenvalues --   -0.34445  -0.34318  -0.34269  -0.34055  -0.33656
 Alpha  occ. eigenvalues --   -0.33462  -0.33402  -0.33358  -0.33179  -0.33005
 Alpha  occ. eigenvalues --   -0.32907  -0.32822  -0.32616  -0.32348  -0.32263
 Alpha  occ. eigenvalues --   -0.32174  -0.32110  -0.31592  -0.31487  -0.31351
 Alpha  occ. eigenvalues --   -0.31220  -0.30939  -0.30712  -0.30641  -0.30541
 Alpha  occ. eigenvalues --   -0.30461  -0.30130  -0.30079  -0.30045  -0.29960
 Alpha  occ. eigenvalues --   -0.29825  -0.29580  -0.29488  -0.29267  -0.29131
 Alpha  occ. eigenvalues --   -0.28875  -0.28599  -0.28388  -0.27937  -0.27781
 Alpha  occ. eigenvalues --   -0.27513  -0.27259  -0.27047  -0.26808  -0.26546
 Alpha  occ. eigenvalues --   -0.26445  -0.26095  -0.25947  -0.25740  -0.25396
 Alpha  occ. eigenvalues --   -0.25237  -0.25220  -0.24199  -0.23857  -0.23627
 Alpha  occ. eigenvalues --   -0.23232  -0.22591  -0.22073  -0.21648  -0.20543
 Alpha  occ. eigenvalues --   -0.20236  -0.20078  -0.18971  -0.18323  -0.17364
 Alpha  occ. eigenvalues --   -0.15961
 Alpha virt. eigenvalues --   -0.11640  -0.07198  -0.05927  -0.04747  -0.03809
 Alpha virt. eigenvalues --   -0.03274  -0.02413  -0.01748  -0.01713  -0.00225
 Alpha virt. eigenvalues --    0.00904   0.01470   0.01956   0.02351   0.02447

 Mulliken charges:
               1
     1  Mg   0.691650
     2  C   -0.079133
     3  C   -0.030280
     4  C   -0.031352
     5  C   -0.090734
     6  N   -0.254317
     7  C   -0.083122
     8  C    0.035203
     9  C    0.007613
    10  C    0.001522
    11  C    0.125573
    12  C    0.112570
    13  C    0.178451
    14  C    0.068200
    15  O   -0.177947
    16  O   -0.294229
    17  N   -0.318573
    18  C    0.134740
    19  C   -0.140726
    20  C    0.008990
    21  C    0.163313
    22  C    0.190134
    23  C   -0.073777
    24  O   -0.185881
    25  C    0.152544
    26  N   -0.153580
    27  C   -0.082265
    28  C    0.027021
    29  C    0.036402
    30  C    0.010295
    31  C    0.128832
    32  C    0.083602
    33  C    0.032665
    34  N   -0.241230
    35  C    0.132878
    36  C   -0.213533
    37  C    0.036401
    38  C    0.134890
    39  C    0.175439
    40  C    0.007667
    41  O   -0.106129
    42  C    0.130172
    43  C    0.078061
    44  O   -0.167355
    45  O   -0.279607
    46  C    0.216110
    47  C    0.332647
    48  C   -0.111385
    49  C   -0.178001
    50  C    0.131924
    51  C    0.137797
    52  C    0.063601
    53  C    0.127952
    54  C   -0.040254
    55  C    0.088833
    56  C    0.134996
    57  C    0.026652
    58  C    0.136178
    59  C   -0.098308
    60  C    0.086600
    61  C    0.098240
    62  C    0.071556
    63  C    0.129493
    64  C   -0.108376
    65  C    0.105252
    66  C    0.089217
    67  H   -0.063013
    68  H   -0.072510
    69  H   -0.058035
    70  H   -0.042833
    71  H   -0.035911
    72  H   -0.006050
    73  H    0.000173
    74  H   -0.012158
    75  H   -0.006033
    76  H   -0.006813
    77  H   -0.009088
    78  H   -0.024567
    79  H    0.016750
    80  H   -0.013460
    81  H    0.000269
    82  H    0.028511
    83  H   -0.010631
    84  H   -0.008699
    85  H   -0.013729
    86  H   -0.012368
    87  H   -0.010590
    88  H   -0.007537
    89  H    0.003227
    90  H   -0.002052
    91  H   -0.016765
    92  H   -0.002190
    93  H   -0.011792
    94  H   -0.004094
    95  H   -0.010361
    96  H    0.009096
    97  H    0.000268
    98  H   -0.008746
    99  H    0.036758
   100  H    0.023200
   101  H   -0.001482
   102  H    0.013765
   103  H    0.016506
   104  H   -0.040887
   105  H   -0.031169
   106  H    0.017533
   107  H   -0.003739
   108  H   -0.053477
   109  H   -0.022802
   110  H   -0.019151
   111  H   -0.032855
   112  H   -0.038314
   113  H   -0.052686
   114  H   -0.032394
   115  H   -0.011197
   116  H   -0.018103
   117  H   -0.013886
   118  H   -0.037449
   119  H   -0.044661
   120  H   -0.031699
   121  H   -0.030055
   122  H   -0.045112
   123  H   -0.030023
   124  H   -0.031058
   125  H   -0.007777
   126  H   -0.010022
   127  H   -0.017653
   128  H   -0.056485
   129  H   -0.038725
   130  H   -0.020131
   131  H   -0.024174
   132  H   -0.032983
   133  H   -0.033227
   134  H   -0.032625
   135  H   -0.020151
   136  H   -0.015837
   137  H   -0.012512
   138  H   -0.022609
   139  H   -0.021799
   140  H   -0.028905
 Sum of Mulliken charges =  -0.00000

 Dipole moment (field-independent basis, Debye):
    X=             -1.4136    Y=              3.4102    Z=              0.2885  Tot=              3.7029
 Quadrupole moment (field-independent basis, Debye-Ang):
   XX=           -410.6138   YY=           -434.8934   ZZ=           -381.6957
   XY=             55.6345   XZ=             -0.0723   YZ=             35.8457

 Normal termination of Gaussian 16 at Wed Apr 27 16:38:24 2022.
