 Gaussian 16, Revision A.03,
 Gaussian 16:  ES64L-G16RevA.03 25-Dec-2016

 -----------------------------------
 #p cam-b3lyp/Def2SVP td=(nstates=5)
 -----------------------------------

 --------------------------------------------------------
 step_1251_chromophore_17 TDDFT with cam-b3lyp functional
 --------------------------------------------------------
 Symbolic Z-matrix:
 Charge =  0 Multiplicity = 1

                         Standard orientation:
 ---------------------------------------------------------------------
 Center     Atomic      Atomic             Coordinates (Angstroms)
 Number     Number       Type             X           Y           Z
 ---------------------------------------------------------------------
      1         12           0        4.422846    1.337850   -0.682295
      2          6           0        4.475292   -2.213234   -0.483422
      3          6           0        2.145473    1.261098   -3.032116
      4          6           0        3.979715    4.559454    0.070251
      5          6           0        6.442043    1.197403    2.497589
      6          7           0        3.397058   -0.359623   -1.526260
      7          6           0        3.568658   -1.713121   -1.396554
      8          6           0        2.635114   -2.430843   -2.282663
      9          6           0        2.261225   -1.352287   -3.354007
     10          6           0        2.585268   -0.019117   -2.599816
     11          6           0        2.923020   -1.434574   -4.767501
     12          6           0        1.426517   -3.002935   -1.412017
     13          6           0        0.748111   -4.276735   -1.778488
     14          6           0        0.203491   -5.148927   -0.639460
     15          8           0        0.775755   -6.164162   -0.253380
     16          8           0       -0.848745   -4.480284    0.009281
     17          7           0        3.336999    2.825569   -1.586318
     18          6           0        2.360949    2.619151   -2.495452
     19          6           0        1.651344    3.850089   -2.808978
     20          6           0        2.275904    4.819053   -1.950225
     21          6           0        3.300335    4.107260   -1.064328
     22          6           0        0.417783    4.022132   -3.664921
     23          6           0        1.898952    6.304751   -1.839666
     24          8           0        0.880767    6.707566   -2.416004
     25          6           0        2.603595    7.266706   -1.043328
     26          7           0        5.049693    2.690075    1.061280
     27          6           0        4.805498    3.980892    1.035486
     28          6           0        5.366068    4.800334    2.199161
     29          6           0        6.174163    3.682229    2.961886
     30          6           0        5.847417    2.412619    2.164965
     31          6           0        6.175953    6.147277    1.915871
     32          6           0        5.803145    3.589219    4.538501
     33          6           0        7.012938    3.977799    5.454429
     34          7           0        5.321319   -0.103459    0.684428
     35          6           0        6.124260   -0.004597    1.873029
     36          6           0        6.489015   -1.330147    2.244421
     37          6           0        5.913666   -2.210726    1.326009
     38          6           0        5.199152   -1.411516    0.423645
     39          6           0        7.457555   -1.704904    3.320348
     40          6           0        5.795662   -3.660727    0.920922
     41          8           0        6.266555   -4.685443    1.363949
     42          6           0        4.827136   -3.672780   -0.306197
     43          6           0        5.505837   -4.187841   -1.487224
     44          8           0        6.596142   -3.861336   -1.911527
     45          8           0        4.652546   -5.054823   -2.112671
     46          6           0        5.029911   -5.466227   -3.519535
     47          6           0       -1.469168   -4.999849    1.186660
     48          6           0       -2.977541   -4.570798    0.987771
     49          6           0       -3.974550   -4.492564    1.910266
     50          6           0       -3.710946   -4.737600    3.422171
     51          6           0       -5.348252   -4.002642    1.665157
     52          6           0       -5.444246   -2.501676    1.310214
     53          6           0       -6.146879   -1.533138    2.328136
     54          6           0       -7.369743   -0.843880    1.727024
     55          6           0       -8.635668   -0.992252    2.647786
     56          6           0       -7.096118    0.624122    1.278278
     57          6           0       -7.353744    0.930685   -0.208177
     58          6           0       -8.057627    2.276819   -0.537889
     59          6           0       -9.312606    2.114837   -1.455066
     60          6           0       -9.121294    3.104159   -2.693493
     61          6           0      -10.610615    2.259674   -0.677390
     62          6           0      -11.311933    0.846752   -0.421741
     63          6           0      -12.314246    0.938863    0.765821
     64          6           0      -13.692510    0.668531    0.318253
     65          6           0      -14.291892    2.002104   -0.091844
     66          6           0      -14.547046    0.085983    1.524969
     67          1           0        1.495911    1.112350   -3.896294
     68          1           0        3.704859    5.537484    0.471539
     69          1           0        7.120119    1.137035    3.350876
     70          1           0        3.109146   -3.281003   -2.773348
     71          1           0        1.186095   -1.323470   -3.527966
     72          1           0        3.724301   -2.168037   -4.681764
     73          1           0        3.309708   -0.563247   -5.295511
     74          1           0        2.173406   -1.790743   -5.474112
     75          1           0        0.713746   -2.177801   -1.392738
     76          1           0        1.911635   -3.238023   -0.465273
     77          1           0        1.300830   -4.957018   -2.426752
     78          1           0       -0.141747   -3.991272   -2.339022
     79          1           0       -0.125489    4.869820   -3.248187
     80          1           0       -0.204280    3.127255   -3.632637
     81          1           0        0.734067    4.211497   -4.690891
     82          1           0        2.272940    7.261496   -0.005080
     83          1           0        2.507171    8.287021   -1.416123
     84          1           0        3.690303    7.185532   -1.084137
     85          1           0        4.495452    5.114850    2.775001
     86          1           0        7.248642    3.773405    2.806417
     87          1           0        7.233145    5.923664    2.061872
     88          1           0        5.903961    6.887225    2.668218
     89          1           0        5.955023    6.500452    0.908152
     90          1           0        5.431703    2.603714    4.822182
     91          1           0        5.097415    4.378278    4.797961
     92          1           0        7.370088    3.039603    5.877439
     93          1           0        6.657922    4.625993    6.254975
     94          1           0        7.829406    4.529293    4.986629
     95          1           0        8.396394   -1.199020    3.091284
     96          1           0        7.650373   -2.759186    3.118784
     97          1           0        7.196480   -1.430585    4.342346
     98          1           0        3.905710   -4.246220   -0.213896
     99          1           0        4.525710   -6.403501   -3.752832
    100          1           0        6.098111   -5.492410   -3.734641
    101          1           0        4.770812   -4.630444   -4.169815
    102          1           0       -1.060577   -4.510461    2.071579
    103          1           0       -1.466693   -6.089690    1.198091
    104          1           0       -3.305852   -4.355268   -0.029506
    105          1           0       -2.642389   -4.828979    3.616546
    106          1           0       -4.300918   -5.610494    3.701831
    107          1           0       -3.906172   -3.823421    3.982933
    108          1           0       -5.875697   -4.134889    2.609595
    109          1           0       -5.928207   -4.589783    0.954377
    110          1           0       -5.858499   -2.494913    0.301763
    111          1           0       -4.374305   -2.300401    1.266144
    112          1           0       -5.484230   -0.824008    2.824338
    113          1           0       -6.358386   -2.179228    3.179277
    114          1           0       -7.563642   -1.491088    0.871960
    115          1           0       -9.200177   -1.889874    2.396919
    116          1           0       -9.299681   -0.143850    2.483287
    117          1           0       -8.436598   -0.919840    3.717177
    118          1           0       -6.079197    0.987988    1.428557
    119          1           0       -7.660864    1.384159    1.818952
    120          1           0       -8.000897    0.150725   -0.610693
    121          1           0       -6.435980    0.916611   -0.795027
    122          1           0       -7.349419    2.838452   -1.147015
    123          1           0       -8.260426    2.783530    0.405295
    124          1           0       -9.423760    1.131496   -1.910886
    125          1           0       -8.360720    2.651052   -3.330794
    126          1           0       -8.777302    4.075294   -2.336882
    127          1           0      -10.082141    3.229460   -3.191212
    128          1           0      -11.255991    2.908608   -1.268718
    129          1           0      -10.530651    2.873312    0.220484
    130          1           0      -10.519411    0.122768   -0.235369
    131          1           0      -11.944676    0.547868   -1.256690
    132          1           0      -12.336082    1.945183    1.185811
    133          1           0      -12.029224    0.186399    1.500647
    134          1           0      -13.752221   -0.075353   -0.476138
    135          1           0      -15.367834    1.848180   -0.171999
    136          1           0      -13.940680    2.334451   -1.067955
    137          1           0      -14.080992    2.787666    0.634173
    138          1           0      -15.053575   -0.878581    1.476899
    139          1           0      -15.353814    0.762917    1.803983
    140          1           0      -13.846221   -0.100411    2.338925
 ---------------------------------------------------------------------

 SCF Done:  E(RCAM-B3LYP) =  -3007.14152543     A.U. after   17 cycles

 Excitation energies and oscillator strengths:

 Excited State   1:      Singlet-A      1.7114 eV  724.46 nm  f=0.3779  <S**2>=0.000
     245 -> 248        0.17720
     246 -> 247        0.68399
     245 <- 248        0.10591
 This state for optimization and/or second-order correction.
 Total Energy, E(TD-HF/TD-DFT) =  -3007.07863255
 Copying the excited state density for this state as the 1-particle RhoCI density.

 Excited State   2:      Singlet-A      2.2371 eV  554.22 nm  f=0.0987  <S**2>=0.000
     245 -> 247        0.63226
     246 -> 248       -0.29898

 Excited State   3:      Singlet-A      3.3371 eV  371.53 nm  f=0.0010  <S**2>=0.000
     242 -> 247       -0.16842
     244 -> 247        0.66888

 Excited State   4:      Singlet-A      3.4053 eV  364.09 nm  f=0.0710  <S**2>=0.000
     240 -> 247       -0.24339
     240 -> 248        0.11891
     240 -> 249        0.19102
     240 -> 251        0.11156
     242 -> 247        0.48023
     244 -> 247        0.12373
     246 -> 248        0.29814

 Excited State   5:      Singlet-A      3.4858 eV  355.68 nm  f=0.1776  <S**2>=0.000
     240 -> 247        0.44697
     240 -> 248       -0.14335
     240 -> 249       -0.24011
     240 -> 251       -0.12752
     242 -> 247        0.17323
     245 -> 247        0.14879
     246 -> 248        0.35185

 The electronic state is 1-A.
 Alpha  occ. eigenvalues --  -46.89988 -19.25377 -19.24932 -19.20499 -19.19517
 Alpha  occ. eigenvalues --  -19.19146 -19.18526 -14.42412 -14.41850 -14.40399
 Alpha  occ. eigenvalues --  -14.38901 -10.39988 -10.38880 -10.35275 -10.34932
 Alpha  occ. eigenvalues --  -10.32731 -10.32401 -10.31784 -10.31548 -10.31251
 Alpha  occ. eigenvalues --  -10.31029 -10.30648 -10.30560 -10.28909 -10.28851
 Alpha  occ. eigenvalues --  -10.28724 -10.28721 -10.28357 -10.28334 -10.28331
 Alpha  occ. eigenvalues --  -10.28071 -10.27750 -10.27658 -10.27461 -10.27417
 Alpha  occ. eigenvalues --  -10.27354 -10.27342 -10.27291 -10.27205 -10.27144
 Alpha  occ. eigenvalues --  -10.27036 -10.26774 -10.26708 -10.26074 -10.25999
 Alpha  occ. eigenvalues --  -10.25869 -10.25858 -10.25791 -10.25621 -10.25369
 Alpha  occ. eigenvalues --  -10.25232 -10.25207 -10.25112 -10.25071 -10.24977
 Alpha  occ. eigenvalues --  -10.24900 -10.24738 -10.24685 -10.24653 -10.24477
 Alpha  occ. eigenvalues --  -10.24386 -10.24363 -10.24239 -10.24186 -10.24051
 Alpha  occ. eigenvalues --  -10.23872  -3.18317  -1.93208  -1.92782  -1.92605
 Alpha  occ. eigenvalues --   -1.16134  -1.15546  -1.10243  -1.09474  -1.08329
 Alpha  occ. eigenvalues --   -1.07554  -1.04649  -1.03596  -1.03021  -1.01938
 Alpha  occ. eigenvalues --   -0.92636  -0.90356  -0.89994  -0.89716  -0.89047
 Alpha  occ. eigenvalues --   -0.88687  -0.88239  -0.87310  -0.87143  -0.86503
 Alpha  occ. eigenvalues --   -0.86017  -0.85771  -0.84395  -0.83811  -0.83561
 Alpha  occ. eigenvalues --   -0.82898  -0.82182  -0.81589  -0.80810  -0.80274
 Alpha  occ. eigenvalues --   -0.79531  -0.78094  -0.77782  -0.77212  -0.76424
 Alpha  occ. eigenvalues --   -0.75642  -0.75497  -0.75268  -0.74408  -0.74185
 Alpha  occ. eigenvalues --   -0.73375  -0.72822  -0.71980  -0.70670  -0.69283
 Alpha  occ. eigenvalues --   -0.68307  -0.67950  -0.67326  -0.67102  -0.66178
 Alpha  occ. eigenvalues --   -0.65454  -0.65154  -0.64985  -0.64550  -0.64364
 Alpha  occ. eigenvalues --   -0.63696  -0.63618  -0.62512  -0.62107  -0.60084
 Alpha  occ. eigenvalues --   -0.59795  -0.59148  -0.58904  -0.58515  -0.58169
 Alpha  occ. eigenvalues --   -0.57685  -0.57287  -0.56588  -0.55895  -0.55458
 Alpha  occ. eigenvalues --   -0.55238  -0.55182  -0.54692  -0.54109  -0.53843
 Alpha  occ. eigenvalues --   -0.53676  -0.53187  -0.53093  -0.53015  -0.52877
 Alpha  occ. eigenvalues --   -0.52683  -0.52636  -0.52547  -0.52180  -0.51573
 Alpha  occ. eigenvalues --   -0.51449  -0.51340  -0.51074  -0.50867  -0.50659
 Alpha  occ. eigenvalues --   -0.50265  -0.50137  -0.50058  -0.49924  -0.49712
 Alpha  occ. eigenvalues --   -0.49498  -0.49107  -0.49016  -0.48901  -0.48781
 Alpha  occ. eigenvalues --   -0.48575  -0.48375  -0.48285  -0.48188  -0.47827
 Alpha  occ. eigenvalues --   -0.47543  -0.47367  -0.47181  -0.46922  -0.46844
 Alpha  occ. eigenvalues --   -0.46455  -0.46306  -0.46150  -0.45844  -0.45756
 Alpha  occ. eigenvalues --   -0.45244  -0.45133  -0.45033  -0.44922  -0.44732
 Alpha  occ. eigenvalues --   -0.44544  -0.44392  -0.44214  -0.44107  -0.43875
 Alpha  occ. eigenvalues --   -0.43751  -0.43664  -0.43259  -0.43098  -0.42919
 Alpha  occ. eigenvalues --   -0.42605  -0.42543  -0.42345  -0.42291  -0.41997
 Alpha  occ. eigenvalues --   -0.41938  -0.41567  -0.41502  -0.41264  -0.41220
 Alpha  occ. eigenvalues --   -0.40970  -0.40848  -0.40548  -0.40317  -0.40258
 Alpha  occ. eigenvalues --   -0.40156  -0.39836  -0.39381  -0.38869  -0.38663
 Alpha  occ. eigenvalues --   -0.38343  -0.38038  -0.37885  -0.37565  -0.37444
 Alpha  occ. eigenvalues --   -0.37238  -0.37224  -0.36840  -0.36784  -0.36538
 Alpha  occ. eigenvalues --   -0.36459  -0.35812  -0.34630  -0.34539  -0.34154
 Alpha  occ. eigenvalues --   -0.34051  -0.34008  -0.33165  -0.31327  -0.31010
 Alpha  occ. eigenvalues --   -0.30691  -0.30072  -0.29706  -0.29377  -0.24173
 Alpha  occ. eigenvalues --   -0.21208
 Alpha virt. eigenvalues --   -0.08733  -0.02048   0.00551   0.01707   0.02381
 Alpha virt. eigenvalues --    0.04204   0.05303   0.05457   0.05800   0.06783
 Alpha virt. eigenvalues --    0.07743   0.08078   0.08448   0.08558   0.08583

 Mulliken charges:
               1
     1  Mg   0.820651
     2  C   -0.115390
     3  C   -0.052443
     4  C   -0.056002
     5  C   -0.088774
     6  N   -0.328963
     7  C   -0.039055
     8  C   -0.014951
     9  C   -0.047363
    10  C    0.026391
    11  C    0.070674
    12  C    0.066259
    13  C    0.106665
    14  C    0.151375
    15  O   -0.217630
    16  O   -0.360048
    17  N   -0.407182
    18  C    0.145899
    19  C   -0.142907
    20  C   -0.055864
    21  C    0.188124
    22  C    0.133793
    23  C    0.007685
    24  O   -0.225305
    25  C    0.059543
    26  N   -0.219331
    27  C   -0.051023
    28  C   -0.028201
    29  C   -0.021926
    30  C    0.025063
    31  C    0.075150
    32  C    0.028647
    33  C   -0.025156
    34  N   -0.326680
    35  C    0.129447
    36  C   -0.203165
    37  C   -0.052140
    38  C    0.180117
    39  C    0.118287
    40  C    0.109383
    41  O   -0.145500
    42  C    0.050104
    43  C    0.173696
    44  O   -0.206632
    45  O   -0.345510
    46  C    0.178461
    47  C    0.302027
    48  C   -0.131437
    49  C   -0.204282
    50  C    0.071326
    51  C    0.080920
    52  C    0.002907
    53  C    0.076913
    54  C   -0.103646
    55  C    0.038523
    56  C    0.078224
    57  C   -0.018245
    58  C    0.076643
    59  C   -0.156871
    60  C    0.032933
    61  C    0.050047
    62  C    0.022606
    63  C    0.069349
    64  C   -0.171091
    65  C    0.046190
    66  C    0.031048
    67  H   -0.029194
    68  H   -0.037990
    69  H   -0.021440
    70  H   -0.008386
    71  H   -0.000534
    72  H    0.014392
    73  H    0.026924
    74  H    0.012379
    75  H    0.023567
    76  H    0.021040
    77  H    0.023762
    78  H    0.008342
    79  H    0.048735
    80  H    0.013659
    81  H    0.027723
    82  H    0.056671
    83  H    0.026633
    84  H    0.021339
    85  H    0.019712
    86  H    0.020267
    87  H    0.013927
    88  H    0.017216
    89  H    0.024697
    90  H    0.027141
    91  H    0.010247
    92  H    0.019508
    93  H    0.011966
    94  H    0.017565
    95  H    0.015181
    96  H    0.036406
    97  H    0.025165
    98  H    0.035294
    99  H    0.059592
   100  H    0.050479
   101  H    0.017053
   102  H    0.038196
   103  H    0.046823
   104  H   -0.006880
   105  H   -0.006823
   106  H    0.040814
   107  H    0.019141
   108  H   -0.021380
   109  H    0.008285
   110  H    0.007554
   111  H    0.000480
   112  H   -0.008435
   113  H   -0.023284
   114  H   -0.000406
   115  H    0.011968
   116  H    0.001747
   117  H    0.009591
   118  H   -0.007092
   119  H   -0.015663
   120  H   -0.007471
   121  H   -0.002317
   122  H   -0.013130
   123  H   -0.002667
   124  H    0.001047
   125  H    0.015456
   126  H    0.012630
   127  H    0.006106
   128  H   -0.027852
   129  H   -0.010773
   130  H    0.003907
   131  H    0.003199
   132  H   -0.005057
   133  H   -0.004410
   134  H    0.000158
   135  H    0.005048
   136  H    0.007985
   137  H    0.010887
   138  H    0.002937
   139  H    0.002701
   140  H   -0.004423
 Sum of Mulliken charges =  -0.00000

 Dipole moment (field-independent basis, Debye):
    X=             -1.6297    Y=              4.1926    Z=             -0.0166  Tot=              4.4983
 Quadrupole moment (field-independent basis, Debye-Ang):
   XX=           -411.5024   YY=           -430.8105   ZZ=           -378.8498
   XY=             59.1523   XZ=             -0.3430   YZ=             37.2527

 Normal termination of Gaussian 16 at Wed Apr 27 15:44:32 2022.
