 Gaussian 16, Revision A.03,
 Gaussian 16:  ES64L-G16RevA.03 25-Dec-2016

 ---------------------------------
 #p PBE1PBE/Def2SVP td=(nstates=5)
 ---------------------------------

 ------------------------------------------------------
 step_1251_chromophore_17 TDDFT with PBE1PBE functional
 ------------------------------------------------------
 Symbolic Z-matrix:
 Charge =  0 Multiplicity = 1

                         Standard orientation:
 ---------------------------------------------------------------------
 Center     Atomic      Atomic             Coordinates (Angstroms)
 Number     Number       Type             X           Y           Z
 ---------------------------------------------------------------------
      1         12           0        4.422846    1.337850   -0.682295
      2          6           0        4.475292   -2.213234   -0.483422
      3          6           0        2.145473    1.261098   -3.032116
      4          6           0        3.979715    4.559454    0.070251
      5          6           0        6.442043    1.197403    2.497589
      6          7           0        3.397058   -0.359623   -1.526260
      7          6           0        3.568658   -1.713121   -1.396554
      8          6           0        2.635114   -2.430843   -2.282663
      9          6           0        2.261225   -1.352287   -3.354007
     10          6           0        2.585268   -0.019117   -2.599816
     11          6           0        2.923020   -1.434574   -4.767501
     12          6           0        1.426517   -3.002935   -1.412017
     13          6           0        0.748111   -4.276735   -1.778488
     14          6           0        0.203491   -5.148927   -0.639460
     15          8           0        0.775755   -6.164162   -0.253380
     16          8           0       -0.848745   -4.480284    0.009281
     17          7           0        3.336999    2.825569   -1.586318
     18          6           0        2.360949    2.619151   -2.495452
     19          6           0        1.651344    3.850089   -2.808978
     20          6           0        2.275904    4.819053   -1.950225
     21          6           0        3.300335    4.107260   -1.064328
     22          6           0        0.417783    4.022132   -3.664921
     23          6           0        1.898952    6.304751   -1.839666
     24          8           0        0.880767    6.707566   -2.416004
     25          6           0        2.603595    7.266706   -1.043328
     26          7           0        5.049693    2.690075    1.061280
     27          6           0        4.805498    3.980892    1.035486
     28          6           0        5.366068    4.800334    2.199161
     29          6           0        6.174163    3.682229    2.961886
     30          6           0        5.847417    2.412619    2.164965
     31          6           0        6.175953    6.147277    1.915871
     32          6           0        5.803145    3.589219    4.538501
     33          6           0        7.012938    3.977799    5.454429
     34          7           0        5.321319   -0.103459    0.684428
     35          6           0        6.124260   -0.004597    1.873029
     36          6           0        6.489015   -1.330147    2.244421
     37          6           0        5.913666   -2.210726    1.326009
     38          6           0        5.199152   -1.411516    0.423645
     39          6           0        7.457555   -1.704904    3.320348
     40          6           0        5.795662   -3.660727    0.920922
     41          8           0        6.266555   -4.685443    1.363949
     42          6           0        4.827136   -3.672780   -0.306197
     43          6           0        5.505837   -4.187841   -1.487224
     44          8           0        6.596142   -3.861336   -1.911527
     45          8           0        4.652546   -5.054823   -2.112671
     46          6           0        5.029911   -5.466227   -3.519535
     47          6           0       -1.469168   -4.999849    1.186660
     48          6           0       -2.977541   -4.570798    0.987771
     49          6           0       -3.974550   -4.492564    1.910266
     50          6           0       -3.710946   -4.737600    3.422171
     51          6           0       -5.348252   -4.002642    1.665157
     52          6           0       -5.444246   -2.501676    1.310214
     53          6           0       -6.146879   -1.533138    2.328136
     54          6           0       -7.369743   -0.843880    1.727024
     55          6           0       -8.635668   -0.992252    2.647786
     56          6           0       -7.096118    0.624122    1.278278
     57          6           0       -7.353744    0.930685   -0.208177
     58          6           0       -8.057627    2.276819   -0.537889
     59          6           0       -9.312606    2.114837   -1.455066
     60          6           0       -9.121294    3.104159   -2.693493
     61          6           0      -10.610615    2.259674   -0.677390
     62          6           0      -11.311933    0.846752   -0.421741
     63          6           0      -12.314246    0.938863    0.765821
     64          6           0      -13.692510    0.668531    0.318253
     65          6           0      -14.291892    2.002104   -0.091844
     66          6           0      -14.547046    0.085983    1.524969
     67          1           0        1.495911    1.112350   -3.896294
     68          1           0        3.704859    5.537484    0.471539
     69          1           0        7.120119    1.137035    3.350876
     70          1           0        3.109146   -3.281003   -2.773348
     71          1           0        1.186095   -1.323470   -3.527966
     72          1           0        3.724301   -2.168037   -4.681764
     73          1           0        3.309708   -0.563247   -5.295511
     74          1           0        2.173406   -1.790743   -5.474112
     75          1           0        0.713746   -2.177801   -1.392738
     76          1           0        1.911635   -3.238023   -0.465273
     77          1           0        1.300830   -4.957018   -2.426752
     78          1           0       -0.141747   -3.991272   -2.339022
     79          1           0       -0.125489    4.869820   -3.248187
     80          1           0       -0.204280    3.127255   -3.632637
     81          1           0        0.734067    4.211497   -4.690891
     82          1           0        2.272940    7.261496   -0.005080
     83          1           0        2.507171    8.287021   -1.416123
     84          1           0        3.690303    7.185532   -1.084137
     85          1           0        4.495452    5.114850    2.775001
     86          1           0        7.248642    3.773405    2.806417
     87          1           0        7.233145    5.923664    2.061872
     88          1           0        5.903961    6.887225    2.668218
     89          1           0        5.955023    6.500452    0.908152
     90          1           0        5.431703    2.603714    4.822182
     91          1           0        5.097415    4.378278    4.797961
     92          1           0        7.370088    3.039603    5.877439
     93          1           0        6.657922    4.625993    6.254975
     94          1           0        7.829406    4.529293    4.986629
     95          1           0        8.396394   -1.199020    3.091284
     96          1           0        7.650373   -2.759186    3.118784
     97          1           0        7.196480   -1.430585    4.342346
     98          1           0        3.905710   -4.246220   -0.213896
     99          1           0        4.525710   -6.403501   -3.752832
    100          1           0        6.098111   -5.492410   -3.734641
    101          1           0        4.770812   -4.630444   -4.169815
    102          1           0       -1.060577   -4.510461    2.071579
    103          1           0       -1.466693   -6.089690    1.198091
    104          1           0       -3.305852   -4.355268   -0.029506
    105          1           0       -2.642389   -4.828979    3.616546
    106          1           0       -4.300918   -5.610494    3.701831
    107          1           0       -3.906172   -3.823421    3.982933
    108          1           0       -5.875697   -4.134889    2.609595
    109          1           0       -5.928207   -4.589783    0.954377
    110          1           0       -5.858499   -2.494913    0.301763
    111          1           0       -4.374305   -2.300401    1.266144
    112          1           0       -5.484230   -0.824008    2.824338
    113          1           0       -6.358386   -2.179228    3.179277
    114          1           0       -7.563642   -1.491088    0.871960
    115          1           0       -9.200177   -1.889874    2.396919
    116          1           0       -9.299681   -0.143850    2.483287
    117          1           0       -8.436598   -0.919840    3.717177
    118          1           0       -6.079197    0.987988    1.428557
    119          1           0       -7.660864    1.384159    1.818952
    120          1           0       -8.000897    0.150725   -0.610693
    121          1           0       -6.435980    0.916611   -0.795027
    122          1           0       -7.349419    2.838452   -1.147015
    123          1           0       -8.260426    2.783530    0.405295
    124          1           0       -9.423760    1.131496   -1.910886
    125          1           0       -8.360720    2.651052   -3.330794
    126          1           0       -8.777302    4.075294   -2.336882
    127          1           0      -10.082141    3.229460   -3.191212
    128          1           0      -11.255991    2.908608   -1.268718
    129          1           0      -10.530651    2.873312    0.220484
    130          1           0      -10.519411    0.122768   -0.235369
    131          1           0      -11.944676    0.547868   -1.256690
    132          1           0      -12.336082    1.945183    1.185811
    133          1           0      -12.029224    0.186399    1.500647
    134          1           0      -13.752221   -0.075353   -0.476138
    135          1           0      -15.367834    1.848180   -0.171999
    136          1           0      -13.940680    2.334451   -1.067955
    137          1           0      -14.080992    2.787666    0.634173
    138          1           0      -15.053575   -0.878581    1.476899
    139          1           0      -15.353814    0.762917    1.803983
    140          1           0      -13.846221   -0.100411    2.338925
 ---------------------------------------------------------------------

 SCF Done:  E(RPBE1PBE) =  -3005.32983264     A.U. after   15 cycles

 Excitation energies and oscillator strengths:

 Excited State   1:      Singlet-A      1.8666 eV  664.24 nm  f=0.3687  <S**2>=0.000
     245 -> 248        0.17223
     246 -> 247        0.69098
     246 <- 247       -0.10548
 This state for optimization and/or second-order correction.
 Total Energy, E(TD-HF/TD-DFT) =  -3005.26123796
 Copying the excited state density for this state as the 1-particle RhoCI density.

 Excited State   2:      Singlet-A      2.2405 eV  553.38 nm  f=0.0982  <S**2>=0.000
     245 -> 247        0.64513
     246 -> 248       -0.26913

 Excited State   3:      Singlet-A      2.9548 eV  419.61 nm  f=0.0005  <S**2>=0.000
     240 -> 247        0.23697
     242 -> 247        0.52583
     242 -> 249        0.10872
     243 -> 247        0.34564

 Excited State   4:      Singlet-A      2.9824 eV  415.72 nm  f=0.0018  <S**2>=0.000
     240 -> 247       -0.11690
     241 -> 247        0.16236
     242 -> 247       -0.28923
     243 -> 247        0.59383

 Excited State   5:      Singlet-A      3.1103 eV  398.63 nm  f=0.0058  <S**2>=0.000
     240 -> 247        0.30531
     241 -> 247        0.58454
     241 -> 249       -0.11495
     243 -> 247       -0.12925
     246 -> 248        0.10464

 The electronic state is 1-A.
 Alpha  occ. eigenvalues --  -46.93363 -19.26098 -19.25681 -19.20813 -19.19786
 Alpha  occ. eigenvalues --  -19.19479 -19.18605 -14.41778 -14.41507 -14.39921
 Alpha  occ. eigenvalues --  -14.38678 -10.37082 -10.35934 -10.32564 -10.31915
 Alpha  occ. eigenvalues --  -10.30150 -10.29682 -10.29444 -10.29111 -10.28738
 Alpha  occ. eigenvalues --  -10.28626 -10.28545 -10.28357 -10.26857 -10.26537
 Alpha  occ. eigenvalues --  -10.26527 -10.26359 -10.26259 -10.26189 -10.26105
 Alpha  occ. eigenvalues --  -10.25634 -10.25508 -10.25392 -10.25312 -10.25182
 Alpha  occ. eigenvalues --  -10.25048 -10.24848 -10.24842 -10.24771 -10.24748
 Alpha  occ. eigenvalues --  -10.24605 -10.24385 -10.24248 -10.23710 -10.23392
 Alpha  occ. eigenvalues --  -10.23333 -10.23257 -10.23252 -10.22949 -10.22916
 Alpha  occ. eigenvalues --  -10.22888 -10.22883 -10.22665 -10.22662 -10.22624
 Alpha  occ. eigenvalues --  -10.22564 -10.22474 -10.22202 -10.22077 -10.21941
 Alpha  occ. eigenvalues --  -10.21931 -10.21891 -10.21709 -10.21623 -10.21477
 Alpha  occ. eigenvalues --  -10.21421  -3.15277  -1.88105  -1.87660  -1.87486
 Alpha  occ. eigenvalues --   -1.10938  -1.10394  -1.05113  -1.04049  -1.03240
 Alpha  occ. eigenvalues --   -1.02428  -0.99223  -0.98214  -0.97598  -0.96695
 Alpha  occ. eigenvalues --   -0.87083  -0.84497  -0.84103  -0.83949  -0.83350
 Alpha  occ. eigenvalues --   -0.82797  -0.82493  -0.81503  -0.81419  -0.80878
 Alpha  occ. eigenvalues --   -0.80187  -0.80083  -0.78674  -0.78055  -0.77718
 Alpha  occ. eigenvalues --   -0.77045  -0.76406  -0.75888  -0.75126  -0.74509
 Alpha  occ. eigenvalues --   -0.73720  -0.72396  -0.72143  -0.71464  -0.70756
 Alpha  occ. eigenvalues --   -0.69832  -0.69760  -0.69348  -0.68550  -0.68354
 Alpha  occ. eigenvalues --   -0.67741  -0.67277  -0.66412  -0.65003  -0.63636
 Alpha  occ. eigenvalues --   -0.62747  -0.62189  -0.61754  -0.61328  -0.60591
 Alpha  occ. eigenvalues --   -0.59921  -0.59607  -0.59366  -0.59150  -0.58461
 Alpha  occ. eigenvalues --   -0.58130  -0.57826  -0.56725  -0.56701  -0.54629
 Alpha  occ. eigenvalues --   -0.54278  -0.53749  -0.53307  -0.53030  -0.52681
 Alpha  occ. eigenvalues --   -0.52265  -0.51740  -0.51130  -0.50454  -0.50099
 Alpha  occ. eigenvalues --   -0.49896  -0.49681  -0.49224  -0.48504  -0.48442
 Alpha  occ. eigenvalues --   -0.48170  -0.47726  -0.47662  -0.47512  -0.47349
 Alpha  occ. eigenvalues --   -0.47249  -0.47102  -0.46982  -0.46831  -0.46049
 Alpha  occ. eigenvalues --   -0.46016  -0.45983  -0.45605  -0.45448  -0.45224
 Alpha  occ. eigenvalues --   -0.44830  -0.44681  -0.44508  -0.44484  -0.44216
 Alpha  occ. eigenvalues --   -0.44082  -0.43752  -0.43696  -0.43454  -0.43404
 Alpha  occ. eigenvalues --   -0.43237  -0.43015  -0.42955  -0.42829  -0.42531
 Alpha  occ. eigenvalues --   -0.42207  -0.41988  -0.41792  -0.41612  -0.41516
 Alpha  occ. eigenvalues --   -0.41185  -0.40988  -0.40899  -0.40466  -0.40396
 Alpha  occ. eigenvalues --   -0.39999  -0.39912  -0.39684  -0.39638  -0.39496
 Alpha  occ. eigenvalues --   -0.39274  -0.38999  -0.38965  -0.38898  -0.38656
 Alpha  occ. eigenvalues --   -0.38503  -0.38309  -0.38137  -0.37917  -0.37704
 Alpha  occ. eigenvalues --   -0.37449  -0.37395  -0.37200  -0.37051  -0.36772
 Alpha  occ. eigenvalues --   -0.36661  -0.36413  -0.36313  -0.36142  -0.35989
 Alpha  occ. eigenvalues --   -0.35895  -0.35713  -0.35462  -0.35093  -0.35079
 Alpha  occ. eigenvalues --   -0.35057  -0.34740  -0.34166  -0.33663  -0.33638
 Alpha  occ. eigenvalues --   -0.33078  -0.32818  -0.32660  -0.32462  -0.32436
 Alpha  occ. eigenvalues --   -0.32254  -0.32026  -0.31866  -0.31738  -0.31543
 Alpha  occ. eigenvalues --   -0.31396  -0.30676  -0.29588  -0.29429  -0.29382
 Alpha  occ. eigenvalues --   -0.28966  -0.28894  -0.28717  -0.26942  -0.25780
 Alpha  occ. eigenvalues --   -0.25753  -0.25322  -0.25109  -0.24997  -0.21088
 Alpha  occ. eigenvalues --   -0.18870
 Alpha virt. eigenvalues --   -0.11215  -0.05530  -0.03628  -0.02118  -0.01091
 Alpha virt. eigenvalues --   -0.00437   0.00729   0.01105   0.01311   0.02753
 Alpha virt. eigenvalues --    0.03993   0.04160   0.04781   0.05215   0.05364

 Mulliken charges:
               1
     1  Mg   0.958594
     2  C   -0.134486
     3  C   -0.043363
     4  C   -0.067728
     5  C   -0.078394
     6  N   -0.428250
     7  C    0.041684
     8  C   -0.092520
     9  C   -0.121435
    10  C    0.056585
    11  C    0.011541
    12  C    0.015296
    13  C    0.029238
    14  C    0.216441
    15  O   -0.250360
    16  O   -0.389727
    17  N   -0.520505
    18  C    0.165728
    19  C   -0.166765
    20  C   -0.106426
    21  C    0.219259
    22  C    0.073560
    23  C    0.058592
    24  O   -0.260739
    25  C   -0.015640
    26  N   -0.323390
    27  C   -0.000321
    28  C   -0.099070
    29  C   -0.099924
    30  C    0.067019
    31  C    0.015081
    32  C   -0.031499
    33  C   -0.095097
    34  N   -0.449860
    35  C    0.147259
    36  C   -0.218864
    37  C   -0.102070
    38  C    0.240441
    39  C    0.060857
    40  C    0.210340
    41  O   -0.191750
    42  C   -0.067872
    43  C    0.274299
    44  O   -0.243680
    45  O   -0.377571
    46  C    0.118534
    47  C    0.263613
    48  C   -0.141087
    49  C   -0.251833
    50  C    0.003399
    51  C    0.024306
    52  C   -0.064149
    53  C    0.030498
    54  C   -0.197792
    55  C   -0.022531
    56  C    0.025973
    57  C   -0.076374
    58  C    0.020467
    59  C   -0.243668
    60  C   -0.033204
    61  C    0.006406
    62  C   -0.044820
    63  C    0.011304
    64  C   -0.271175
    65  C   -0.012792
    66  C   -0.023816
    67  H    0.004020
    68  H   -0.003237
    69  H    0.009397
    70  H    0.039384
    71  H    0.036167
    72  H    0.044924
    73  H    0.053196
    74  H    0.039732
    75  H    0.055765
    76  H    0.056699
    77  H    0.054382
    78  H    0.042082
    79  H    0.075527
    80  H    0.040441
    81  H    0.055799
    82  H    0.081618
    83  H    0.053805
    84  H    0.048152
    85  H    0.056535
    86  H    0.057171
    87  H    0.040900
    88  H    0.044454
    89  H    0.052417
    90  H    0.058365
    91  H    0.043219
    92  H    0.047005
    93  H    0.039865
    94  H    0.044337
    95  H    0.044320
    96  H    0.065308
    97  H    0.052593
    98  H    0.074088
    99  H    0.080666
   100  H    0.071748
   101  H    0.040621
   102  H    0.063676
   103  H    0.073231
   104  H    0.023705
   105  H    0.021406
   106  H    0.068649
   107  H    0.047674
   108  H    0.011904
   109  H    0.040555
   110  H    0.038183
   111  H    0.036564
   112  H    0.023162
   113  H    0.009102
   114  H    0.038398
   115  H    0.039282
   116  H    0.031794
   117  H    0.036586
   118  H    0.025366
   119  H    0.016315
   120  H    0.024699
   121  H    0.030294
   122  H    0.021139
   123  H    0.028178
   124  H    0.038908
   125  H    0.044260
   126  H    0.040920
   127  H    0.034031
   128  H    0.005742
   129  H    0.019670
   130  H    0.039916
   131  H    0.035975
   132  H    0.027258
   133  H    0.029183
   134  H    0.036884
   135  H    0.033879
   136  H    0.036693
   137  H    0.037573
   138  H    0.030316
   139  H    0.029455
   140  H    0.022243
 Sum of Mulliken charges =  -0.00000

 Dipole moment (field-independent basis, Debye):
    X=             -1.5110    Y=              3.9927    Z=              0.1632  Tot=              4.2722
 Quadrupole moment (field-independent basis, Debye-Ang):
   XX=           -406.4177   YY=           -428.9688   ZZ=           -374.8080
   XY=             58.8335   XZ=              1.2029   YZ=             38.4605

 Normal termination of Gaussian 16 at Wed Apr 27 16:02:09 2022.
