 Gaussian 16, Revision A.03,
 Gaussian 16:  ES64L-G16RevA.03 25-Dec-2016

 --------------------------------
 #p wB97XD/Def2SVP td=(nstates=5)
 --------------------------------

 -----------------------------------------------------
 step_1251_chromophore_17 TDDFT with wB97XD functional
 -----------------------------------------------------
 Symbolic Z-matrix:
 Charge =  0 Multiplicity = 1

                         Standard orientation:
 ---------------------------------------------------------------------
 Center     Atomic      Atomic             Coordinates (Angstroms)
 Number     Number       Type             X           Y           Z
 ---------------------------------------------------------------------
      1         12           0        4.422846    1.337850   -0.682295
      2          6           0        4.475292   -2.213234   -0.483422
      3          6           0        2.145473    1.261098   -3.032116
      4          6           0        3.979715    4.559454    0.070251
      5          6           0        6.442043    1.197403    2.497589
      6          7           0        3.397058   -0.359623   -1.526260
      7          6           0        3.568658   -1.713121   -1.396554
      8          6           0        2.635114   -2.430843   -2.282663
      9          6           0        2.261225   -1.352287   -3.354007
     10          6           0        2.585268   -0.019117   -2.599816
     11          6           0        2.923020   -1.434574   -4.767501
     12          6           0        1.426517   -3.002935   -1.412017
     13          6           0        0.748111   -4.276735   -1.778488
     14          6           0        0.203491   -5.148927   -0.639460
     15          8           0        0.775755   -6.164162   -0.253380
     16          8           0       -0.848745   -4.480284    0.009281
     17          7           0        3.336999    2.825569   -1.586318
     18          6           0        2.360949    2.619151   -2.495452
     19          6           0        1.651344    3.850089   -2.808978
     20          6           0        2.275904    4.819053   -1.950225
     21          6           0        3.300335    4.107260   -1.064328
     22          6           0        0.417783    4.022132   -3.664921
     23          6           0        1.898952    6.304751   -1.839666
     24          8           0        0.880767    6.707566   -2.416004
     25          6           0        2.603595    7.266706   -1.043328
     26          7           0        5.049693    2.690075    1.061280
     27          6           0        4.805498    3.980892    1.035486
     28          6           0        5.366068    4.800334    2.199161
     29          6           0        6.174163    3.682229    2.961886
     30          6           0        5.847417    2.412619    2.164965
     31          6           0        6.175953    6.147277    1.915871
     32          6           0        5.803145    3.589219    4.538501
     33          6           0        7.012938    3.977799    5.454429
     34          7           0        5.321319   -0.103459    0.684428
     35          6           0        6.124260   -0.004597    1.873029
     36          6           0        6.489015   -1.330147    2.244421
     37          6           0        5.913666   -2.210726    1.326009
     38          6           0        5.199152   -1.411516    0.423645
     39          6           0        7.457555   -1.704904    3.320348
     40          6           0        5.795662   -3.660727    0.920922
     41          8           0        6.266555   -4.685443    1.363949
     42          6           0        4.827136   -3.672780   -0.306197
     43          6           0        5.505837   -4.187841   -1.487224
     44          8           0        6.596142   -3.861336   -1.911527
     45          8           0        4.652546   -5.054823   -2.112671
     46          6           0        5.029911   -5.466227   -3.519535
     47          6           0       -1.469168   -4.999849    1.186660
     48          6           0       -2.977541   -4.570798    0.987771
     49          6           0       -3.974550   -4.492564    1.910266
     50          6           0       -3.710946   -4.737600    3.422171
     51          6           0       -5.348252   -4.002642    1.665157
     52          6           0       -5.444246   -2.501676    1.310214
     53          6           0       -6.146879   -1.533138    2.328136
     54          6           0       -7.369743   -0.843880    1.727024
     55          6           0       -8.635668   -0.992252    2.647786
     56          6           0       -7.096118    0.624122    1.278278
     57          6           0       -7.353744    0.930685   -0.208177
     58          6           0       -8.057627    2.276819   -0.537889
     59          6           0       -9.312606    2.114837   -1.455066
     60          6           0       -9.121294    3.104159   -2.693493
     61          6           0      -10.610615    2.259674   -0.677390
     62          6           0      -11.311933    0.846752   -0.421741
     63          6           0      -12.314246    0.938863    0.765821
     64          6           0      -13.692510    0.668531    0.318253
     65          6           0      -14.291892    2.002104   -0.091844
     66          6           0      -14.547046    0.085983    1.524969
     67          1           0        1.495911    1.112350   -3.896294
     68          1           0        3.704859    5.537484    0.471539
     69          1           0        7.120119    1.137035    3.350876
     70          1           0        3.109146   -3.281003   -2.773348
     71          1           0        1.186095   -1.323470   -3.527966
     72          1           0        3.724301   -2.168037   -4.681764
     73          1           0        3.309708   -0.563247   -5.295511
     74          1           0        2.173406   -1.790743   -5.474112
     75          1           0        0.713746   -2.177801   -1.392738
     76          1           0        1.911635   -3.238023   -0.465273
     77          1           0        1.300830   -4.957018   -2.426752
     78          1           0       -0.141747   -3.991272   -2.339022
     79          1           0       -0.125489    4.869820   -3.248187
     80          1           0       -0.204280    3.127255   -3.632637
     81          1           0        0.734067    4.211497   -4.690891
     82          1           0        2.272940    7.261496   -0.005080
     83          1           0        2.507171    8.287021   -1.416123
     84          1           0        3.690303    7.185532   -1.084137
     85          1           0        4.495452    5.114850    2.775001
     86          1           0        7.248642    3.773405    2.806417
     87          1           0        7.233145    5.923664    2.061872
     88          1           0        5.903961    6.887225    2.668218
     89          1           0        5.955023    6.500452    0.908152
     90          1           0        5.431703    2.603714    4.822182
     91          1           0        5.097415    4.378278    4.797961
     92          1           0        7.370088    3.039603    5.877439
     93          1           0        6.657922    4.625993    6.254975
     94          1           0        7.829406    4.529293    4.986629
     95          1           0        8.396394   -1.199020    3.091284
     96          1           0        7.650373   -2.759186    3.118784
     97          1           0        7.196480   -1.430585    4.342346
     98          1           0        3.905710   -4.246220   -0.213896
     99          1           0        4.525710   -6.403501   -3.752832
    100          1           0        6.098111   -5.492410   -3.734641
    101          1           0        4.770812   -4.630444   -4.169815
    102          1           0       -1.060577   -4.510461    2.071579
    103          1           0       -1.466693   -6.089690    1.198091
    104          1           0       -3.305852   -4.355268   -0.029506
    105          1           0       -2.642389   -4.828979    3.616546
    106          1           0       -4.300918   -5.610494    3.701831
    107          1           0       -3.906172   -3.823421    3.982933
    108          1           0       -5.875697   -4.134889    2.609595
    109          1           0       -5.928207   -4.589783    0.954377
    110          1           0       -5.858499   -2.494913    0.301763
    111          1           0       -4.374305   -2.300401    1.266144
    112          1           0       -5.484230   -0.824008    2.824338
    113          1           0       -6.358386   -2.179228    3.179277
    114          1           0       -7.563642   -1.491088    0.871960
    115          1           0       -9.200177   -1.889874    2.396919
    116          1           0       -9.299681   -0.143850    2.483287
    117          1           0       -8.436598   -0.919840    3.717177
    118          1           0       -6.079197    0.987988    1.428557
    119          1           0       -7.660864    1.384159    1.818952
    120          1           0       -8.000897    0.150725   -0.610693
    121          1           0       -6.435980    0.916611   -0.795027
    122          1           0       -7.349419    2.838452   -1.147015
    123          1           0       -8.260426    2.783530    0.405295
    124          1           0       -9.423760    1.131496   -1.910886
    125          1           0       -8.360720    2.651052   -3.330794
    126          1           0       -8.777302    4.075294   -2.336882
    127          1           0      -10.082141    3.229460   -3.191212
    128          1           0      -11.255991    2.908608   -1.268718
    129          1           0      -10.530651    2.873312    0.220484
    130          1           0      -10.519411    0.122768   -0.235369
    131          1           0      -11.944676    0.547868   -1.256690
    132          1           0      -12.336082    1.945183    1.185811
    133          1           0      -12.029224    0.186399    1.500647
    134          1           0      -13.752221   -0.075353   -0.476138
    135          1           0      -15.367834    1.848180   -0.171999
    136          1           0      -13.940680    2.334451   -1.067955
    137          1           0      -14.080992    2.787666    0.634173
    138          1           0      -15.053575   -0.878581    1.476899
    139          1           0      -15.353814    0.762917    1.803983
    140          1           0      -13.846221   -0.100411    2.338925
 ---------------------------------------------------------------------

 SCF Done:  E(RwB97XD) =  -3007.83845749     A.U. after   19 cycles

 Excitation energies and oscillator strengths:

 Excited State   1:      Singlet-A      1.6562 eV  748.60 nm  f=0.3763  <S**2>=0.000
     245 -> 248        0.18281
     246 -> 247        0.68167
     245 <- 248        0.11536
 This state for optimization and/or second-order correction.
 Total Energy, E(TD-HF/TD-DFT) =  -3007.77759302
 Copying the excited state density for this state as the 1-particle RhoCI density.

 Excited State   2:      Singlet-A      2.1846 eV  567.53 nm  f=0.0969  <S**2>=0.000
     245 -> 247        0.63028
     246 -> 248       -0.30106

 Excited State   3:      Singlet-A      3.3618 eV  368.80 nm  f=0.0007  <S**2>=0.000
     242 -> 247       -0.20350
     244 -> 247        0.65148

 Excited State   4:      Singlet-A      3.4145 eV  363.11 nm  f=0.0649  <S**2>=0.000
     240 -> 247       -0.22996
     240 -> 248        0.12360
     240 -> 249       -0.21668
     240 -> 250        0.13456
     242 -> 247        0.46272
     242 -> 249        0.12644
     244 -> 247        0.15448
     246 -> 248        0.28251

 Excited State   5:      Singlet-A      3.4973 eV  354.51 nm  f=0.1899  <S**2>=0.000
     240 -> 247        0.43944
     240 -> 248       -0.13155
     240 -> 249        0.24511
     240 -> 250       -0.13113
     242 -> 247        0.18390
     245 -> 247        0.15040
     246 -> 248        0.36454

 The electronic state is 1-A.
 Alpha  occ. eigenvalues --  -46.96314 -19.30591 -19.30182 -19.25441 -19.24437
 Alpha  occ. eigenvalues --  -19.24152 -19.23597 -14.47013 -14.46426 -14.45007
 Alpha  occ. eigenvalues --  -14.43492 -10.43822 -10.42689 -10.39277 -10.38922
 Alpha  occ. eigenvalues --  -10.36604 -10.36169 -10.35875 -10.35656 -10.35360
 Alpha  occ. eigenvalues --  -10.35032 -10.34620 -10.34543 -10.33046 -10.32878
 Alpha  occ. eigenvalues --  -10.32791 -10.32782 -10.32415 -10.32401 -10.32284
 Alpha  occ. eigenvalues --  -10.32244 -10.31837 -10.31626 -10.31496 -10.31463
 Alpha  occ. eigenvalues --  -10.31298 -10.31249 -10.31238 -10.31208 -10.31176
 Alpha  occ. eigenvalues --  -10.31096 -10.30688 -10.30647 -10.29991 -10.29958
 Alpha  occ. eigenvalues --  -10.29732 -10.29684 -10.29683 -10.29569 -10.29215
 Alpha  occ. eigenvalues --  -10.29194 -10.29161 -10.29015 -10.28995 -10.28905
 Alpha  occ. eigenvalues --  -10.28830 -10.28742 -10.28576 -10.28501 -10.28325
 Alpha  occ. eigenvalues --  -10.28316 -10.28294 -10.28086 -10.28062 -10.27882
 Alpha  occ. eigenvalues --  -10.27772  -3.22122  -1.95693  -1.95247  -1.95071
 Alpha  occ. eigenvalues --   -1.18278  -1.17731  -1.12451  -1.11719  -1.10535
 Alpha  occ. eigenvalues --   -1.09731  -1.06650  -1.05587  -1.05078  -1.03944
 Alpha  occ. eigenvalues --   -0.94578  -0.92144  -0.91752  -0.91554  -0.90969
 Alpha  occ. eigenvalues --   -0.90458  -0.90115  -0.89105  -0.89054  -0.88440
 Alpha  occ. eigenvalues --   -0.88016  -0.87669  -0.86321  -0.85695  -0.85393
 Alpha  occ. eigenvalues --   -0.84810  -0.84044  -0.83498  -0.82746  -0.82141
 Alpha  occ. eigenvalues --   -0.81369  -0.79987  -0.79704  -0.79187  -0.78358
 Alpha  occ. eigenvalues --   -0.77487  -0.77433  -0.77050  -0.76229  -0.76022
 Alpha  occ. eigenvalues --   -0.75298  -0.74783  -0.73959  -0.72598  -0.71194
 Alpha  occ. eigenvalues --   -0.70289  -0.69819  -0.69360  -0.68960  -0.68091
 Alpha  occ. eigenvalues --   -0.67436  -0.67004  -0.66988  -0.66555  -0.66152
 Alpha  occ. eigenvalues --   -0.65581  -0.65499  -0.64340  -0.64076  -0.62065
 Alpha  occ. eigenvalues --   -0.61739  -0.61171  -0.60796  -0.60475  -0.60114
 Alpha  occ. eigenvalues --   -0.59682  -0.59184  -0.58580  -0.57832  -0.57426
 Alpha  occ. eigenvalues --   -0.57191  -0.57077  -0.56593  -0.55955  -0.55782
 Alpha  occ. eigenvalues --   -0.55560  -0.55069  -0.54960  -0.54929  -0.54830
 Alpha  occ. eigenvalues --   -0.54588  -0.54566  -0.54400  -0.54128  -0.53449
 Alpha  occ. eigenvalues --   -0.53340  -0.53270  -0.52996  -0.52777  -0.52562
 Alpha  occ. eigenvalues --   -0.52210  -0.52025  -0.52008  -0.51807  -0.51687
 Alpha  occ. eigenvalues --   -0.51413  -0.51009  -0.50962  -0.50757  -0.50685
 Alpha  occ. eigenvalues --   -0.50468  -0.50270  -0.50180  -0.50095  -0.49727
 Alpha  occ. eigenvalues --   -0.49454  -0.49237  -0.49152  -0.48816  -0.48746
 Alpha  occ. eigenvalues --   -0.48405  -0.48211  -0.48080  -0.47803  -0.47620
 Alpha  occ. eigenvalues --   -0.47162  -0.47090  -0.46885  -0.46849  -0.46678
 Alpha  occ. eigenvalues --   -0.46433  -0.46232  -0.46143  -0.46028  -0.45817
 Alpha  occ. eigenvalues --   -0.45641  -0.45510  -0.45174  -0.45006  -0.44803
 Alpha  occ. eigenvalues --   -0.44534  -0.44451  -0.44285  -0.44251  -0.43915
 Alpha  occ. eigenvalues --   -0.43795  -0.43583  -0.43404  -0.43158  -0.43098
 Alpha  occ. eigenvalues --   -0.42884  -0.42751  -0.42464  -0.42159  -0.42141
 Alpha  occ. eigenvalues --   -0.42060  -0.41715  -0.41238  -0.40721  -0.40576
 Alpha  occ. eigenvalues --   -0.40169  -0.39869  -0.39716  -0.39449  -0.39416
 Alpha  occ. eigenvalues --   -0.39253  -0.39072  -0.38772  -0.38732  -0.38552
 Alpha  occ. eigenvalues --   -0.38371  -0.37656  -0.36480  -0.36459  -0.36148
 Alpha  occ. eigenvalues --   -0.35928  -0.35890  -0.35408  -0.33522  -0.32990
 Alpha  occ. eigenvalues --   -0.32664  -0.32267  -0.31722  -0.31501  -0.26091
 Alpha  occ. eigenvalues --   -0.23012
 Alpha virt. eigenvalues --   -0.07080  -0.00127   0.02630   0.04437   0.04953
 Alpha virt. eigenvalues --    0.06407   0.07616   0.07819   0.08056   0.09374
 Alpha virt. eigenvalues --    0.10578   0.10892   0.11446   0.11945   0.12035

 Mulliken charges:
               1
     1  Mg   0.952848
     2  C   -0.134560
     3  C   -0.065404
     4  C   -0.071174
     5  C   -0.093888
     6  N   -0.398758
     7  C    0.007366
     8  C   -0.054182
     9  C   -0.096423
    10  C    0.047723
    11  C    0.022738
    12  C    0.028460
    13  C    0.045867
    14  C    0.206325
    15  O   -0.247960
    16  O   -0.388833
    17  N   -0.490353
    18  C    0.160715
    19  C   -0.159350
    20  C   -0.097648
    21  C    0.211503
    22  C    0.087360
    23  C    0.055465
    24  O   -0.254997
    25  C   -0.006274
    26  N   -0.287410
    27  C   -0.018002
    28  C   -0.077428
    29  C   -0.072576
    30  C    0.049727
    31  C    0.028819
    32  C   -0.017585
    33  C   -0.079109
    34  N   -0.413166
    35  C    0.137920
    36  C   -0.213825
    37  C   -0.097992
    38  C    0.218600
    39  C    0.070740
    40  C    0.188086
    41  O   -0.182949
    42  C   -0.022367
    43  C    0.247592
    44  O   -0.238233
    45  O   -0.375838
    46  C    0.136099
    47  C    0.274333
    48  C   -0.152683
    49  C   -0.234372
    50  C    0.020757
    51  C    0.038512
    52  C   -0.044611
    53  C    0.042243
    54  C   -0.163710
    55  C   -0.007233
    56  C    0.038453
    57  C   -0.056820
    58  C    0.034684
    59  C   -0.213368
    60  C   -0.015823
    61  C    0.016315
    62  C   -0.022539
    63  C    0.030075
    64  C   -0.237676
    65  C   -0.002412
    66  C   -0.013585
    67  H   -0.001777
    68  H   -0.016484
    69  H    0.005756
    70  H    0.011119
    71  H    0.026090
    72  H    0.036193
    73  H    0.048518
    74  H    0.034518
    75  H    0.048696
    76  H    0.042798
    77  H    0.050783
    78  H    0.035400
    79  H    0.071714
    80  H    0.036177
    81  H    0.052019
    82  H    0.079258
    83  H    0.053350
    84  H    0.042074
    85  H    0.045450
    86  H    0.044022
    87  H    0.035178
    88  H    0.039533
    89  H    0.044795
    90  H    0.051479
    91  H    0.034029
    92  H    0.040710
    93  H    0.034179
    94  H    0.037572
    95  H    0.037778
    96  H    0.060848
    97  H    0.048113
    98  H    0.065724
    99  H    0.078307
   100  H    0.068177
   101  H    0.034663
   102  H    0.058935
   103  H    0.069567
   104  H    0.020178
   105  H    0.014700
   106  H    0.063287
   107  H    0.040471
   108  H    0.000579
   109  H    0.035131
   110  H    0.030218
   111  H    0.025038
   112  H    0.016225
   113  H   -0.002349
   114  H    0.022535
   115  H    0.034177
   116  H    0.021963
   117  H    0.031038
   118  H    0.017928
   119  H    0.005732
   120  H    0.009458
   121  H    0.023477
   122  H    0.012004
   123  H    0.018515
   124  H    0.025589
   125  H    0.037743
   126  H    0.033662
   127  H    0.028102
   128  H   -0.005121
   129  H    0.010562
   130  H    0.026580
   131  H    0.025559
   132  H    0.014437
   133  H    0.019529
   134  H    0.027019
   135  H    0.027375
   136  H    0.030198
   137  H    0.031000
   138  H    0.025382
   139  H    0.023345
   140  H    0.015273
 Sum of Mulliken charges =  -0.00000

 Dipole moment (field-independent basis, Debye):
    X=             -1.6889    Y=              4.4053    Z=             -0.0863  Tot=              4.7187
 Quadrupole moment (field-independent basis, Debye-Ang):
   XX=           -407.6775   YY=           -426.8886   ZZ=           -374.4146
   XY=             59.8270   XZ=              0.1068   YZ=             37.6028

 Normal termination of Gaussian 16 at Wed Apr 27 16:26:30 2022.
