 Gaussian 16, Revision A.03,
 Gaussian 16:  ES64L-G16RevA.03 25-Dec-2016

 --------------------
 #p ZINDO=(nstates=5)
 --------------------

 ------------------------------
 step_1251_chromophore_17 ZINDO
 ------------------------------
 Symbolic Z-matrix:
 Charge =  0 Multiplicity = 1

                         Standard orientation:
 ---------------------------------------------------------------------
 Center     Atomic      Atomic             Coordinates (Angstroms)
 Number     Number       Type             X           Y           Z
 ---------------------------------------------------------------------
      1         12           0        4.422846    1.337850   -0.682295
      2          6           0        4.475292   -2.213234   -0.483422
      3          6           0        2.145473    1.261098   -3.032116
      4          6           0        3.979715    4.559454    0.070251
      5          6           0        6.442043    1.197403    2.497589
      6          7           0        3.397058   -0.359623   -1.526260
      7          6           0        3.568658   -1.713121   -1.396554
      8          6           0        2.635114   -2.430843   -2.282663
      9          6           0        2.261225   -1.352287   -3.354007
     10          6           0        2.585268   -0.019117   -2.599816
     11          6           0        2.923020   -1.434574   -4.767501
     12          6           0        1.426517   -3.002935   -1.412017
     13          6           0        0.748111   -4.276735   -1.778488
     14          6           0        0.203491   -5.148927   -0.639460
     15          8           0        0.775755   -6.164162   -0.253380
     16          8           0       -0.848745   -4.480284    0.009281
     17          7           0        3.336999    2.825569   -1.586318
     18          6           0        2.360949    2.619151   -2.495452
     19          6           0        1.651344    3.850089   -2.808978
     20          6           0        2.275904    4.819053   -1.950225
     21          6           0        3.300335    4.107260   -1.064328
     22          6           0        0.417783    4.022132   -3.664921
     23          6           0        1.898952    6.304751   -1.839666
     24          8           0        0.880767    6.707566   -2.416004
     25          6           0        2.603595    7.266706   -1.043328
     26          7           0        5.049693    2.690075    1.061280
     27          6           0        4.805498    3.980892    1.035486
     28          6           0        5.366068    4.800334    2.199161
     29          6           0        6.174163    3.682229    2.961886
     30          6           0        5.847417    2.412619    2.164965
     31          6           0        6.175953    6.147277    1.915871
     32          6           0        5.803145    3.589219    4.538501
     33          6           0        7.012938    3.977799    5.454429
     34          7           0        5.321319   -0.103459    0.684428
     35          6           0        6.124260   -0.004597    1.873029
     36          6           0        6.489015   -1.330147    2.244421
     37          6           0        5.913666   -2.210726    1.326009
     38          6           0        5.199152   -1.411516    0.423645
     39          6           0        7.457555   -1.704904    3.320348
     40          6           0        5.795662   -3.660727    0.920922
     41          8           0        6.266555   -4.685443    1.363949
     42          6           0        4.827136   -3.672780   -0.306197
     43          6           0        5.505837   -4.187841   -1.487224
     44          8           0        6.596142   -3.861336   -1.911527
     45          8           0        4.652546   -5.054823   -2.112671
     46          6           0        5.029911   -5.466227   -3.519535
     47          6           0       -1.469168   -4.999849    1.186660
     48          6           0       -2.977541   -4.570798    0.987771
     49          6           0       -3.974550   -4.492564    1.910266
     50          6           0       -3.710946   -4.737600    3.422171
     51          6           0       -5.348252   -4.002642    1.665157
     52          6           0       -5.444246   -2.501676    1.310214
     53          6           0       -6.146879   -1.533138    2.328136
     54          6           0       -7.369743   -0.843880    1.727024
     55          6           0       -8.635668   -0.992252    2.647786
     56          6           0       -7.096118    0.624122    1.278278
     57          6           0       -7.353744    0.930685   -0.208177
     58          6           0       -8.057627    2.276819   -0.537889
     59          6           0       -9.312606    2.114837   -1.455066
     60          6           0       -9.121294    3.104159   -2.693493
     61          6           0      -10.610615    2.259674   -0.677390
     62          6           0      -11.311933    0.846752   -0.421741
     63          6           0      -12.314246    0.938863    0.765821
     64          6           0      -13.692510    0.668531    0.318253
     65          6           0      -14.291892    2.002104   -0.091844
     66          6           0      -14.547046    0.085983    1.524969
     67          1           0        1.495911    1.112350   -3.896294
     68          1           0        3.704859    5.537484    0.471539
     69          1           0        7.120119    1.137035    3.350876
     70          1           0        3.109146   -3.281003   -2.773348
     71          1           0        1.186095   -1.323470   -3.527966
     72          1           0        3.724301   -2.168037   -4.681764
     73          1           0        3.309708   -0.563247   -5.295511
     74          1           0        2.173406   -1.790743   -5.474112
     75          1           0        0.713746   -2.177801   -1.392738
     76          1           0        1.911635   -3.238023   -0.465273
     77          1           0        1.300830   -4.957018   -2.426752
     78          1           0       -0.141747   -3.991272   -2.339022
     79          1           0       -0.125489    4.869820   -3.248187
     80          1           0       -0.204280    3.127255   -3.632637
     81          1           0        0.734067    4.211497   -4.690891
     82          1           0        2.272940    7.261496   -0.005080
     83          1           0        2.507171    8.287021   -1.416123
     84          1           0        3.690303    7.185532   -1.084137
     85          1           0        4.495452    5.114850    2.775001
     86          1           0        7.248642    3.773405    2.806417
     87          1           0        7.233145    5.923664    2.061872
     88          1           0        5.903961    6.887225    2.668218
     89          1           0        5.955023    6.500452    0.908152
     90          1           0        5.431703    2.603714    4.822182
     91          1           0        5.097415    4.378278    4.797961
     92          1           0        7.370088    3.039603    5.877439
     93          1           0        6.657922    4.625993    6.254975
     94          1           0        7.829406    4.529293    4.986629
     95          1           0        8.396394   -1.199020    3.091284
     96          1           0        7.650373   -2.759186    3.118784
     97          1           0        7.196480   -1.430585    4.342346
     98          1           0        3.905710   -4.246220   -0.213896
     99          1           0        4.525710   -6.403501   -3.752832
    100          1           0        6.098111   -5.492410   -3.734641
    101          1           0        4.770812   -4.630444   -4.169815
    102          1           0       -1.060577   -4.510461    2.071579
    103          1           0       -1.466693   -6.089690    1.198091
    104          1           0       -3.305852   -4.355268   -0.029506
    105          1           0       -2.642389   -4.828979    3.616546
    106          1           0       -4.300918   -5.610494    3.701831
    107          1           0       -3.906172   -3.823421    3.982933
    108          1           0       -5.875697   -4.134889    2.609595
    109          1           0       -5.928207   -4.589783    0.954377
    110          1           0       -5.858499   -2.494913    0.301763
    111          1           0       -4.374305   -2.300401    1.266144
    112          1           0       -5.484230   -0.824008    2.824338
    113          1           0       -6.358386   -2.179228    3.179277
    114          1           0       -7.563642   -1.491088    0.871960
    115          1           0       -9.200177   -1.889874    2.396919
    116          1           0       -9.299681   -0.143850    2.483287
    117          1           0       -8.436598   -0.919840    3.717177
    118          1           0       -6.079197    0.987988    1.428557
    119          1           0       -7.660864    1.384159    1.818952
    120          1           0       -8.000897    0.150725   -0.610693
    121          1           0       -6.435980    0.916611   -0.795027
    122          1           0       -7.349419    2.838452   -1.147015
    123          1           0       -8.260426    2.783530    0.405295
    124          1           0       -9.423760    1.131496   -1.910886
    125          1           0       -8.360720    2.651052   -3.330794
    126          1           0       -8.777302    4.075294   -2.336882
    127          1           0      -10.082141    3.229460   -3.191212
    128          1           0      -11.255991    2.908608   -1.268718
    129          1           0      -10.530651    2.873312    0.220484
    130          1           0      -10.519411    0.122768   -0.235369
    131          1           0      -11.944676    0.547868   -1.256690
    132          1           0      -12.336082    1.945183    1.185811
    133          1           0      -12.029224    0.186399    1.500647
    134          1           0      -13.752221   -0.075353   -0.476138
    135          1           0      -15.367834    1.848180   -0.171999
    136          1           0      -13.940680    2.334451   -1.067955
    137          1           0      -14.080992    2.787666    0.634173
    138          1           0      -15.053575   -0.878581    1.476899
    139          1           0      -15.353814    0.762917    1.803983
    140          1           0      -13.846221   -0.100411    2.338925
 ---------------------------------------------------------------------

 SCF Done:  E(RZINDO/S) =  -474.116538053     A.U. after   19 cycles

 Excitation energies and oscillator strengths:

 Excited State   1:      Singlet-A      1.2516 eV  990.63 nm  f=0.5928  <S**2>=0.000
     175 ->178        -0.18275
     176 ->177         0.66264
 This state for optimization and/or second-order correction.
 Total Energy, E(CIS/TDA) =  -474.070543621
 Copying the excited state density for this state as the 1-particle RhoCI density.

 Excited State   2:      Singlet-A      1.9276 eV  643.20 nm  f=0.0425  <S**2>=0.000
     175 ->177         0.54113
     176 ->178         0.42462

 Excited State   3:      Singlet-A      2.8356 eV  437.24 nm  f=0.0070  <S**2>=0.000
     168 ->177         0.30551
     168 ->178         0.19426
     168 ->179        -0.38097
     168 ->182        -0.25611
     168 ->185        -0.23064
     169 ->179         0.10110

 Excited State   4:      Singlet-A      2.9779 eV  416.34 nm  f=0.9148  <S**2>=0.000
     171 ->177        -0.10743
     175 ->177        -0.35172
     176 ->178         0.48706
     176 ->179        -0.20525
     176 ->180         0.20502

 Excited State   5:      Singlet-A      3.0595 eV  405.25 nm  f=0.1283  <S**2>=0.000
     175 ->177         0.12688
     176 ->178        -0.17588
     176 ->180         0.64149
     176 ->181        -0.15704

 The electronic state is 1-A.
 Alpha  occ. eigenvalues --   -1.83897  -1.80066  -1.79160  -1.72085  -1.71476
 Alpha  occ. eigenvalues --   -1.70092  -1.65447  -1.61775  -1.60376  -1.57721
 Alpha  occ. eigenvalues --   -1.57095  -1.51574  -1.48785  -1.47730  -1.46270
 Alpha  occ. eigenvalues --   -1.44767  -1.43436  -1.40185  -1.37331  -1.36841
 Alpha  occ. eigenvalues --   -1.35573  -1.33780  -1.32159  -1.31149  -1.28986
 Alpha  occ. eigenvalues --   -1.27555  -1.26776  -1.23628  -1.20712  -1.18111
 Alpha  occ. eigenvalues --   -1.17496  -1.15517  -1.14933  -1.14657  -1.12554
 Alpha  occ. eigenvalues --   -1.12352  -1.10740  -1.09530  -1.05825  -1.03639
 Alpha  occ. eigenvalues --   -1.01746  -1.01387  -0.98400  -0.97954  -0.97239
 Alpha  occ. eigenvalues --   -0.95818  -0.94752  -0.94415  -0.93661  -0.92744
 Alpha  occ. eigenvalues --   -0.91648  -0.90751  -0.90126  -0.88615  -0.87790
 Alpha  occ. eigenvalues --   -0.85866  -0.84662  -0.83182  -0.82420  -0.79949
 Alpha  occ. eigenvalues --   -0.78782  -0.78448  -0.77229  -0.76759  -0.76604
 Alpha  occ. eigenvalues --   -0.75394  -0.74557  -0.74345  -0.74028  -0.73633
 Alpha  occ. eigenvalues --   -0.73399  -0.72531  -0.71945  -0.71800  -0.71051
 Alpha  occ. eigenvalues --   -0.70721  -0.70176  -0.69386  -0.68580  -0.68079
 Alpha  occ. eigenvalues --   -0.67985  -0.67371  -0.66731  -0.66349  -0.65861
 Alpha  occ. eigenvalues --   -0.65174  -0.64944  -0.64691  -0.63729  -0.63252
 Alpha  occ. eigenvalues --   -0.63042  -0.62785  -0.62467  -0.62354  -0.61848
 Alpha  occ. eigenvalues --   -0.61432  -0.61078  -0.60961  -0.60256  -0.60065
 Alpha  occ. eigenvalues --   -0.59940  -0.59319  -0.59229  -0.59033  -0.58261
 Alpha  occ. eigenvalues --   -0.57590  -0.57434  -0.57046  -0.56886  -0.56240
 Alpha  occ. eigenvalues --   -0.55956  -0.55875  -0.55501  -0.55061  -0.55056
 Alpha  occ. eigenvalues --   -0.54611  -0.54195  -0.53276  -0.52947  -0.52775
 Alpha  occ. eigenvalues --   -0.52378  -0.52262  -0.51925  -0.51623  -0.51500
 Alpha  occ. eigenvalues --   -0.51466  -0.51195  -0.50892  -0.50734  -0.50320
 Alpha  occ. eigenvalues --   -0.50045  -0.49735  -0.49594  -0.49542  -0.49061
 Alpha  occ. eigenvalues --   -0.48753  -0.48234  -0.48043  -0.47927  -0.47693
 Alpha  occ. eigenvalues --   -0.47524  -0.47419  -0.47112  -0.46894  -0.46465
 Alpha  occ. eigenvalues --   -0.46405  -0.46233  -0.46041  -0.45652  -0.45440
 Alpha  occ. eigenvalues --   -0.45207  -0.44975  -0.44738  -0.44701  -0.43930
 Alpha  occ. eigenvalues --   -0.43627  -0.43477  -0.42958  -0.42713  -0.42149
 Alpha  occ. eigenvalues --   -0.41879  -0.41822  -0.41436  -0.39128  -0.39039
 Alpha  occ. eigenvalues --   -0.37920  -0.37253  -0.35546  -0.34990  -0.34648
 Alpha  occ. eigenvalues --   -0.33483  -0.32710  -0.32283  -0.31963  -0.26809
 Alpha  occ. eigenvalues --   -0.21889
 Alpha virt. eigenvalues --   -0.08592  -0.02312  -0.00307   0.00805   0.01004
 Alpha virt. eigenvalues --    0.01593   0.02680   0.03272   0.04529   0.04713
 Alpha virt. eigenvalues --    0.05836   0.06459   0.07060   0.07580   0.07888

 Mulliken charges:
               1
     1  Mg   0.439983
     2  C   -0.044130
     3  C   -0.107102
     4  C   -0.074421
     5  C   -0.037210
     6  N   -0.308207
     7  C    0.131233
     8  C    0.008909
     9  C    0.007008
    10  C    0.137917
    11  C   -0.050091
    12  C   -0.015850
    13  C    0.012379
    14  C    0.461158
    15  O   -0.499578
    16  O   -0.281187
    17  N   -0.306811
    18  C    0.139718
    19  C    0.037060
    20  C   -0.048695
    21  C    0.110861
    22  C   -0.033082
    23  C    0.335856
    24  O   -0.532064
    25  C   -0.018248
    26  N   -0.252762
    27  C    0.152572
    28  C   -0.004080
    29  C   -0.007623
    30  C    0.081532
    31  C   -0.053279
    32  C   -0.037200
    33  C   -0.063109
    34  N   -0.344167
    35  C    0.061633
    36  C    0.034879
    37  C   -0.067813
    38  C    0.135416
    39  C   -0.046504
    40  C    0.338956
    41  O   -0.501995
    42  C    0.055192
    43  C    0.498687
    44  O   -0.526820
    45  O   -0.280108
    46  C    0.066060
    47  C    0.112005
    48  C   -0.104507
    49  C   -0.006008
    50  C   -0.052313
    51  C   -0.016549
    52  C   -0.041593
    53  C   -0.032158
    54  C   -0.003677
    55  C   -0.059674
    56  C   -0.032271
    57  C   -0.043019
    58  C   -0.038198
    59  C   -0.019001
    60  C   -0.062629
    61  C   -0.039376
    62  C   -0.046001
    63  C   -0.032338
    64  C   -0.002599
    65  C   -0.050531
    66  C   -0.076461
    67  H    0.022012
    68  H    0.018011
    69  H    0.034386
    70  H    0.031354
    71  H    0.020736
    72  H    0.022910
    73  H    0.033551
    74  H    0.013199
    75  H    0.033460
    76  H    0.031483
    77  H    0.040090
    78  H    0.024267
    79  H    0.050260
    80  H    0.025435
    81  H    0.038496
    82  H    0.048964
    83  H    0.033425
    84  H    0.020241
    85  H    0.032321
    86  H    0.037804
    87  H    0.025347
    88  H    0.023028
    89  H    0.028408
    90  H    0.034623
    91  H    0.021225
    92  H    0.019513
    93  H    0.015376
    94  H    0.024113
    95  H    0.022935
    96  H    0.035642
    97  H    0.035288
    98  H    0.057360
    99  H    0.044864
   100  H    0.054521
   101  H    0.030949
   102  H    0.054054
   103  H    0.061012
   104  H    0.030132
   105  H    0.015625
   106  H    0.038563
   107  H    0.027096
   108  H    0.010315
   109  H    0.023877
   110  H    0.024617
   111  H    0.020597
   112  H    0.020386
   113  H    0.013237
   114  H    0.023497
   115  H    0.021798
   116  H    0.010796
   117  H    0.022255
   118  H    0.015580
   119  H    0.019939
   120  H    0.014186
   121  H    0.016643
   122  H    0.016334
   123  H    0.028030
   124  H    0.021839
   125  H    0.021103
   126  H    0.020700
   127  H    0.017641
   128  H    0.009452
   129  H    0.021657
   130  H    0.024529
   131  H    0.027485
   132  H    0.026971
   133  H    0.013559
   134  H    0.025435
   135  H    0.008980
   136  H    0.013764
   137  H    0.024632
   138  H    0.017607
   139  H    0.018391
   140  H    0.014116
 Sum of Mulliken charges =  -0.00000

 Dipole moment (field-independent basis, Debye):
    X=             -3.5700    Y=              6.3385    Z=              0.2000  Tot=              7.2775
 N-N= 4.370187631476D+03 E-N= 0.000000000000D+00  KE=-9.414201594581D+03
 Leave Link  601 at Wed Apr 27 16:38:31 2022, MaxMem=  6710886400 cpu:               0.8 elap:               0.0
 (Enter /sw/apps/gaussian-16.0/g16/l9999.exe)
 1\1\GINC-BP1-COMPUTE147\SP\RZINDO CIS\STO-3G\C55H74Mg1N4O6\OF15641\27-
 Apr-2022\0\\#p ZINDO=(nstates=5)\\step_1251_chromophore_17 ZINDO\\0,1\
 Mg,0,29.23,59.12,41.861\C,0,26.009,57.995,40.855\C,0,30.628,56.366,40.
 777\C,0,32.076,60.853,42.057\C,0,27.535,62.454,42.33\N,0,28.331,57.453
 ,40.832\C,0,27.031,57.115,40.56\C,0,26.976,55.8,39.897\C,0,28.343,55.1
 46,40.29\C,0,29.214,56.399,40.64\C,0,28.361,54.054,41.408\C,0,26.724,5
 6.014,38.336\C,0,25.948,55.025,37.538\C,0,25.105,55.554,36.37\O,0,23.8

 Normal termination of Gaussian 16 at Wed Apr 27 16:38:31 2022.
