 Gaussian 16, Revision A.03,
 Gaussian 16:  ES64L-G16RevA.03 25-Dec-2016

 ------------------------------
 #p blyp/Def2SVP td=(nstates=5)
 ------------------------------

 --------------------------------------------------
 step_251_chromophore_16 TDDFT with blyp functional
 --------------------------------------------------
 Symbolic Z-matrix:
 Charge =  0 Multiplicity = 1

                         Standard orientation:
 ---------------------------------------------------------------------
 Center     Atomic      Atomic             Coordinates (Angstroms)
 Number     Number       Type             X           Y           Z
 ---------------------------------------------------------------------
      1         12           0        6.067398    0.414126    0.297778
      2          6           0        3.727845   -2.167163   -0.016999
      3          6           0        3.903114    2.556677   -0.924963
      4          6           0        8.605375    2.699112   -0.078142
      5          6           0        8.534312   -1.973475    1.121922
      6          7           0        4.051705    0.189124   -0.274660
      7          6           0        3.223833   -0.911904   -0.283924
      8          6           0        1.779238   -0.530672   -0.580603
      9          6           0        1.941104    0.940462   -1.081299
     10          6           0        3.324346    1.285005   -0.650825
     11          6           0        1.610626    1.283574   -2.517814
     12          6           0        0.785989   -0.745080    0.605873
     13          6           0       -0.674461   -0.389693    0.306616
     14          6           0       -1.702778   -1.463382    0.631047
     15          8           0       -1.690632   -2.204577    1.617945
     16          8           0       -2.707920   -1.478863   -0.309956
     17          7           0        6.242929    2.439415   -0.501480
     18          6           0        5.166263    3.186344   -0.823360
     19          6           0        5.588436    4.533129   -1.091500
     20          6           0        6.986775    4.561157   -0.952272
     21          6           0        7.332139    3.184318   -0.505172
     22          6           0        4.649301    5.644055   -1.511543
     23          6           0        7.938746    5.703988   -1.088830
     24          8           0        9.196644    5.629498   -1.090269
     25          6           0        7.411518    7.129368   -1.199724
     26          7           0        8.217522    0.353406    0.464613
     27          6           0        9.021736    1.407231    0.191962
     28          6           0       10.541329    1.062325    0.644954
     29          6           0       10.345566   -0.271648    1.447562
     30          6           0        8.949122   -0.653414    1.074238
     31          6           0       11.448442    0.947105   -0.641980
     32          6           0       10.343032    0.002751    2.995856
     33          6           0        9.422325    1.072966    3.561271
     34          7           0        6.154311   -1.708240    0.585099
     35          6           0        7.233437   -2.480569    0.916865
     36          6           0        6.785252   -3.792895    0.995666
     37          6           0        5.409975   -3.807421    0.624295
     38          6           0        5.068440   -2.503236    0.380032
     39          6           0        7.559542   -5.031493    1.279706
     40          6           0        4.193310   -4.613719    0.376108
     41          8           0        3.960484   -5.817025    0.390099
     42          6           0        3.017644   -3.540590    0.043354
     43          6           0        2.230828   -3.978631   -1.140209
     44          8           0        2.711845   -4.577952   -2.147371
     45          8           0        0.952598   -3.777349   -0.849682
     46          6           0        0.032664   -4.550674   -1.661693
     47          6           0       -3.747205   -2.443035   -0.095502
     48          6           0       -4.899513   -2.075054   -0.991636
     49          6           0       -6.182206   -2.560982   -0.973440
     50          6           0       -6.707729   -3.583468    0.074236
     51          6           0       -7.189107   -2.039811   -1.916365
     52          6           0       -7.670599   -0.551038   -1.731187
     53          6           0       -8.690349   -0.499681   -0.610468
     54          6           0       -9.605298    0.765009   -0.623511
     55          6           0       -9.100670    1.795345    0.387915
     56          6           0      -11.116731    0.348387   -0.403472
     57          6           0      -11.994733    0.320314   -1.682015
     58          6           0      -13.443697    0.781315   -1.471577
     59          6           0      -14.245139   -0.108102   -0.452021
     60          6           0      -15.170977   -1.065564   -1.160223
     61          6           0      -14.960105    0.706235    0.611823
     62          6           0      -14.201940    1.050415    1.954038
     63          6           0      -14.256827    2.596727    2.319977
     64          6           0      -12.835910    3.018640    2.565084
     65          6           0      -12.234558    3.756212    1.266250
     66          6           0      -12.731601    3.993206    3.724041
     67          1           0        3.194549    3.334219   -1.218324
     68          1           0        9.419108    3.423876   -0.157779
     69          1           0        9.290091   -2.661527    1.503901
     70          1           0        1.462305   -1.261441   -1.324909
     71          1           0        1.322369    1.648027   -0.528306
     72          1           0        0.972189    0.583560   -3.056737
     73          1           0        2.538515    1.438448   -3.069047
     74          1           0        1.261812    2.316429   -2.523566
     75          1           0        1.134038   -0.192380    1.478883
     76          1           0        0.821900   -1.789837    0.912839
     77          1           0       -0.882087   -0.433363   -0.762388
     78          1           0       -0.941767    0.578735    0.730485
     79          1           0        3.628376    5.325860   -1.722318
     80          1           0        4.858153    6.101860   -2.478136
     81          1           0        4.583864    6.454974   -0.785473
     82          1           0        6.919729    7.228169   -2.167047
     83          1           0        8.214529    7.851003   -1.348058
     84          1           0        6.820694    7.438567   -0.336745
     85          1           0       10.940540    1.884714    1.238615
     86          1           0       11.079678   -0.959775    1.028491
     87          1           0       10.979739    1.345699   -1.541897
     88          1           0       11.721303   -0.074898   -0.905463
     89          1           0       12.369232    1.525240   -0.579183
     90          1           0       11.391903    0.272521    3.119550
     91          1           0       10.159897   -0.875813    3.613736
     92          1           0        9.008032    1.676331    2.753265
     93          1           0        9.830125    1.691315    4.360185
     94          1           0        8.671540    0.479409    4.082975
     95          1           0        8.130268   -5.001583    2.208204
     96          1           0        8.279782   -5.104408    0.465334
     97          1           0        6.938937   -5.926793    1.261416
     98          1           0        2.368713   -3.594225    0.917108
     99          1           0       -0.755976   -4.969883   -1.035611
    100          1           0        0.453924   -5.408787   -2.184868
    101          1           0       -0.407822   -3.844481   -2.366272
    102          1           0       -4.098353   -2.615366    0.921117
    103          1           0       -3.552781   -3.475545   -0.387604
    104          1           0       -4.666223   -1.295745   -1.717313
    105          1           0       -5.910603   -4.024787    0.672859
    106          1           0       -7.216825   -4.383520   -0.463608
    107          1           0       -7.494856   -3.141554    0.683720
    108          1           0       -8.017156   -2.699757   -2.174230
    109          1           0       -6.807323   -2.014170   -2.936675
    110          1           0       -8.153808   -0.213031   -2.647828
    111          1           0       -6.834893    0.132682   -1.583786
    112          1           0       -8.056372   -0.499888    0.277504
    113          1           0       -9.210829   -1.456897   -0.652135
    114          1           0       -9.615166    1.265882   -1.590998
    115          1           0       -8.057177    1.918386    0.098382
    116          1           0       -9.188428    1.335121    1.372574
    117          1           0       -9.687941    2.713247    0.368079
    118          1           0      -11.561043    1.129153    0.213377
    119          1           0      -11.324915   -0.615599    0.060017
    120          1           0      -12.017137   -0.730986   -1.968531
    121          1           0      -11.581680    0.880775   -2.520927
    122          1           0      -13.838044    0.806657   -2.487126
    123          1           0      -13.438212    1.786919   -1.051541
    124          1           0      -13.649778   -0.852396    0.076952
    125          1           0      -16.108758   -1.154286   -0.611652
    126          1           0      -14.769564   -2.078601   -1.120786
    127          1           0      -15.451992   -0.796899   -2.178719
    128          1           0      -15.876236    0.230689    0.962715
    129          1           0      -15.415377    1.527267    0.059032
    130          1           0      -13.169366    0.783896    1.729805
    131          1           0      -14.488809    0.310404    2.701368
    132          1           0      -14.800984    2.665367    3.261827
    133          1           0      -14.726318    3.087180    1.467531
    134          1           0      -12.054637    2.297034    2.805129
    135          1           0      -11.256920    4.186205    1.488996
    136          1           0      -12.882760    4.581897    0.971611
    137          1           0      -12.139607    3.051065    0.440650
    138          1           0      -12.138651    4.858175    3.427578
    139          1           0      -12.180595    3.569298    4.563208
    140          1           0      -13.693098    4.362776    4.081577
 ---------------------------------------------------------------------

 SCF Done:  E(RB-LYP) =  -3007.37558729     A.U. after   22 cycles

 Excitation energies and oscillator strengths:

 Excited State   1:      Singlet-A      1.7232 eV  719.50 nm  f=0.0133  <S**2>=0.000
     243 -> 247       -0.22270
     244 -> 247        0.59731
     245 -> 247       -0.24980
     246 -> 247        0.16924
 This state for optimization and/or second-order correction.
 Total Energy, E(TD-HF/TD-DFT) =  -3007.31226122
 Copying the excited state density for this state as the 1-particle RhoCI density.

 Excited State   2:      Singlet-A      1.7609 eV  704.11 nm  f=0.0070  <S**2>=0.000
     243 -> 247        0.60568
     244 -> 247        0.30575
     245 -> 247        0.19457

 Excited State   3:      Singlet-A      1.8116 eV  684.38 nm  f=0.2959  <S**2>=0.000
     244 -> 247       -0.15928
     245 -> 248        0.14375
     245 -> 249        0.11110
     246 -> 247        0.67346
     246 <- 247       -0.14965

 Excited State   4:      Singlet-A      1.9653 eV  630.86 nm  f=0.1003  <S**2>=0.000
     241 -> 247        0.16182
     243 -> 247       -0.27476
     244 -> 247        0.14840
     245 -> 247        0.57343
     246 -> 248       -0.14276
     246 -> 249       -0.13328

 Excited State   5:      Singlet-A      2.0132 eV  615.86 nm  f=0.0004  <S**2>=0.000
     242 -> 247        0.70584

 The electronic state is 1-A.
 Alpha  occ. eigenvalues --  -46.27827 -18.83798 -18.83691 -18.77481 -18.76084
 Alpha  occ. eigenvalues --  -18.75569 -18.75523 -14.03915 -14.03061 -14.01151
 Alpha  occ. eigenvalues --  -13.99954 -10.04991 -10.03853 -10.00145  -9.99674
 Alpha  occ. eigenvalues --   -9.98457  -9.97984  -9.97335  -9.96781  -9.96423
 Alpha  occ. eigenvalues --   -9.96026  -9.96023  -9.95899  -9.94743  -9.94645
 Alpha  occ. eigenvalues --   -9.94579  -9.94406  -9.94397  -9.94256  -9.94026
 Alpha  occ. eigenvalues --   -9.94001  -9.93989  -9.93565  -9.93525  -9.93524
 Alpha  occ. eigenvalues --   -9.93351  -9.93338  -9.93308  -9.92931  -9.92801
 Alpha  occ. eigenvalues --   -9.92757  -9.92685  -9.92637  -9.92090  -9.92081
 Alpha  occ. eigenvalues --   -9.92040  -9.91989  -9.91940  -9.91929  -9.91919
 Alpha  occ. eigenvalues --   -9.91757  -9.91748  -9.91545  -9.91524  -9.91465
 Alpha  occ. eigenvalues --   -9.91290  -9.91225  -9.91096  -9.91036  -9.90997
 Alpha  occ. eigenvalues --   -9.90995  -9.90805  -9.90606  -9.90466  -9.90272
 Alpha  occ. eigenvalues --   -9.90232  -2.92318  -1.72748  -1.72159  -1.72061
 Alpha  occ. eigenvalues --   -0.99603  -0.99154  -0.90665  -0.90429  -0.89702
 Alpha  occ. eigenvalues --   -0.88049  -0.87434  -0.86651  -0.85916  -0.85100
 Alpha  occ. eigenvalues --   -0.74922  -0.73883  -0.73467  -0.73069  -0.72609
 Alpha  occ. eigenvalues --   -0.72022  -0.71782  -0.71348  -0.71172  -0.70597
 Alpha  occ. eigenvalues --   -0.69992  -0.69476  -0.68472  -0.67839  -0.67364
 Alpha  occ. eigenvalues --   -0.66894  -0.66285  -0.65401  -0.65218  -0.64662
 Alpha  occ. eigenvalues --   -0.64515  -0.63147  -0.62829  -0.62131  -0.60858
 Alpha  occ. eigenvalues --   -0.60779  -0.59978  -0.59795  -0.59464  -0.59244
 Alpha  occ. eigenvalues --   -0.58764  -0.57813  -0.56881  -0.55935  -0.54815
 Alpha  occ. eigenvalues --   -0.54273  -0.53711  -0.53299  -0.52629  -0.52166
 Alpha  occ. eigenvalues --   -0.51198  -0.51193  -0.51083  -0.50742  -0.50672
 Alpha  occ. eigenvalues --   -0.50143  -0.49353  -0.49013  -0.48307  -0.47143
 Alpha  occ. eigenvalues --   -0.46723  -0.46296  -0.45872  -0.45182  -0.44646
 Alpha  occ. eigenvalues --   -0.44078  -0.43849  -0.43067  -0.42756  -0.42686
 Alpha  occ. eigenvalues --   -0.42482  -0.42338  -0.41954  -0.41776  -0.41553
 Alpha  occ. eigenvalues --   -0.41260  -0.40863  -0.40777  -0.40490  -0.40317
 Alpha  occ. eigenvalues --   -0.40098  -0.39966  -0.39811  -0.39499  -0.39406
 Alpha  occ. eigenvalues --   -0.39256  -0.39209  -0.38994  -0.38681  -0.38165
 Alpha  occ. eigenvalues --   -0.38094  -0.37973  -0.37814  -0.37525  -0.37442
 Alpha  occ. eigenvalues --   -0.36695  -0.36644  -0.36588  -0.36367  -0.36339
 Alpha  occ. eigenvalues --   -0.36153  -0.36055  -0.35901  -0.35649  -0.35301
 Alpha  occ. eigenvalues --   -0.35231  -0.34937  -0.34833  -0.34659  -0.34534
 Alpha  occ. eigenvalues --   -0.34372  -0.34336  -0.34208  -0.34107  -0.34014
 Alpha  occ. eigenvalues --   -0.33980  -0.33909  -0.33591  -0.33556  -0.33380
 Alpha  occ. eigenvalues --   -0.33159  -0.33083  -0.32770  -0.32587  -0.32557
 Alpha  occ. eigenvalues --   -0.32194  -0.32016  -0.31968  -0.31694  -0.31559
 Alpha  occ. eigenvalues --   -0.31326  -0.31114  -0.31082  -0.30828  -0.30729
 Alpha  occ. eigenvalues --   -0.30456  -0.30287  -0.30237  -0.30085  -0.29957
 Alpha  occ. eigenvalues --   -0.29764  -0.29748  -0.29508  -0.29392  -0.29139
 Alpha  occ. eigenvalues --   -0.28778  -0.28619  -0.28545  -0.28309  -0.28140
 Alpha  occ. eigenvalues --   -0.27809  -0.27670  -0.27000  -0.26742  -0.26620
 Alpha  occ. eigenvalues --   -0.26383  -0.26304  -0.26206  -0.25808  -0.25465
 Alpha  occ. eigenvalues --   -0.25169  -0.25013  -0.24588  -0.23937  -0.23467
 Alpha  occ. eigenvalues --   -0.23227  -0.22595  -0.22220  -0.21556  -0.20922
 Alpha  occ. eigenvalues --   -0.19657  -0.19486  -0.18548  -0.18389  -0.17321
 Alpha  occ. eigenvalues --   -0.16325
 Alpha virt. eigenvalues --   -0.12088  -0.06804  -0.06247  -0.04641  -0.04009
 Alpha virt. eigenvalues --   -0.03336  -0.03210  -0.02389  -0.01781   0.00157
 Alpha virt. eigenvalues --    0.01067   0.01388   0.02252   0.02464   0.02813

 Mulliken charges:
               1
     1  Mg   0.678227
     2  C    0.069773
     3  C   -0.040637
     4  C   -0.029406
     5  C   -0.077444
     6  N   -0.251364
     7  C   -0.090695
     8  C    0.048340
     9  C    0.032163
    10  C    0.042008
    11  C    0.154383
    12  C    0.130998
    13  C    0.117608
    14  C    0.079426
    15  O   -0.199878
    16  O   -0.253826
    17  N   -0.213296
    18  C    0.064488
    19  C   -0.085618
    20  C    0.066496
    21  C    0.044382
    22  C    0.152279
    23  C   -0.083755
    24  O   -0.191886
    25  C    0.134960
    26  N   -0.217572
    27  C    0.038228
    28  C   -0.047439
    29  C    0.092283
    30  C    0.011478
    31  C    0.113385
    32  C    0.077101
    33  C    0.067766
    34  N   -0.241689
    35  C    0.140868
    36  C   -0.187125
    37  C    0.089463
    38  C    0.010896
    39  C    0.178878
    40  C   -0.024732
    41  O   -0.122639
    42  C    0.013417
    43  C    0.111503
    44  O   -0.210943
    45  O   -0.237380
    46  C    0.201657
    47  C    0.327409
    48  C   -0.141024
    49  C   -0.098824
    50  C    0.133424
    51  C    0.122823
    52  C    0.055081
    53  C    0.092289
    54  C   -0.026619
    55  C    0.109514
    56  C    0.068392
    57  C    0.041436
    58  C    0.137226
    59  C   -0.061732
    60  C    0.107820
    61  C    0.055093
    62  C    0.061430
    63  C    0.190768
    64  C   -0.114742
    65  C    0.046556
    66  C    0.110229
    67  H   -0.082411
    68  H   -0.041249
    69  H   -0.063678
    70  H   -0.030362
    71  H   -0.031368
    72  H    0.008096
    73  H   -0.016779
    74  H   -0.019568
    75  H   -0.034626
    76  H   -0.004248
    77  H   -0.009143
    78  H    0.023645
    79  H   -0.026226
    80  H   -0.002155
    81  H    0.004747
    82  H   -0.005590
    83  H   -0.020494
    84  H    0.014798
    85  H   -0.016932
    86  H   -0.033930
    87  H   -0.003290
    88  H   -0.013033
    89  H   -0.006548
    90  H   -0.023265
    91  H   -0.023828
    92  H    0.019851
    93  H   -0.005960
    94  H   -0.011807
    95  H   -0.009919
    96  H   -0.003880
    97  H    0.007073
    98  H    0.020212
    99  H    0.018007
   100  H    0.034592
   101  H    0.010956
   102  H    0.003431
   103  H   -0.001739
   104  H   -0.033237
   105  H   -0.012654
   106  H   -0.010388
   107  H    0.004339
   108  H   -0.043306
   109  H   -0.042371
   110  H   -0.039572
   111  H   -0.027712
   112  H   -0.027197
   113  H   -0.034028
   114  H   -0.043111
   115  H   -0.016529
   116  H   -0.012688
   117  H   -0.014972
   118  H   -0.026011
   119  H   -0.023339
   120  H   -0.040598
   121  H   -0.037303
   122  H   -0.030741
   123  H   -0.037234
   124  H   -0.041455
   125  H   -0.037105
   126  H   -0.023881
   127  H   -0.019891
   128  H   -0.049632
   129  H   -0.043296
   130  H   -0.041080
   131  H   -0.027683
   132  H   -0.025995
   133  H   -0.018207
   134  H   -0.022864
   135  H   -0.002056
   136  H   -0.021875
   137  H    0.006851
   138  H   -0.035349
   139  H   -0.022670
   140  H   -0.020220
 Sum of Mulliken charges =  -0.00000

 Dipole moment (field-independent basis, Debye):
    X=             -3.9477    Y=              4.2868    Z=              0.9946  Tot=              5.9118
 Quadrupole moment (field-independent basis, Debye-Ang):
   XX=           -397.7991   YY=           -432.7398   ZZ=           -406.9379
   XY=              6.7538   XZ=             26.0231   YZ=             -2.4987

 Normal termination of Gaussian 16 at Fri Apr 29 10:29:54 2022.
