 Gaussian 16, Revision A.03,
 Gaussian 16:  ES64L-G16RevA.03 25-Dec-2016

 -----------------------------------
 #p cam-b3lyp/Def2SVP td=(nstates=5)
 -----------------------------------

 -------------------------------------------------------
 step_251_chromophore_16 TDDFT with cam-b3lyp functional
 -------------------------------------------------------
 Symbolic Z-matrix:
 Charge =  0 Multiplicity = 1

                         Standard orientation:
 ---------------------------------------------------------------------
 Center     Atomic      Atomic             Coordinates (Angstroms)
 Number     Number       Type             X           Y           Z
 ---------------------------------------------------------------------
      1         12           0        6.067398    0.414126    0.297778
      2          6           0        3.727845   -2.167163   -0.016999
      3          6           0        3.903114    2.556677   -0.924963
      4          6           0        8.605375    2.699112   -0.078142
      5          6           0        8.534312   -1.973475    1.121922
      6          7           0        4.051705    0.189124   -0.274660
      7          6           0        3.223833   -0.911904   -0.283924
      8          6           0        1.779238   -0.530672   -0.580603
      9          6           0        1.941104    0.940462   -1.081299
     10          6           0        3.324346    1.285005   -0.650825
     11          6           0        1.610626    1.283574   -2.517814
     12          6           0        0.785989   -0.745080    0.605873
     13          6           0       -0.674461   -0.389693    0.306616
     14          6           0       -1.702778   -1.463382    0.631047
     15          8           0       -1.690632   -2.204577    1.617945
     16          8           0       -2.707920   -1.478863   -0.309956
     17          7           0        6.242929    2.439415   -0.501480
     18          6           0        5.166263    3.186344   -0.823360
     19          6           0        5.588436    4.533129   -1.091500
     20          6           0        6.986775    4.561157   -0.952272
     21          6           0        7.332139    3.184318   -0.505172
     22          6           0        4.649301    5.644055   -1.511543
     23          6           0        7.938746    5.703988   -1.088830
     24          8           0        9.196644    5.629498   -1.090269
     25          6           0        7.411518    7.129368   -1.199724
     26          7           0        8.217522    0.353406    0.464613
     27          6           0        9.021736    1.407231    0.191962
     28          6           0       10.541329    1.062325    0.644954
     29          6           0       10.345566   -0.271648    1.447562
     30          6           0        8.949122   -0.653414    1.074238
     31          6           0       11.448442    0.947105   -0.641980
     32          6           0       10.343032    0.002751    2.995856
     33          6           0        9.422325    1.072966    3.561271
     34          7           0        6.154311   -1.708240    0.585099
     35          6           0        7.233437   -2.480569    0.916865
     36          6           0        6.785252   -3.792895    0.995666
     37          6           0        5.409975   -3.807421    0.624295
     38          6           0        5.068440   -2.503236    0.380032
     39          6           0        7.559542   -5.031493    1.279706
     40          6           0        4.193310   -4.613719    0.376108
     41          8           0        3.960484   -5.817025    0.390099
     42          6           0        3.017644   -3.540590    0.043354
     43          6           0        2.230828   -3.978631   -1.140209
     44          8           0        2.711845   -4.577952   -2.147371
     45          8           0        0.952598   -3.777349   -0.849682
     46          6           0        0.032664   -4.550674   -1.661693
     47          6           0       -3.747205   -2.443035   -0.095502
     48          6           0       -4.899513   -2.075054   -0.991636
     49          6           0       -6.182206   -2.560982   -0.973440
     50          6           0       -6.707729   -3.583468    0.074236
     51          6           0       -7.189107   -2.039811   -1.916365
     52          6           0       -7.670599   -0.551038   -1.731187
     53          6           0       -8.690349   -0.499681   -0.610468
     54          6           0       -9.605298    0.765009   -0.623511
     55          6           0       -9.100670    1.795345    0.387915
     56          6           0      -11.116731    0.348387   -0.403472
     57          6           0      -11.994733    0.320314   -1.682015
     58          6           0      -13.443697    0.781315   -1.471577
     59          6           0      -14.245139   -0.108102   -0.452021
     60          6           0      -15.170977   -1.065564   -1.160223
     61          6           0      -14.960105    0.706235    0.611823
     62          6           0      -14.201940    1.050415    1.954038
     63          6           0      -14.256827    2.596727    2.319977
     64          6           0      -12.835910    3.018640    2.565084
     65          6           0      -12.234558    3.756212    1.266250
     66          6           0      -12.731601    3.993206    3.724041
     67          1           0        3.194549    3.334219   -1.218324
     68          1           0        9.419108    3.423876   -0.157779
     69          1           0        9.290091   -2.661527    1.503901
     70          1           0        1.462305   -1.261441   -1.324909
     71          1           0        1.322369    1.648027   -0.528306
     72          1           0        0.972189    0.583560   -3.056737
     73          1           0        2.538515    1.438448   -3.069047
     74          1           0        1.261812    2.316429   -2.523566
     75          1           0        1.134038   -0.192380    1.478883
     76          1           0        0.821900   -1.789837    0.912839
     77          1           0       -0.882087   -0.433363   -0.762388
     78          1           0       -0.941767    0.578735    0.730485
     79          1           0        3.628376    5.325860   -1.722318
     80          1           0        4.858153    6.101860   -2.478136
     81          1           0        4.583864    6.454974   -0.785473
     82          1           0        6.919729    7.228169   -2.167047
     83          1           0        8.214529    7.851003   -1.348058
     84          1           0        6.820694    7.438567   -0.336745
     85          1           0       10.940540    1.884714    1.238615
     86          1           0       11.079678   -0.959775    1.028491
     87          1           0       10.979739    1.345699   -1.541897
     88          1           0       11.721303   -0.074898   -0.905463
     89          1           0       12.369232    1.525240   -0.579183
     90          1           0       11.391903    0.272521    3.119550
     91          1           0       10.159897   -0.875813    3.613736
     92          1           0        9.008032    1.676331    2.753265
     93          1           0        9.830125    1.691315    4.360185
     94          1           0        8.671540    0.479409    4.082975
     95          1           0        8.130268   -5.001583    2.208204
     96          1           0        8.279782   -5.104408    0.465334
     97          1           0        6.938937   -5.926793    1.261416
     98          1           0        2.368713   -3.594225    0.917108
     99          1           0       -0.755976   -4.969883   -1.035611
    100          1           0        0.453924   -5.408787   -2.184868
    101          1           0       -0.407822   -3.844481   -2.366272
    102          1           0       -4.098353   -2.615366    0.921117
    103          1           0       -3.552781   -3.475545   -0.387604
    104          1           0       -4.666223   -1.295745   -1.717313
    105          1           0       -5.910603   -4.024787    0.672859
    106          1           0       -7.216825   -4.383520   -0.463608
    107          1           0       -7.494856   -3.141554    0.683720
    108          1           0       -8.017156   -2.699757   -2.174230
    109          1           0       -6.807323   -2.014170   -2.936675
    110          1           0       -8.153808   -0.213031   -2.647828
    111          1           0       -6.834893    0.132682   -1.583786
    112          1           0       -8.056372   -0.499888    0.277504
    113          1           0       -9.210829   -1.456897   -0.652135
    114          1           0       -9.615166    1.265882   -1.590998
    115          1           0       -8.057177    1.918386    0.098382
    116          1           0       -9.188428    1.335121    1.372574
    117          1           0       -9.687941    2.713247    0.368079
    118          1           0      -11.561043    1.129153    0.213377
    119          1           0      -11.324915   -0.615599    0.060017
    120          1           0      -12.017137   -0.730986   -1.968531
    121          1           0      -11.581680    0.880775   -2.520927
    122          1           0      -13.838044    0.806657   -2.487126
    123          1           0      -13.438212    1.786919   -1.051541
    124          1           0      -13.649778   -0.852396    0.076952
    125          1           0      -16.108758   -1.154286   -0.611652
    126          1           0      -14.769564   -2.078601   -1.120786
    127          1           0      -15.451992   -0.796899   -2.178719
    128          1           0      -15.876236    0.230689    0.962715
    129          1           0      -15.415377    1.527267    0.059032
    130          1           0      -13.169366    0.783896    1.729805
    131          1           0      -14.488809    0.310404    2.701368
    132          1           0      -14.800984    2.665367    3.261827
    133          1           0      -14.726318    3.087180    1.467531
    134          1           0      -12.054637    2.297034    2.805129
    135          1           0      -11.256920    4.186205    1.488996
    136          1           0      -12.882760    4.581897    0.971611
    137          1           0      -12.139607    3.051065    0.440650
    138          1           0      -12.138651    4.858175    3.427578
    139          1           0      -12.180595    3.569298    4.563208
    140          1           0      -13.693098    4.362776    4.081577
 ---------------------------------------------------------------------

 SCF Done:  E(RCAM-B3LYP) =  -3007.17241098     A.U. after   19 cycles

 Excitation energies and oscillator strengths:

 Excited State   1:      Singlet-A      1.7154 eV  722.78 nm  f=0.3854  <S**2>=0.000
     245 -> 248       -0.16671
     246 -> 247        0.68891
     245 <- 248       -0.10344
 This state for optimization and/or second-order correction.
 Total Energy, E(TD-HF/TD-DFT) =  -3007.10937233
 Copying the excited state density for this state as the 1-particle RhoCI density.

 Excited State   2:      Singlet-A      2.1447 eV  578.11 nm  f=0.1794  <S**2>=0.000
     245 -> 247        0.66331
     246 -> 248        0.22745

 Excited State   3:      Singlet-A      3.0164 eV  411.04 nm  f=0.0096  <S**2>=0.000
     244 -> 247        0.68782

 Excited State   4:      Singlet-A      3.3527 eV  369.80 nm  f=0.0003  <S**2>=0.000
     240 -> 247        0.51589
     240 -> 248        0.12549
     240 -> 249        0.35289
     240 -> 251       -0.12178
     241 -> 247       -0.17753
     241 -> 249       -0.10972

 Excited State   5:      Singlet-A      3.4831 eV  355.96 nm  f=0.0027  <S**2>=0.000
     242 -> 247        0.61335
     242 -> 249       -0.17167
     242 -> 251       -0.22075

 The electronic state is 1-A.
 Alpha  occ. eigenvalues --  -46.89401 -19.26686 -19.26635 -19.20458 -19.19122
 Alpha  occ. eigenvalues --  -19.19015 -19.18405 -14.42950 -14.41842 -14.39782
 Alpha  occ. eigenvalues --  -14.38032 -10.40303 -10.39201 -10.35769 -10.34779
 Alpha  occ. eigenvalues --  -10.32405 -10.32162 -10.31943 -10.31099 -10.31076
 Alpha  occ. eigenvalues --  -10.30793 -10.30643 -10.30113 -10.29776 -10.28763
 Alpha  occ. eigenvalues --  -10.28453 -10.28365 -10.28319 -10.28281 -10.28232
 Alpha  occ. eigenvalues --  -10.28183 -10.27887 -10.27811 -10.27791 -10.27770
 Alpha  occ. eigenvalues --  -10.27740 -10.27462 -10.27437 -10.26602 -10.26488
 Alpha  occ. eigenvalues --  -10.26482 -10.26481 -10.26435 -10.26163 -10.26139
 Alpha  occ. eigenvalues --  -10.26109 -10.25849 -10.25674 -10.25617 -10.25613
 Alpha  occ. eigenvalues --  -10.25431 -10.25407 -10.25178 -10.25155 -10.24974
 Alpha  occ. eigenvalues --  -10.24938 -10.24867 -10.24780 -10.24654 -10.24653
 Alpha  occ. eigenvalues --  -10.24637 -10.24522 -10.24268 -10.24134 -10.23852
 Alpha  occ. eigenvalues --  -10.23798  -3.17789  -1.92697  -1.92215  -1.92103
 Alpha  occ. eigenvalues --   -1.18058  -1.17569  -1.08741  -1.08383  -1.08306
 Alpha  occ. eigenvalues --   -1.05884  -1.05433  -1.04419  -1.03351  -1.02471
 Alpha  occ. eigenvalues --   -0.91863  -0.90740  -0.90283  -0.89878  -0.89324
 Alpha  occ. eigenvalues --   -0.88691  -0.88497  -0.88200  -0.87835  -0.87254
 Alpha  occ. eigenvalues --   -0.86395  -0.85616  -0.84702  -0.83879  -0.83514
 Alpha  occ. eigenvalues --   -0.82854  -0.82316  -0.81454  -0.81116  -0.80764
 Alpha  occ. eigenvalues --   -0.80395  -0.78946  -0.78700  -0.77565  -0.76224
 Alpha  occ. eigenvalues --   -0.76131  -0.75256  -0.75127  -0.74754  -0.74512
 Alpha  occ. eigenvalues --   -0.73796  -0.72754  -0.71762  -0.70713  -0.69442
 Alpha  occ. eigenvalues --   -0.68974  -0.68284  -0.67736  -0.66940  -0.66388
 Alpha  occ. eigenvalues --   -0.65466  -0.65208  -0.64950  -0.64706  -0.64573
 Alpha  occ. eigenvalues --   -0.64220  -0.63330  -0.62726  -0.62135  -0.61036
 Alpha  occ. eigenvalues --   -0.60357  -0.59755  -0.59280  -0.58555  -0.57987
 Alpha  occ. eigenvalues --   -0.57459  -0.57159  -0.56311  -0.56150  -0.55830
 Alpha  occ. eigenvalues --   -0.55615  -0.55450  -0.55249  -0.54779  -0.54352
 Alpha  occ. eigenvalues --   -0.54096  -0.53765  -0.53466  -0.53284  -0.53131
 Alpha  occ. eigenvalues --   -0.52943  -0.52694  -0.52521  -0.52007  -0.51942
 Alpha  occ. eigenvalues --   -0.51727  -0.51598  -0.51406  -0.51312  -0.50594
 Alpha  occ. eigenvalues --   -0.50495  -0.50359  -0.50304  -0.49859  -0.49619
 Alpha  occ. eigenvalues --   -0.49463  -0.48915  -0.48747  -0.48696  -0.48514
 Alpha  occ. eigenvalues --   -0.48442  -0.48305  -0.48178  -0.48102  -0.47266
 Alpha  occ. eigenvalues --   -0.47229  -0.47163  -0.46938  -0.46526  -0.46435
 Alpha  occ. eigenvalues --   -0.46399  -0.46268  -0.46124  -0.45886  -0.45850
 Alpha  occ. eigenvalues --   -0.45793  -0.45688  -0.45371  -0.45194  -0.45174
 Alpha  occ. eigenvalues --   -0.44752  -0.44638  -0.44480  -0.44381  -0.44273
 Alpha  occ. eigenvalues --   -0.43792  -0.43560  -0.43467  -0.43430  -0.43128
 Alpha  occ. eigenvalues --   -0.42986  -0.42582  -0.42491  -0.42373  -0.42089
 Alpha  occ. eigenvalues --   -0.42067  -0.41781  -0.41598  -0.41366  -0.41205
 Alpha  occ. eigenvalues --   -0.41139  -0.40896  -0.40681  -0.40566  -0.40490
 Alpha  occ. eigenvalues --   -0.39754  -0.39707  -0.39534  -0.39277  -0.39033
 Alpha  occ. eigenvalues --   -0.38682  -0.38526  -0.37935  -0.37799  -0.37669
 Alpha  occ. eigenvalues --   -0.37335  -0.37005  -0.36944  -0.36818  -0.36292
 Alpha  occ. eigenvalues --   -0.36081  -0.35753  -0.35064  -0.34442  -0.34072
 Alpha  occ. eigenvalues --   -0.33947  -0.33921  -0.32906  -0.31974  -0.31167
 Alpha  occ. eigenvalues --   -0.30814  -0.30063  -0.28971  -0.28501  -0.24086
 Alpha  occ. eigenvalues --   -0.21798
 Alpha virt. eigenvalues --   -0.09388  -0.01319  -0.00051   0.01821   0.02553
 Alpha virt. eigenvalues --    0.03758   0.04469   0.05073   0.05326   0.06794
 Alpha virt. eigenvalues --    0.07779   0.08069   0.08265   0.08915   0.09220

 Mulliken charges:
               1
     1  Mg   0.808473
     2  C    0.044458
     3  C   -0.060917
     4  C   -0.046951
     5  C   -0.073011
     6  N   -0.322460
     7  C   -0.052791
     8  C    0.002989
     9  C   -0.034106
    10  C    0.075744
    11  C    0.092443
    12  C    0.080473
    13  C    0.047808
    14  C    0.162569
    15  O   -0.239835
    16  O   -0.320258
    17  N   -0.299699
    18  C    0.075747
    19  C   -0.092511
    20  C   -0.003286
    21  C    0.074161
    22  C    0.096317
    23  C   -0.003941
    24  O   -0.229661
    25  C    0.052583
    26  N   -0.284207
    27  C    0.052121
    28  C   -0.096567
    29  C    0.025585
    30  C    0.020491
    31  C    0.057893
    32  C    0.029614
    33  C    0.003855
    34  N   -0.330838
    35  C    0.140021
    36  C   -0.184643
    37  C    0.006185
    38  C    0.046532
    39  C    0.122845
    40  C    0.081770
    41  O   -0.164084
    42  C   -0.064872
    43  C    0.198651
    44  O   -0.251004
    45  O   -0.300914
    46  C    0.162916
    47  C    0.294367
    48  C   -0.155133
    49  C   -0.129249
    50  C    0.077934
    51  C    0.052955
    52  C    0.009765
    53  C    0.039082
    54  C   -0.084319
    55  C    0.059830
    56  C    0.022819
    57  C   -0.004038
    58  C    0.084424
    59  C   -0.128693
    60  C    0.053723
    61  C    0.003973
    62  C    0.011948
    63  C    0.125542
    64  C   -0.174185
    65  C   -0.000420
    66  C    0.049197
    67  H   -0.050357
    68  H   -0.001637
    69  H   -0.027835
    70  H    0.003654
    71  H    0.004547
    72  H    0.033929
    73  H    0.012292
    74  H    0.004505
    75  H   -0.002667
    76  H    0.027572
    77  H    0.023714
    78  H    0.054013
    79  H    0.004702
    80  H    0.026453
    81  H    0.032552
    82  H    0.022796
    83  H    0.017801
    84  H    0.042543
    85  H    0.018100
    86  H    0.003670
    87  H    0.022284
    88  H    0.011607
    89  H    0.017942
    90  H    0.004146
    91  H    0.005356
    92  H    0.037294
    93  H    0.019670
    94  H    0.012322
    95  H    0.013299
    96  H    0.020163
    97  H    0.033912
    98  H    0.061166
    99  H    0.039665
   100  H    0.061755
   101  H    0.031809
   102  H    0.032763
   103  H    0.022708
   104  H    0.001925
   105  H    0.010470
   106  H    0.014007
   107  H    0.027039
   108  H   -0.009965
   109  H   -0.008083
   110  H   -0.010461
   111  H   -0.001997
   112  H    0.000200
   113  H   -0.006728
   114  H   -0.011554
   115  H    0.006552
   116  H    0.009643
   117  H    0.006858
   118  H   -0.012335
   119  H    0.003507
   120  H   -0.013675
   121  H   -0.008798
   122  H   -0.001150
   123  H   -0.011634
   124  H   -0.009533
   125  H   -0.010394
   126  H    0.000683
   127  H    0.004023
   128  H   -0.017862
   129  H   -0.014717
   130  H   -0.014037
   131  H    0.001516
   132  H    0.005209
   133  H    0.010689
   134  H    0.007718
   135  H    0.019530
   136  H    0.003507
   137  H    0.018770
   138  H   -0.009277
   139  H    0.002530
   140  H    0.004408
 Sum of Mulliken charges =  -0.00000

 Dipole moment (field-independent basis, Debye):
    X=             -4.1165    Y=              5.7671    Z=              0.6629  Tot=              7.1165
 Quadrupole moment (field-independent basis, Debye-Ang):
   XX=           -396.7120   YY=           -427.6370   ZZ=           -407.0148
   XY=             15.6561   XZ=             25.5517   YZ=             -4.0164

 Normal termination of Gaussian 16 at Fri Apr 29 09:36:54 2022.
