 Gaussian 16, Revision A.03,
 Gaussian 16:  ES64L-G16RevA.03 25-Dec-2016

 ---------------------------------
 #p PBE1PBE/Def2SVP td=(nstates=5)
 ---------------------------------

 -----------------------------------------------------
 step_251_chromophore_16 TDDFT with PBE1PBE functional
 -----------------------------------------------------
 Symbolic Z-matrix:
 Charge =  0 Multiplicity = 1

                         Standard orientation:
 ---------------------------------------------------------------------
 Center     Atomic      Atomic             Coordinates (Angstroms)
 Number     Number       Type             X           Y           Z
 ---------------------------------------------------------------------
      1         12           0        6.067398    0.414126    0.297778
      2          6           0        3.727845   -2.167163   -0.016999
      3          6           0        3.903114    2.556677   -0.924963
      4          6           0        8.605375    2.699112   -0.078142
      5          6           0        8.534312   -1.973475    1.121922
      6          7           0        4.051705    0.189124   -0.274660
      7          6           0        3.223833   -0.911904   -0.283924
      8          6           0        1.779238   -0.530672   -0.580603
      9          6           0        1.941104    0.940462   -1.081299
     10          6           0        3.324346    1.285005   -0.650825
     11          6           0        1.610626    1.283574   -2.517814
     12          6           0        0.785989   -0.745080    0.605873
     13          6           0       -0.674461   -0.389693    0.306616
     14          6           0       -1.702778   -1.463382    0.631047
     15          8           0       -1.690632   -2.204577    1.617945
     16          8           0       -2.707920   -1.478863   -0.309956
     17          7           0        6.242929    2.439415   -0.501480
     18          6           0        5.166263    3.186344   -0.823360
     19          6           0        5.588436    4.533129   -1.091500
     20          6           0        6.986775    4.561157   -0.952272
     21          6           0        7.332139    3.184318   -0.505172
     22          6           0        4.649301    5.644055   -1.511543
     23          6           0        7.938746    5.703988   -1.088830
     24          8           0        9.196644    5.629498   -1.090269
     25          6           0        7.411518    7.129368   -1.199724
     26          7           0        8.217522    0.353406    0.464613
     27          6           0        9.021736    1.407231    0.191962
     28          6           0       10.541329    1.062325    0.644954
     29          6           0       10.345566   -0.271648    1.447562
     30          6           0        8.949122   -0.653414    1.074238
     31          6           0       11.448442    0.947105   -0.641980
     32          6           0       10.343032    0.002751    2.995856
     33          6           0        9.422325    1.072966    3.561271
     34          7           0        6.154311   -1.708240    0.585099
     35          6           0        7.233437   -2.480569    0.916865
     36          6           0        6.785252   -3.792895    0.995666
     37          6           0        5.409975   -3.807421    0.624295
     38          6           0        5.068440   -2.503236    0.380032
     39          6           0        7.559542   -5.031493    1.279706
     40          6           0        4.193310   -4.613719    0.376108
     41          8           0        3.960484   -5.817025    0.390099
     42          6           0        3.017644   -3.540590    0.043354
     43          6           0        2.230828   -3.978631   -1.140209
     44          8           0        2.711845   -4.577952   -2.147371
     45          8           0        0.952598   -3.777349   -0.849682
     46          6           0        0.032664   -4.550674   -1.661693
     47          6           0       -3.747205   -2.443035   -0.095502
     48          6           0       -4.899513   -2.075054   -0.991636
     49          6           0       -6.182206   -2.560982   -0.973440
     50          6           0       -6.707729   -3.583468    0.074236
     51          6           0       -7.189107   -2.039811   -1.916365
     52          6           0       -7.670599   -0.551038   -1.731187
     53          6           0       -8.690349   -0.499681   -0.610468
     54          6           0       -9.605298    0.765009   -0.623511
     55          6           0       -9.100670    1.795345    0.387915
     56          6           0      -11.116731    0.348387   -0.403472
     57          6           0      -11.994733    0.320314   -1.682015
     58          6           0      -13.443697    0.781315   -1.471577
     59          6           0      -14.245139   -0.108102   -0.452021
     60          6           0      -15.170977   -1.065564   -1.160223
     61          6           0      -14.960105    0.706235    0.611823
     62          6           0      -14.201940    1.050415    1.954038
     63          6           0      -14.256827    2.596727    2.319977
     64          6           0      -12.835910    3.018640    2.565084
     65          6           0      -12.234558    3.756212    1.266250
     66          6           0      -12.731601    3.993206    3.724041
     67          1           0        3.194549    3.334219   -1.218324
     68          1           0        9.419108    3.423876   -0.157779
     69          1           0        9.290091   -2.661527    1.503901
     70          1           0        1.462305   -1.261441   -1.324909
     71          1           0        1.322369    1.648027   -0.528306
     72          1           0        0.972189    0.583560   -3.056737
     73          1           0        2.538515    1.438448   -3.069047
     74          1           0        1.261812    2.316429   -2.523566
     75          1           0        1.134038   -0.192380    1.478883
     76          1           0        0.821900   -1.789837    0.912839
     77          1           0       -0.882087   -0.433363   -0.762388
     78          1           0       -0.941767    0.578735    0.730485
     79          1           0        3.628376    5.325860   -1.722318
     80          1           0        4.858153    6.101860   -2.478136
     81          1           0        4.583864    6.454974   -0.785473
     82          1           0        6.919729    7.228169   -2.167047
     83          1           0        8.214529    7.851003   -1.348058
     84          1           0        6.820694    7.438567   -0.336745
     85          1           0       10.940540    1.884714    1.238615
     86          1           0       11.079678   -0.959775    1.028491
     87          1           0       10.979739    1.345699   -1.541897
     88          1           0       11.721303   -0.074898   -0.905463
     89          1           0       12.369232    1.525240   -0.579183
     90          1           0       11.391903    0.272521    3.119550
     91          1           0       10.159897   -0.875813    3.613736
     92          1           0        9.008032    1.676331    2.753265
     93          1           0        9.830125    1.691315    4.360185
     94          1           0        8.671540    0.479409    4.082975
     95          1           0        8.130268   -5.001583    2.208204
     96          1           0        8.279782   -5.104408    0.465334
     97          1           0        6.938937   -5.926793    1.261416
     98          1           0        2.368713   -3.594225    0.917108
     99          1           0       -0.755976   -4.969883   -1.035611
    100          1           0        0.453924   -5.408787   -2.184868
    101          1           0       -0.407822   -3.844481   -2.366272
    102          1           0       -4.098353   -2.615366    0.921117
    103          1           0       -3.552781   -3.475545   -0.387604
    104          1           0       -4.666223   -1.295745   -1.717313
    105          1           0       -5.910603   -4.024787    0.672859
    106          1           0       -7.216825   -4.383520   -0.463608
    107          1           0       -7.494856   -3.141554    0.683720
    108          1           0       -8.017156   -2.699757   -2.174230
    109          1           0       -6.807323   -2.014170   -2.936675
    110          1           0       -8.153808   -0.213031   -2.647828
    111          1           0       -6.834893    0.132682   -1.583786
    112          1           0       -8.056372   -0.499888    0.277504
    113          1           0       -9.210829   -1.456897   -0.652135
    114          1           0       -9.615166    1.265882   -1.590998
    115          1           0       -8.057177    1.918386    0.098382
    116          1           0       -9.188428    1.335121    1.372574
    117          1           0       -9.687941    2.713247    0.368079
    118          1           0      -11.561043    1.129153    0.213377
    119          1           0      -11.324915   -0.615599    0.060017
    120          1           0      -12.017137   -0.730986   -1.968531
    121          1           0      -11.581680    0.880775   -2.520927
    122          1           0      -13.838044    0.806657   -2.487126
    123          1           0      -13.438212    1.786919   -1.051541
    124          1           0      -13.649778   -0.852396    0.076952
    125          1           0      -16.108758   -1.154286   -0.611652
    126          1           0      -14.769564   -2.078601   -1.120786
    127          1           0      -15.451992   -0.796899   -2.178719
    128          1           0      -15.876236    0.230689    0.962715
    129          1           0      -15.415377    1.527267    0.059032
    130          1           0      -13.169366    0.783896    1.729805
    131          1           0      -14.488809    0.310404    2.701368
    132          1           0      -14.800984    2.665367    3.261827
    133          1           0      -14.726318    3.087180    1.467531
    134          1           0      -12.054637    2.297034    2.805129
    135          1           0      -11.256920    4.186205    1.488996
    136          1           0      -12.882760    4.581897    0.971611
    137          1           0      -12.139607    3.051065    0.440650
    138          1           0      -12.138651    4.858175    3.427578
    139          1           0      -12.180595    3.569298    4.563208
    140          1           0      -13.693098    4.362776    4.081577
 ---------------------------------------------------------------------

 SCF Done:  E(RPBE1PBE) =  -3005.36180486     A.U. after   16 cycles

 Excitation energies and oscillator strengths:

 Excited State   1:      Singlet-A      1.8546 eV  668.54 nm  f=0.3704  <S**2>=0.000
     245 -> 248        0.15750
     246 -> 247        0.69624
     246 <- 247       -0.11142
 This state for optimization and/or second-order correction.
 Total Energy, E(TD-HF/TD-DFT) =  -3005.29365124
 Copying the excited state density for this state as the 1-particle RhoCI density.

 Excited State   2:      Singlet-A      2.1525 eV  576.00 nm  f=0.1637  <S**2>=0.000
     245 -> 247        0.66958
     246 -> 248       -0.19942

 Excited State   3:      Singlet-A      2.6768 eV  463.18 nm  f=0.0128  <S**2>=0.000
     243 -> 247        0.69502

 Excited State   4:      Singlet-A      2.8501 eV  435.02 nm  f=0.0009  <S**2>=0.000
     241 -> 247        0.59826
     241 -> 249        0.17060
     242 -> 247        0.29666

 Excited State   5:      Singlet-A      2.8611 eV  433.35 nm  f=0.0005  <S**2>=0.000
     241 -> 247       -0.29329
     242 -> 247        0.61951

 The electronic state is 1-A.
 Alpha  occ. eigenvalues --  -46.92791 -19.27411 -19.27300 -19.20764 -19.19372
 Alpha  occ. eigenvalues --  -19.19124 -19.18864 -14.42397 -14.41402 -14.39266
 Alpha  occ. eigenvalues --  -14.37883 -10.37384 -10.36274 -10.32682 -10.32162
 Alpha  occ. eigenvalues --  -10.29841 -10.29654 -10.29182 -10.28935 -10.28714
 Alpha  occ. eigenvalues --  -10.28196 -10.28050 -10.28004 -10.27084 -10.26598
 Alpha  occ. eigenvalues --  -10.26238 -10.26157 -10.26150 -10.26125 -10.25884
 Alpha  occ. eigenvalues --  -10.25832 -10.25680 -10.25581 -10.25540 -10.25265
 Alpha  occ. eigenvalues --  -10.25142 -10.25088 -10.25017 -10.24523 -10.24238
 Alpha  occ. eigenvalues --  -10.24212 -10.23990 -10.23841 -10.23763 -10.23673
 Alpha  occ. eigenvalues --  -10.23557 -10.23290 -10.23229 -10.23212 -10.23150
 Alpha  occ. eigenvalues --  -10.22993 -10.22856 -10.22851 -10.22731 -10.22539
 Alpha  occ. eigenvalues --  -10.22514 -10.22510 -10.22284 -10.22215 -10.22204
 Alpha  occ. eigenvalues --  -10.22180 -10.22108 -10.22014 -10.21713 -10.21244
 Alpha  occ. eigenvalues --  -10.21179  -3.14763  -1.87612  -1.87107  -1.86999
 Alpha  occ. eigenvalues --   -1.12911  -1.12428  -1.03688  -1.03187  -1.02861
 Alpha  occ. eigenvalues --   -1.00743  -0.99926  -0.98997  -0.98119  -0.97233
 Alpha  occ. eigenvalues --   -0.86301  -0.84899  -0.84461  -0.83976  -0.83601
 Alpha  occ. eigenvalues --   -0.82873  -0.82692  -0.82323  -0.81969  -0.81516
 Alpha  occ. eigenvalues --   -0.80678  -0.80177  -0.78935  -0.78210  -0.77745
 Alpha  occ. eigenvalues --   -0.77092  -0.76564  -0.75662  -0.75319  -0.74921
 Alpha  occ. eigenvalues --   -0.74569  -0.73068  -0.72948  -0.71935  -0.70559
 Alpha  occ. eigenvalues --   -0.70354  -0.69608  -0.69200  -0.68897  -0.68674
 Alpha  occ. eigenvalues --   -0.68152  -0.67252  -0.66158  -0.65066  -0.63741
 Alpha  occ. eigenvalues --   -0.63349  -0.62505  -0.62267  -0.61268  -0.60748
 Alpha  occ. eigenvalues --   -0.59807  -0.59612  -0.59434  -0.59305  -0.59073
 Alpha  occ. eigenvalues --   -0.58347  -0.57498  -0.57338  -0.56321  -0.55432
 Alpha  occ. eigenvalues --   -0.54795  -0.54238  -0.53907  -0.53183  -0.52370
 Alpha  occ. eigenvalues --   -0.52089  -0.51714  -0.50839  -0.50766  -0.50342
 Alpha  occ. eigenvalues --   -0.50147  -0.50000  -0.49903  -0.49304  -0.48873
 Alpha  occ. eigenvalues --   -0.48493  -0.48220  -0.48014  -0.47848  -0.47550
 Alpha  occ. eigenvalues --   -0.47286  -0.47175  -0.47049  -0.46503  -0.46427
 Alpha  occ. eigenvalues --   -0.46313  -0.46159  -0.45994  -0.45913  -0.45292
 Alpha  occ. eigenvalues --   -0.44980  -0.44943  -0.44778  -0.44435  -0.44138
 Alpha  occ. eigenvalues --   -0.43981  -0.43623  -0.43332  -0.43292  -0.43138
 Alpha  occ. eigenvalues --   -0.42992  -0.42918  -0.42741  -0.42716  -0.42012
 Alpha  occ. eigenvalues --   -0.41837  -0.41685  -0.41646  -0.41247  -0.41073
 Alpha  occ. eigenvalues --   -0.41031  -0.40921  -0.40739  -0.40670  -0.40621
 Alpha  occ. eigenvalues --   -0.40458  -0.40342  -0.40113  -0.39983  -0.39803
 Alpha  occ. eigenvalues --   -0.39608  -0.39355  -0.39263  -0.39150  -0.39050
 Alpha  occ. eigenvalues --   -0.38613  -0.38332  -0.38299  -0.38074  -0.37801
 Alpha  occ. eigenvalues --   -0.37706  -0.37469  -0.37304  -0.37164  -0.37064
 Alpha  occ. eigenvalues --   -0.36914  -0.36469  -0.36377  -0.36241  -0.36063
 Alpha  occ. eigenvalues --   -0.35856  -0.35658  -0.35607  -0.35358  -0.35307
 Alpha  occ. eigenvalues --   -0.34647  -0.34513  -0.34370  -0.34219  -0.33839
 Alpha  occ. eigenvalues --   -0.33647  -0.33289  -0.32877  -0.32666  -0.32597
 Alpha  occ. eigenvalues --   -0.32165  -0.32091  -0.32009  -0.31667  -0.31317
 Alpha  occ. eigenvalues --   -0.30937  -0.30636  -0.30013  -0.29355  -0.29251
 Alpha  occ. eigenvalues --   -0.29144  -0.28840  -0.28235  -0.27394  -0.26383
 Alpha  occ. eigenvalues --   -0.25625  -0.25202  -0.24405  -0.24297  -0.21014
 Alpha  occ. eigenvalues --   -0.19346
 Alpha virt. eigenvalues --   -0.11774  -0.04933  -0.04141  -0.01998  -0.01002
 Alpha virt. eigenvalues --   -0.00787  -0.00217   0.00603   0.00992   0.03139
 Alpha virt. eigenvalues --    0.04047   0.04174   0.04945   0.05435   0.05754

 Mulliken charges:
               1
     1  Mg   0.951827
     2  C    0.024550
     3  C   -0.069109
     4  C   -0.034748
     5  C   -0.050279
     6  N   -0.430427
     7  C    0.017410
     8  C   -0.070504
     9  C   -0.113873
    10  C    0.120565
    11  C    0.034494
    12  C    0.030457
    13  C   -0.029174
    14  C    0.230469
    15  O   -0.272251
    16  O   -0.354131
    17  N   -0.412908
    18  C    0.100725
    19  C   -0.125393
    20  C   -0.057275
    21  C    0.109706
    22  C    0.046950
    23  C    0.043656
    24  O   -0.267194
    25  C   -0.020324
    26  N   -0.378943
    27  C    0.074922
    28  C   -0.164301
    29  C   -0.062144
    30  C    0.053199
    31  C    0.006683
    32  C   -0.024467
    33  C   -0.073632
    34  N   -0.458271
    35  C    0.164549
    36  C   -0.212685
    37  C   -0.045508
    38  C    0.110662
    39  C    0.069368
    40  C    0.184772
    41  O   -0.208048
    42  C   -0.170363
    43  C    0.286021
    44  O   -0.285278
    45  O   -0.333017
    46  C    0.109173
    47  C    0.255509
    48  C   -0.163528
    49  C   -0.175591
    50  C    0.015491
    51  C   -0.012627
    52  C   -0.052272
    53  C   -0.012141
    54  C   -0.165739
    55  C   -0.010564
    56  C   -0.043243
    57  C   -0.062811
    58  C    0.018839
    59  C   -0.219510
    60  C    0.001256
    61  C   -0.045529
    62  C   -0.052122
    63  C    0.066477
    64  C   -0.270415
    65  C   -0.067518
    66  C   -0.007629
    67  H   -0.014852
    68  H    0.029874
    69  H    0.003442
    70  H    0.046302
    71  H    0.043009
    72  H    0.059726
    73  H    0.041820
    74  H    0.031541
    75  H    0.031043
    76  H    0.063129
    77  H    0.056663
    78  H    0.084354
    79  H    0.029723
    80  H    0.052061
    81  H    0.058433
    82  H    0.049325
    83  H    0.044875
    84  H    0.067733
    85  H    0.052756
    86  H    0.038459
    87  H    0.050132
    88  H    0.037617
    89  H    0.045139
    90  H    0.039142
    91  H    0.038441
    92  H    0.071195
    93  H    0.048345
    94  H    0.040304
    95  H    0.042037
    96  H    0.050175
    97  H    0.061957
    98  H    0.098022
    99  H    0.061169
   100  H    0.081953
   101  H    0.053716
   102  H    0.058793
   103  H    0.050598
   104  H    0.031847
   105  H    0.036875
   106  H    0.042309
   107  H    0.054727
   108  H    0.021391
   109  H    0.026152
   110  H    0.022793
   111  H    0.029779
   112  H    0.034102
   113  H    0.025116
   114  H    0.025434
   115  H    0.036595
   116  H    0.038157
   117  H    0.039058
   118  H    0.031939
   119  H    0.034269
   120  H    0.021666
   121  H    0.022368
   122  H    0.030830
   123  H    0.026739
   124  H    0.029482
   125  H    0.017058
   126  H    0.027775
   127  H    0.030653
   128  H    0.015322
   129  H    0.017241
   130  H    0.022876
   131  H    0.033220
   132  H    0.038900
   133  H    0.041920
   134  H    0.044455
   135  H    0.046539
   136  H    0.032625
   137  H    0.049432
   138  H    0.018353
   139  H    0.030343
   140  H    0.031265
 Sum of Mulliken charges =  -0.00000

 Dipole moment (field-independent basis, Debye):
    X=             -4.0720    Y=              5.1378    Z=              0.8690  Tot=              6.6132
 Quadrupole moment (field-independent basis, Debye-Ang):
   XX=           -390.3791   YY=           -425.5140   ZZ=           -404.2660
   XY=             11.3878   XZ=             27.8444   YZ=             -4.0983

 Normal termination of Gaussian 16 at Fri Apr 29 09:52:34 2022.
