 Gaussian 16, Revision A.03,
 Gaussian 16:  ES64L-G16RevA.03 25-Dec-2016

 --------------------------------
 #p wB97XD/Def2SVP td=(nstates=5)
 --------------------------------

 ----------------------------------------------------
 step_251_chromophore_16 TDDFT with wB97XD functional
 ----------------------------------------------------
 Symbolic Z-matrix:
 Charge =  0 Multiplicity = 1

                         Standard orientation:
 ---------------------------------------------------------------------
 Center     Atomic      Atomic             Coordinates (Angstroms)
 Number     Number       Type             X           Y           Z
 ---------------------------------------------------------------------
      1         12           0        6.067398    0.414126    0.297778
      2          6           0        3.727845   -2.167163   -0.016999
      3          6           0        3.903114    2.556677   -0.924963
      4          6           0        8.605375    2.699112   -0.078142
      5          6           0        8.534312   -1.973475    1.121922
      6          7           0        4.051705    0.189124   -0.274660
      7          6           0        3.223833   -0.911904   -0.283924
      8          6           0        1.779238   -0.530672   -0.580603
      9          6           0        1.941104    0.940462   -1.081299
     10          6           0        3.324346    1.285005   -0.650825
     11          6           0        1.610626    1.283574   -2.517814
     12          6           0        0.785989   -0.745080    0.605873
     13          6           0       -0.674461   -0.389693    0.306616
     14          6           0       -1.702778   -1.463382    0.631047
     15          8           0       -1.690632   -2.204577    1.617945
     16          8           0       -2.707920   -1.478863   -0.309956
     17          7           0        6.242929    2.439415   -0.501480
     18          6           0        5.166263    3.186344   -0.823360
     19          6           0        5.588436    4.533129   -1.091500
     20          6           0        6.986775    4.561157   -0.952272
     21          6           0        7.332139    3.184318   -0.505172
     22          6           0        4.649301    5.644055   -1.511543
     23          6           0        7.938746    5.703988   -1.088830
     24          8           0        9.196644    5.629498   -1.090269
     25          6           0        7.411518    7.129368   -1.199724
     26          7           0        8.217522    0.353406    0.464613
     27          6           0        9.021736    1.407231    0.191962
     28          6           0       10.541329    1.062325    0.644954
     29          6           0       10.345566   -0.271648    1.447562
     30          6           0        8.949122   -0.653414    1.074238
     31          6           0       11.448442    0.947105   -0.641980
     32          6           0       10.343032    0.002751    2.995856
     33          6           0        9.422325    1.072966    3.561271
     34          7           0        6.154311   -1.708240    0.585099
     35          6           0        7.233437   -2.480569    0.916865
     36          6           0        6.785252   -3.792895    0.995666
     37          6           0        5.409975   -3.807421    0.624295
     38          6           0        5.068440   -2.503236    0.380032
     39          6           0        7.559542   -5.031493    1.279706
     40          6           0        4.193310   -4.613719    0.376108
     41          8           0        3.960484   -5.817025    0.390099
     42          6           0        3.017644   -3.540590    0.043354
     43          6           0        2.230828   -3.978631   -1.140209
     44          8           0        2.711845   -4.577952   -2.147371
     45          8           0        0.952598   -3.777349   -0.849682
     46          6           0        0.032664   -4.550674   -1.661693
     47          6           0       -3.747205   -2.443035   -0.095502
     48          6           0       -4.899513   -2.075054   -0.991636
     49          6           0       -6.182206   -2.560982   -0.973440
     50          6           0       -6.707729   -3.583468    0.074236
     51          6           0       -7.189107   -2.039811   -1.916365
     52          6           0       -7.670599   -0.551038   -1.731187
     53          6           0       -8.690349   -0.499681   -0.610468
     54          6           0       -9.605298    0.765009   -0.623511
     55          6           0       -9.100670    1.795345    0.387915
     56          6           0      -11.116731    0.348387   -0.403472
     57          6           0      -11.994733    0.320314   -1.682015
     58          6           0      -13.443697    0.781315   -1.471577
     59          6           0      -14.245139   -0.108102   -0.452021
     60          6           0      -15.170977   -1.065564   -1.160223
     61          6           0      -14.960105    0.706235    0.611823
     62          6           0      -14.201940    1.050415    1.954038
     63          6           0      -14.256827    2.596727    2.319977
     64          6           0      -12.835910    3.018640    2.565084
     65          6           0      -12.234558    3.756212    1.266250
     66          6           0      -12.731601    3.993206    3.724041
     67          1           0        3.194549    3.334219   -1.218324
     68          1           0        9.419108    3.423876   -0.157779
     69          1           0        9.290091   -2.661527    1.503901
     70          1           0        1.462305   -1.261441   -1.324909
     71          1           0        1.322369    1.648027   -0.528306
     72          1           0        0.972189    0.583560   -3.056737
     73          1           0        2.538515    1.438448   -3.069047
     74          1           0        1.261812    2.316429   -2.523566
     75          1           0        1.134038   -0.192380    1.478883
     76          1           0        0.821900   -1.789837    0.912839
     77          1           0       -0.882087   -0.433363   -0.762388
     78          1           0       -0.941767    0.578735    0.730485
     79          1           0        3.628376    5.325860   -1.722318
     80          1           0        4.858153    6.101860   -2.478136
     81          1           0        4.583864    6.454974   -0.785473
     82          1           0        6.919729    7.228169   -2.167047
     83          1           0        8.214529    7.851003   -1.348058
     84          1           0        6.820694    7.438567   -0.336745
     85          1           0       10.940540    1.884714    1.238615
     86          1           0       11.079678   -0.959775    1.028491
     87          1           0       10.979739    1.345699   -1.541897
     88          1           0       11.721303   -0.074898   -0.905463
     89          1           0       12.369232    1.525240   -0.579183
     90          1           0       11.391903    0.272521    3.119550
     91          1           0       10.159897   -0.875813    3.613736
     92          1           0        9.008032    1.676331    2.753265
     93          1           0        9.830125    1.691315    4.360185
     94          1           0        8.671540    0.479409    4.082975
     95          1           0        8.130268   -5.001583    2.208204
     96          1           0        8.279782   -5.104408    0.465334
     97          1           0        6.938937   -5.926793    1.261416
     98          1           0        2.368713   -3.594225    0.917108
     99          1           0       -0.755976   -4.969883   -1.035611
    100          1           0        0.453924   -5.408787   -2.184868
    101          1           0       -0.407822   -3.844481   -2.366272
    102          1           0       -4.098353   -2.615366    0.921117
    103          1           0       -3.552781   -3.475545   -0.387604
    104          1           0       -4.666223   -1.295745   -1.717313
    105          1           0       -5.910603   -4.024787    0.672859
    106          1           0       -7.216825   -4.383520   -0.463608
    107          1           0       -7.494856   -3.141554    0.683720
    108          1           0       -8.017156   -2.699757   -2.174230
    109          1           0       -6.807323   -2.014170   -2.936675
    110          1           0       -8.153808   -0.213031   -2.647828
    111          1           0       -6.834893    0.132682   -1.583786
    112          1           0       -8.056372   -0.499888    0.277504
    113          1           0       -9.210829   -1.456897   -0.652135
    114          1           0       -9.615166    1.265882   -1.590998
    115          1           0       -8.057177    1.918386    0.098382
    116          1           0       -9.188428    1.335121    1.372574
    117          1           0       -9.687941    2.713247    0.368079
    118          1           0      -11.561043    1.129153    0.213377
    119          1           0      -11.324915   -0.615599    0.060017
    120          1           0      -12.017137   -0.730986   -1.968531
    121          1           0      -11.581680    0.880775   -2.520927
    122          1           0      -13.838044    0.806657   -2.487126
    123          1           0      -13.438212    1.786919   -1.051541
    124          1           0      -13.649778   -0.852396    0.076952
    125          1           0      -16.108758   -1.154286   -0.611652
    126          1           0      -14.769564   -2.078601   -1.120786
    127          1           0      -15.451992   -0.796899   -2.178719
    128          1           0      -15.876236    0.230689    0.962715
    129          1           0      -15.415377    1.527267    0.059032
    130          1           0      -13.169366    0.783896    1.729805
    131          1           0      -14.488809    0.310404    2.701368
    132          1           0      -14.800984    2.665367    3.261827
    133          1           0      -14.726318    3.087180    1.467531
    134          1           0      -12.054637    2.297034    2.805129
    135          1           0      -11.256920    4.186205    1.488996
    136          1           0      -12.882760    4.581897    0.971611
    137          1           0      -12.139607    3.051065    0.440650
    138          1           0      -12.138651    4.858175    3.427578
    139          1           0      -12.180595    3.569298    4.563208
    140          1           0      -13.693098    4.362776    4.081577
 ---------------------------------------------------------------------

 SCF Done:  E(RwB97XD) =  -3007.87600351     A.U. after   19 cycles

 Excitation energies and oscillator strengths:

 Excited State   1:      Singlet-A      1.6687 eV  742.99 nm  f=0.3841  <S**2>=0.000
     245 -> 248        0.17198
     246 -> 247        0.68661
     245 <- 248        0.11195
 This state for optimization and/or second-order correction.
 Total Energy, E(TD-HF/TD-DFT) =  -3007.81467927
 Copying the excited state density for this state as the 1-particle RhoCI density.

 Excited State   2:      Singlet-A      2.0904 eV  593.12 nm  f=0.1748  <S**2>=0.000
     245 -> 247        0.66079
     246 -> 248       -0.23157

 Excited State   3:      Singlet-A      3.0640 eV  404.64 nm  f=0.0096  <S**2>=0.000
     244 -> 247        0.67902

 Excited State   4:      Singlet-A      3.3608 eV  368.91 nm  f=0.0004  <S**2>=0.000
     240 -> 247        0.42139
     240 -> 248       -0.10132
     240 -> 249       -0.31765
     241 -> 247        0.32781
     241 -> 249       -0.23469

 Excited State   5:      Singlet-A      3.5475 eV  349.50 nm  f=0.0025  <S**2>=0.000
     239 -> 247       -0.15205
     240 -> 247       -0.19604
     241 -> 247        0.19042
     242 -> 247        0.52702
     242 -> 249        0.16205
     242 -> 250       -0.19938
     246 -> 248       -0.13334

 The electronic state is 1-A.
 Alpha  occ. eigenvalues --  -46.95737 -19.31946 -19.31809 -19.25411 -19.24231
 Alpha  occ. eigenvalues --  -19.23973 -19.23405 -14.47564 -14.46436 -14.44380
 Alpha  occ. eigenvalues --  -14.42594 -10.44126 -10.43020 -10.39812 -10.38774
 Alpha  occ. eigenvalues --  -10.36302 -10.36244 -10.35640 -10.35174 -10.35068
 Alpha  occ. eigenvalues --  -10.34884 -10.34755 -10.34070 -10.34010 -10.32841
 Alpha  occ. eigenvalues --  -10.32505 -10.32386 -10.32386 -10.32358 -10.32291
 Alpha  occ. eigenvalues --  -10.32151 -10.31842 -10.31822 -10.31815 -10.31811
 Alpha  occ. eigenvalues --  -10.31800 -10.31489 -10.31432 -10.30501 -10.30483
 Alpha  occ. eigenvalues --  -10.30459 -10.30407 -10.30280 -10.30231 -10.30064
 Alpha  occ. eigenvalues --  -10.30054 -10.29856 -10.29570 -10.29563 -10.29533
 Alpha  occ. eigenvalues --  -10.29368 -10.29229 -10.29129 -10.29098 -10.28906
 Alpha  occ. eigenvalues --  -10.28867 -10.28677 -10.28666 -10.28589 -10.28557
 Alpha  occ. eigenvalues --  -10.28484 -10.28475 -10.28252 -10.28068 -10.27669
 Alpha  occ. eigenvalues --  -10.27602  -3.21583  -1.95177  -1.94675  -1.94562
 Alpha  occ. eigenvalues --   -1.20229  -1.19778  -1.10928  -1.10652  -1.10509
 Alpha  occ. eigenvalues --   -1.08047  -1.07521  -1.06441  -1.05332  -1.04471
 Alpha  occ. eigenvalues --   -0.93790  -0.92562  -0.92116  -0.91645  -0.91242
 Alpha  occ. eigenvalues --   -0.90526  -0.90375  -0.90159  -0.89643  -0.89179
 Alpha  occ. eigenvalues --   -0.88302  -0.87510  -0.86568  -0.85781  -0.85385
 Alpha  occ. eigenvalues --   -0.84702  -0.84210  -0.83403  -0.83015  -0.82680
 Alpha  occ. eigenvalues --   -0.82232  -0.80930  -0.80612  -0.79467  -0.78098
 Alpha  occ. eigenvalues --   -0.78024  -0.77194  -0.76920  -0.76571  -0.76343
 Alpha  occ. eigenvalues --   -0.75733  -0.74717  -0.73718  -0.72657  -0.71388
 Alpha  occ. eigenvalues --   -0.70942  -0.70151  -0.69740  -0.68854  -0.68326
 Alpha  occ. eigenvalues --   -0.67290  -0.67202  -0.66903  -0.66694  -0.66512
 Alpha  occ. eigenvalues --   -0.66038  -0.65151  -0.64674  -0.63959  -0.63087
 Alpha  occ. eigenvalues --   -0.62302  -0.61694  -0.61244  -0.60554  -0.59867
 Alpha  occ. eigenvalues --   -0.59404  -0.59112  -0.58331  -0.58095  -0.57757
 Alpha  occ. eigenvalues --   -0.57538  -0.57361  -0.57217  -0.56708  -0.56284
 Alpha  occ. eigenvalues --   -0.55967  -0.55647  -0.55322  -0.55238  -0.55085
 Alpha  occ. eigenvalues --   -0.54897  -0.54603  -0.54432  -0.53930  -0.53814
 Alpha  occ. eigenvalues --   -0.53618  -0.53472  -0.53323  -0.53236  -0.52540
 Alpha  occ. eigenvalues --   -0.52474  -0.52262  -0.52203  -0.51766  -0.51493
 Alpha  occ. eigenvalues --   -0.51454  -0.50864  -0.50685  -0.50608  -0.50458
 Alpha  occ. eigenvalues --   -0.50348  -0.50192  -0.50050  -0.50011  -0.49237
 Alpha  occ. eigenvalues --   -0.49145  -0.49049  -0.48856  -0.48456  -0.48351
 Alpha  occ. eigenvalues --   -0.48284  -0.48171  -0.47988  -0.47782  -0.47750
 Alpha  occ. eigenvalues --   -0.47678  -0.47555  -0.47280  -0.47074  -0.47034
 Alpha  occ. eigenvalues --   -0.46634  -0.46506  -0.46409  -0.46302  -0.46181
 Alpha  occ. eigenvalues --   -0.45715  -0.45451  -0.45406  -0.45343  -0.44983
 Alpha  occ. eigenvalues --   -0.44919  -0.44560  -0.44344  -0.44327  -0.44028
 Alpha  occ. eigenvalues --   -0.43931  -0.43815  -0.43477  -0.43288  -0.43158
 Alpha  occ. eigenvalues --   -0.42986  -0.42757  -0.42581  -0.42428  -0.42373
 Alpha  occ. eigenvalues --   -0.41619  -0.41578  -0.41401  -0.41158  -0.40886
 Alpha  occ. eigenvalues --   -0.40619  -0.40370  -0.39876  -0.39693  -0.39646
 Alpha  occ. eigenvalues --   -0.39175  -0.39129  -0.38846  -0.38654  -0.38311
 Alpha  occ. eigenvalues --   -0.37928  -0.37599  -0.36913  -0.36356  -0.36112
 Alpha  occ. eigenvalues --   -0.35941  -0.35752  -0.35032  -0.34178  -0.33193
 Alpha  occ. eigenvalues --   -0.32981  -0.32026  -0.31007  -0.30618  -0.26002
 Alpha  occ. eigenvalues --   -0.23615
 Alpha virt. eigenvalues --   -0.07733   0.00617   0.01968   0.04605   0.04956
 Alpha virt. eigenvalues --    0.06085   0.06660   0.07322   0.07669   0.09690
 Alpha virt. eigenvalues --    0.10427   0.11034   0.11519   0.12272   0.12476

 Mulliken charges:
               1
     1  Mg   0.941725
     2  C    0.024615
     3  C   -0.075887
     4  C   -0.054110
     5  C   -0.071026
     6  N   -0.396525
     7  C   -0.015365
     8  C   -0.039604
     9  C   -0.089205
    10  C    0.105784
    11  C    0.044465
    12  C    0.042594
    13  C   -0.011521
    14  C    0.220770
    15  O   -0.269704
    16  O   -0.352471
    17  N   -0.379612
    18  C    0.094569
    19  C   -0.112385
    20  C   -0.048698
    21  C    0.101408
    22  C    0.053620
    23  C    0.041284
    24  O   -0.259335
    25  C   -0.009182
    26  N   -0.351614
    27  C    0.069148
    28  C   -0.145374
    29  C   -0.029886
    30  C    0.039171
    31  C    0.014278
    32  C   -0.014393
    33  C   -0.051536
    34  N   -0.418335
    35  C    0.151719
    36  C   -0.203906
    37  C   -0.040604
    38  C    0.088372
    39  C    0.077130
    40  C    0.163111
    41  O   -0.200735
    42  C   -0.132122
    43  C    0.262555
    44  O   -0.280561
    45  O   -0.331101
    46  C    0.123836
    47  C    0.267353
    48  C   -0.172010
    49  C   -0.163448
    50  C    0.030421
    51  C    0.005712
    52  C   -0.035600
    53  C    0.003116
    54  C   -0.138864
    55  C    0.013039
    56  C   -0.007422
    57  C   -0.046483
    58  C    0.042110
    59  C   -0.189068
    60  C    0.010470
    61  C   -0.031924
    62  C   -0.028390
    63  C    0.078060
    64  C   -0.235822
    65  C   -0.045951
    66  C    0.002465
    67  H   -0.028021
    68  H    0.024899
    69  H   -0.000840
    70  H    0.030526
    71  H    0.031774
    72  H    0.056867
    73  H    0.034340
    74  H    0.025852
    75  H    0.024576
    76  H    0.048963
    77  H    0.047639
    78  H    0.080132
    79  H    0.028232
    80  H    0.048557
    81  H    0.055028
    82  H    0.043745
    83  H    0.044675
    84  H    0.064235
    85  H    0.043869
    86  H    0.030807
    87  H    0.043496
    88  H    0.032476
    89  H    0.040139
    90  H    0.029628
    91  H    0.031191
    92  H    0.055165
    93  H    0.043911
    94  H    0.034187
    95  H    0.035511
    96  H    0.042752
    97  H    0.058399
    98  H    0.090805
    99  H    0.057786
   100  H    0.078552
   101  H    0.049446
   102  H    0.052923
   103  H    0.044684
   104  H    0.028665
   105  H    0.032022
   106  H    0.036262
   107  H    0.048478
   108  H    0.014720
   109  H    0.018447
   110  H    0.014371
   111  H    0.021075
   112  H    0.022140
   113  H    0.013797
   114  H    0.012431
   115  H    0.029289
   116  H    0.030756
   117  H    0.027563
   118  H   -0.004560
   119  H    0.025186
   120  H    0.011063
   121  H    0.015292
   122  H    0.023796
   123  H    0.010264
   124  H    0.014759
   125  H    0.010383
   126  H    0.022744
   127  H    0.024831
   128  H    0.006614
   129  H    0.006988
   130  H    0.004392
   131  H    0.028016
   132  H    0.031225
   133  H    0.032569
   134  H    0.032994
   135  H    0.039813
   136  H    0.026531
   137  H    0.034715
   138  H    0.011749
   139  H    0.025311
   140  H    0.025281
 Sum of Mulliken charges =  -0.00000

 Dipole moment (field-independent basis, Debye):
    X=             -4.1540    Y=              6.0245    Z=              0.6578  Tot=              7.3473
 Quadrupole moment (field-independent basis, Debye-Ang):
   XX=           -391.7631   YY=           -423.1344   ZZ=           -404.0216
   XY=             17.1035   XZ=             26.2921   YZ=             -4.4588

 Normal termination of Gaussian 16 at Fri Apr 29 10:17:22 2022.
