 Gaussian 16, Revision A.03,
 Gaussian 16:  ES64L-G16RevA.03 25-Dec-2016

 --------------------
 #p ZINDO=(nstates=5)
 --------------------

 -----------------------------
 step_251_chromophore_16 ZINDO
 -----------------------------
 Symbolic Z-matrix:
 Charge =  0 Multiplicity = 1

                         Standard orientation:
 ---------------------------------------------------------------------
 Center     Atomic      Atomic             Coordinates (Angstroms)
 Number     Number       Type             X           Y           Z
 ---------------------------------------------------------------------
      1         12           0        6.067398    0.414126    0.297778
      2          6           0        3.727845   -2.167163   -0.016999
      3          6           0        3.903114    2.556677   -0.924963
      4          6           0        8.605375    2.699112   -0.078142
      5          6           0        8.534312   -1.973475    1.121922
      6          7           0        4.051705    0.189124   -0.274660
      7          6           0        3.223833   -0.911904   -0.283924
      8          6           0        1.779238   -0.530672   -0.580603
      9          6           0        1.941104    0.940462   -1.081299
     10          6           0        3.324346    1.285005   -0.650825
     11          6           0        1.610626    1.283574   -2.517814
     12          6           0        0.785989   -0.745080    0.605873
     13          6           0       -0.674461   -0.389693    0.306616
     14          6           0       -1.702778   -1.463382    0.631047
     15          8           0       -1.690632   -2.204577    1.617945
     16          8           0       -2.707920   -1.478863   -0.309956
     17          7           0        6.242929    2.439415   -0.501480
     18          6           0        5.166263    3.186344   -0.823360
     19          6           0        5.588436    4.533129   -1.091500
     20          6           0        6.986775    4.561157   -0.952272
     21          6           0        7.332139    3.184318   -0.505172
     22          6           0        4.649301    5.644055   -1.511543
     23          6           0        7.938746    5.703988   -1.088830
     24          8           0        9.196644    5.629498   -1.090269
     25          6           0        7.411518    7.129368   -1.199724
     26          7           0        8.217522    0.353406    0.464613
     27          6           0        9.021736    1.407231    0.191962
     28          6           0       10.541329    1.062325    0.644954
     29          6           0       10.345566   -0.271648    1.447562
     30          6           0        8.949122   -0.653414    1.074238
     31          6           0       11.448442    0.947105   -0.641980
     32          6           0       10.343032    0.002751    2.995856
     33          6           0        9.422325    1.072966    3.561271
     34          7           0        6.154311   -1.708240    0.585099
     35          6           0        7.233437   -2.480569    0.916865
     36          6           0        6.785252   -3.792895    0.995666
     37          6           0        5.409975   -3.807421    0.624295
     38          6           0        5.068440   -2.503236    0.380032
     39          6           0        7.559542   -5.031493    1.279706
     40          6           0        4.193310   -4.613719    0.376108
     41          8           0        3.960484   -5.817025    0.390099
     42          6           0        3.017644   -3.540590    0.043354
     43          6           0        2.230828   -3.978631   -1.140209
     44          8           0        2.711845   -4.577952   -2.147371
     45          8           0        0.952598   -3.777349   -0.849682
     46          6           0        0.032664   -4.550674   -1.661693
     47          6           0       -3.747205   -2.443035   -0.095502
     48          6           0       -4.899513   -2.075054   -0.991636
     49          6           0       -6.182206   -2.560982   -0.973440
     50          6           0       -6.707729   -3.583468    0.074236
     51          6           0       -7.189107   -2.039811   -1.916365
     52          6           0       -7.670599   -0.551038   -1.731187
     53          6           0       -8.690349   -0.499681   -0.610468
     54          6           0       -9.605298    0.765009   -0.623511
     55          6           0       -9.100670    1.795345    0.387915
     56          6           0      -11.116731    0.348387   -0.403472
     57          6           0      -11.994733    0.320314   -1.682015
     58          6           0      -13.443697    0.781315   -1.471577
     59          6           0      -14.245139   -0.108102   -0.452021
     60          6           0      -15.170977   -1.065564   -1.160223
     61          6           0      -14.960105    0.706235    0.611823
     62          6           0      -14.201940    1.050415    1.954038
     63          6           0      -14.256827    2.596727    2.319977
     64          6           0      -12.835910    3.018640    2.565084
     65          6           0      -12.234558    3.756212    1.266250
     66          6           0      -12.731601    3.993206    3.724041
     67          1           0        3.194549    3.334219   -1.218324
     68          1           0        9.419108    3.423876   -0.157779
     69          1           0        9.290091   -2.661527    1.503901
     70          1           0        1.462305   -1.261441   -1.324909
     71          1           0        1.322369    1.648027   -0.528306
     72          1           0        0.972189    0.583560   -3.056737
     73          1           0        2.538515    1.438448   -3.069047
     74          1           0        1.261812    2.316429   -2.523566
     75          1           0        1.134038   -0.192380    1.478883
     76          1           0        0.821900   -1.789837    0.912839
     77          1           0       -0.882087   -0.433363   -0.762388
     78          1           0       -0.941767    0.578735    0.730485
     79          1           0        3.628376    5.325860   -1.722318
     80          1           0        4.858153    6.101860   -2.478136
     81          1           0        4.583864    6.454974   -0.785473
     82          1           0        6.919729    7.228169   -2.167047
     83          1           0        8.214529    7.851003   -1.348058
     84          1           0        6.820694    7.438567   -0.336745
     85          1           0       10.940540    1.884714    1.238615
     86          1           0       11.079678   -0.959775    1.028491
     87          1           0       10.979739    1.345699   -1.541897
     88          1           0       11.721303   -0.074898   -0.905463
     89          1           0       12.369232    1.525240   -0.579183
     90          1           0       11.391903    0.272521    3.119550
     91          1           0       10.159897   -0.875813    3.613736
     92          1           0        9.008032    1.676331    2.753265
     93          1           0        9.830125    1.691315    4.360185
     94          1           0        8.671540    0.479409    4.082975
     95          1           0        8.130268   -5.001583    2.208204
     96          1           0        8.279782   -5.104408    0.465334
     97          1           0        6.938937   -5.926793    1.261416
     98          1           0        2.368713   -3.594225    0.917108
     99          1           0       -0.755976   -4.969883   -1.035611
    100          1           0        0.453924   -5.408787   -2.184868
    101          1           0       -0.407822   -3.844481   -2.366272
    102          1           0       -4.098353   -2.615366    0.921117
    103          1           0       -3.552781   -3.475545   -0.387604
    104          1           0       -4.666223   -1.295745   -1.717313
    105          1           0       -5.910603   -4.024787    0.672859
    106          1           0       -7.216825   -4.383520   -0.463608
    107          1           0       -7.494856   -3.141554    0.683720
    108          1           0       -8.017156   -2.699757   -2.174230
    109          1           0       -6.807323   -2.014170   -2.936675
    110          1           0       -8.153808   -0.213031   -2.647828
    111          1           0       -6.834893    0.132682   -1.583786
    112          1           0       -8.056372   -0.499888    0.277504
    113          1           0       -9.210829   -1.456897   -0.652135
    114          1           0       -9.615166    1.265882   -1.590998
    115          1           0       -8.057177    1.918386    0.098382
    116          1           0       -9.188428    1.335121    1.372574
    117          1           0       -9.687941    2.713247    0.368079
    118          1           0      -11.561043    1.129153    0.213377
    119          1           0      -11.324915   -0.615599    0.060017
    120          1           0      -12.017137   -0.730986   -1.968531
    121          1           0      -11.581680    0.880775   -2.520927
    122          1           0      -13.838044    0.806657   -2.487126
    123          1           0      -13.438212    1.786919   -1.051541
    124          1           0      -13.649778   -0.852396    0.076952
    125          1           0      -16.108758   -1.154286   -0.611652
    126          1           0      -14.769564   -2.078601   -1.120786
    127          1           0      -15.451992   -0.796899   -2.178719
    128          1           0      -15.876236    0.230689    0.962715
    129          1           0      -15.415377    1.527267    0.059032
    130          1           0      -13.169366    0.783896    1.729805
    131          1           0      -14.488809    0.310404    2.701368
    132          1           0      -14.800984    2.665367    3.261827
    133          1           0      -14.726318    3.087180    1.467531
    134          1           0      -12.054637    2.297034    2.805129
    135          1           0      -11.256920    4.186205    1.488996
    136          1           0      -12.882760    4.581897    0.971611
    137          1           0      -12.139607    3.051065    0.440650
    138          1           0      -12.138651    4.858175    3.427578
    139          1           0      -12.180595    3.569298    4.563208
    140          1           0      -13.693098    4.362776    4.081577
 ---------------------------------------------------------------------

 SCF Done:  E(RZINDO/S) =  -474.425942058     A.U. after   20 cycles

 Excitation energies and oscillator strengths:

 Excited State   1:      Singlet-A      1.2776 eV  970.46 nm  f=0.6038  <S**2>=0.000
     175 ->178         0.17850
     176 ->177         0.66765
 This state for optimization and/or second-order correction.
 Total Energy, E(CIS/TDA) =  -474.378991928
 Copying the excited state density for this state as the 1-particle RhoCI density.

 Excited State   2:      Singlet-A      1.9081 eV  649.78 nm  f=0.1200  <S**2>=0.000
     175 ->177         0.58945
     176 ->178        -0.35725

 Excited State   3:      Singlet-A      2.8437 eV  436.00 nm  f=0.0022  <S**2>=0.000
     167 ->177         0.13654
     167 ->179        -0.22494
     168 ->177         0.30397
     168 ->179        -0.43555
     168 ->184        -0.11963
     168 ->186        -0.18591

 Excited State   4:      Singlet-A      3.0431 eV  407.42 nm  f=0.0267  <S**2>=0.000
     172 ->177         0.25381
     174 ->177         0.62561

 Excited State   5:      Singlet-A      3.0952 eV  400.57 nm  f=0.0153  <S**2>=0.000
     171 ->177         0.30044
     171 ->178        -0.12602
     171 ->179         0.19152
     171 ->180        -0.20262
     171 ->181        -0.22908
     171 ->182         0.23386
     171 ->183        -0.19829
     171 ->186         0.20684
     171 ->187         0.17944
     171 ->188         0.11626
     171 ->203        -0.12931

 The electronic state is 1-A.
 Alpha  occ. eigenvalues --   -1.84541  -1.83105  -1.81387  -1.74443  -1.73947
 Alpha  occ. eigenvalues --   -1.72644  -1.66545  -1.60742  -1.57343  -1.57147
 Alpha  occ. eigenvalues --   -1.55755  -1.52006  -1.48972  -1.46494  -1.45302
 Alpha  occ. eigenvalues --   -1.43822  -1.42798  -1.39725  -1.39538  -1.38755
 Alpha  occ. eigenvalues --   -1.36059  -1.33389  -1.33371  -1.32266  -1.30465
 Alpha  occ. eigenvalues --   -1.29796  -1.24357  -1.23239  -1.21028  -1.19415
 Alpha  occ. eigenvalues --   -1.17933  -1.16292  -1.15813  -1.14026  -1.13523
 Alpha  occ. eigenvalues --   -1.12535  -1.11887  -1.11805  -1.04940  -1.03576
 Alpha  occ. eigenvalues --   -1.02702  -1.01256  -0.98431  -0.97837  -0.97252
 Alpha  occ. eigenvalues --   -0.96171  -0.96155  -0.95107  -0.93375  -0.92344
 Alpha  occ. eigenvalues --   -0.90719  -0.90318  -0.89262  -0.88600  -0.86830
 Alpha  occ. eigenvalues --   -0.86432  -0.86281  -0.83604  -0.82163  -0.80689
 Alpha  occ. eigenvalues --   -0.80055  -0.79058  -0.78044  -0.77220  -0.76517
 Alpha  occ. eigenvalues --   -0.75976  -0.74976  -0.74822  -0.74273  -0.72980
 Alpha  occ. eigenvalues --   -0.72716  -0.72278  -0.72099  -0.71970  -0.71034
 Alpha  occ. eigenvalues --   -0.70450  -0.69800  -0.69194  -0.68574  -0.68415
 Alpha  occ. eigenvalues --   -0.67367  -0.66790  -0.66609  -0.66521  -0.66339
 Alpha  occ. eigenvalues --   -0.65681  -0.64890  -0.64540  -0.64189  -0.63424
 Alpha  occ. eigenvalues --   -0.63129  -0.62799  -0.62248  -0.61942  -0.61753
 Alpha  occ. eigenvalues --   -0.61300  -0.60967  -0.60508  -0.60361  -0.59983
 Alpha  occ. eigenvalues --   -0.59707  -0.59379  -0.58934  -0.58611  -0.58418
 Alpha  occ. eigenvalues --   -0.58037  -0.57625  -0.57059  -0.56515  -0.56333
 Alpha  occ. eigenvalues --   -0.56301  -0.56022  -0.55493  -0.55129  -0.54743
 Alpha  occ. eigenvalues --   -0.54590  -0.54371  -0.53433  -0.53315  -0.52681
 Alpha  occ. eigenvalues --   -0.52566  -0.52393  -0.52115  -0.52005  -0.51720
 Alpha  occ. eigenvalues --   -0.51097  -0.50928  -0.50728  -0.50425  -0.50316
 Alpha  occ. eigenvalues --   -0.50165  -0.49990  -0.49866  -0.49469  -0.49322
 Alpha  occ. eigenvalues --   -0.49069  -0.48530  -0.48291  -0.47884  -0.47446
 Alpha  occ. eigenvalues --   -0.47320  -0.46983  -0.46912  -0.46757  -0.46703
 Alpha  occ. eigenvalues --   -0.46330  -0.46044  -0.45664  -0.45340  -0.45089
 Alpha  occ. eigenvalues --   -0.45044  -0.44923  -0.44724  -0.43912  -0.43833
 Alpha  occ. eigenvalues --   -0.43616  -0.43198  -0.42963  -0.42832  -0.42465
 Alpha  occ. eigenvalues --   -0.42129  -0.41198  -0.40577  -0.39311  -0.39211
 Alpha  occ. eigenvalues --   -0.37764  -0.36787  -0.36060  -0.34805  -0.34546
 Alpha  occ. eigenvalues --   -0.34259  -0.32779  -0.31454  -0.31424  -0.26871
 Alpha  occ. eigenvalues --   -0.22488
 Alpha virt. eigenvalues --   -0.09194  -0.01933  -0.00971   0.01141   0.01294
 Alpha virt. eigenvalues --    0.01574   0.02345   0.02789   0.04311   0.04612
 Alpha virt. eigenvalues --    0.06015   0.06397   0.07085   0.07302   0.08277

 Mulliken charges:
               1
     1  Mg   0.426191
     2  C   -0.030365
     3  C   -0.085077
     4  C   -0.069856
     5  C   -0.059678
     6  N   -0.275526
     7  C    0.099318
     8  C    0.005474
     9  C    0.017820
    10  C    0.154769
    11  C   -0.047505
    12  C   -0.018121
    13  C    0.002857
    14  C    0.464064
    15  O   -0.519141
    16  O   -0.257877
    17  N   -0.313445
    18  C    0.124134
    19  C    0.033248
    20  C   -0.033426
    21  C    0.156353
    22  C   -0.044808
    23  C    0.328916
    24  O   -0.529079
    25  C   -0.032093
    26  N   -0.280576
    27  C    0.150206
    28  C   -0.003589
    29  C    0.007588
    30  C    0.112741
    31  C   -0.056071
    32  C   -0.020889
    33  C   -0.055015
    34  N   -0.342176
    35  C    0.092131
    36  C    0.022679
    37  C   -0.060193
    38  C    0.102351
    39  C   -0.042146
    40  C    0.328386
    41  O   -0.510128
    42  C    0.045769
    43  C    0.490804
    44  O   -0.533124
    45  O   -0.249135
    46  C    0.075613
    47  C    0.106649
    48  C   -0.091018
    49  C   -0.011972
    50  C   -0.046483
    51  C   -0.022696
    52  C   -0.028380
    53  C   -0.033580
    54  C   -0.014209
    55  C   -0.056724
    56  C   -0.047981
    57  C   -0.039390
    58  C   -0.031338
    59  C   -0.005478
    60  C   -0.057670
    61  C   -0.042474
    62  C   -0.051709
    63  C   -0.021758
    64  C   -0.010700
    65  C   -0.067766
    66  C   -0.061576
    67  H    0.007442
    68  H    0.039567
    69  H    0.022776
    70  H    0.034427
    71  H    0.022432
    72  H    0.033408
    73  H    0.020757
    74  H    0.017314
    75  H    0.023481
    76  H    0.035055
    77  H    0.034493
    78  H    0.053223
    79  H    0.018984
    80  H    0.029516
    81  H    0.032074
    82  H    0.034937
    83  H    0.033529
    84  H    0.039761
    85  H    0.034689
    86  H    0.041011
    87  H    0.022229
    88  H    0.021212
    89  H    0.019965
    90  H    0.007946
    91  H    0.022008
    92  H    0.032804
    93  H    0.023063
    94  H    0.017158
    95  H    0.023598
    96  H    0.025855
    97  H    0.033011
    98  H    0.053903
    99  H    0.032842
   100  H    0.058645
   101  H    0.031875
   102  H    0.056384
   103  H    0.047954
   104  H    0.030354
   105  H    0.026451
   106  H    0.022569
   107  H    0.031711
   108  H    0.021921
   109  H    0.005719
   110  H    0.011638
   111  H    0.023314
   112  H    0.016991
   113  H    0.023685
   114  H    0.021612
   115  H    0.019935
   116  H    0.019482
   117  H    0.023638
   118  H    0.015810
   119  H    0.026399
   120  H    0.011404
   121  H    0.016619
   122  H    0.021592
   123  H    0.018250
   124  H    0.020870
   125  H    0.009976
   126  H    0.013945
   127  H    0.018972
   128  H    0.005610
   129  H    0.015822
   130  H    0.014263
   131  H    0.027427
   132  H    0.024218
   133  H    0.037683
   134  H    0.029970
   135  H    0.015920
   136  H    0.017831
   137  H    0.020035
   138  H    0.011821
   139  H    0.012961
   140  H    0.018132
 Sum of Mulliken charges =  -0.00000

 Dipole moment (field-independent basis, Debye):
    X=             -5.4825    Y=             10.2942    Z=              0.6632  Tot=             11.6819
 N-N= 4.253336591700D+03 E-N= 0.000000000000D+00  KE=-9.180697493018D+03
 Leave Link  601 at Fri Apr 29 10:30:01 2022, MaxMem=  6710886400 cpu:               3.2 elap:               0.2
 (Enter /sw/apps/gaussian-16.0/g16/l9999.exe)
 1\1\GINC-BP1-COMPUTE140\SP\RZINDO CIS\STO-3G\C55H74Mg1N4O6\OF15641\29-
 Apr-2022\0\\#p ZINDO=(nstates=5)\\step_251_chromophore_16 ZINDO\\0,1\M
 g,0,40.61,41.388,26.956\C,0,39.868,43.568,29.589\C,0,41.566,39.091,29.
 096\C,0,42.011,39.618,24.366\C,0,40.071,44.025,24.671\N,0,40.591,41.34
 9,29.063\C,0,40.2,42.291,29.989\C,0,40.169,41.718,31.4\C,0,40.933,40.3
 69,31.206\C,0,40.942,40.205,29.726\C,0,42.27,40.161,31.884\C,0,38.746,
 41.614,32.036\C,0,38.709,41.064,33.466\C,0,37.953,41.904,34.485\O,0,36

 Normal termination of Gaussian 16 at Fri Apr 29 10:30:01 2022.
