 Gaussian 16, Revision A.03,
 Gaussian 16:  ES64L-G16RevA.03 25-Dec-2016

 ------------------------------
 #p blyp/Def2SVP td=(nstates=5)
 ------------------------------

 ---------------------------------------------------
 step_1101_chromophore_11 TDDFT with blyp functional
 ---------------------------------------------------
 Symbolic Z-matrix:
 Charge =  0 Multiplicity = 1

                         Standard orientation:
 ---------------------------------------------------------------------
 Center     Atomic      Atomic             Coordinates (Angstroms)
 Number     Number       Type             X           Y           Z
 ---------------------------------------------------------------------
      1         12           0       -4.911846    1.230959    0.576540
      2          6           0       -5.425941   -2.173396    0.274955
      3          6           0       -2.329392    0.600657    2.778588
      4          6           0       -3.959293    4.483687    0.291593
      5          6           0       -7.444104    1.651208   -1.886013
      6          7           0       -3.870064   -0.580838    1.224835
      7          6           0       -4.334997   -1.869039    1.045545
      8          6           0       -3.569533   -2.766485    2.083686
      9          6           0       -2.900855   -1.787157    3.059626
     10          6           0       -2.981320   -0.473262    2.289020
     11          6           0       -3.511796   -1.710922    4.538881
     12          6           0       -2.663305   -3.745196    1.356876
     13          6           0       -1.638880   -3.197447    0.286665
     14          6           0       -0.108222   -3.567402    0.510924
     15          8           0        0.481442   -3.375536    1.571610
     16          8           0        0.424847   -4.192672   -0.562805
     17          7           0       -3.384097    2.410188    1.498508
     18          6           0       -2.532557    1.925976    2.444895
     19          6           0       -1.756966    3.034171    2.844344
     20          6           0       -2.197851    4.227086    2.229846
     21          6           0       -3.222089    3.738572    1.304306
     22          6           0       -0.610237    2.917400    3.803066
     23          6           0       -1.584544    5.604432    2.417138
     24          8           0       -0.617993    5.886645    3.167212
     25          6           0       -2.134834    6.783127    1.608121
     26          7           0       -5.540812    2.802503   -0.662613
     27          6           0       -4.966168    4.034681   -0.649812
     28          6           0       -5.650552    4.974862   -1.692930
     29          6           0       -6.836568    4.145544   -2.185724
     30          6           0       -6.613905    2.744001   -1.576089
     31          6           0       -6.014524    6.426948   -1.103620
     32          6           0       -7.001776    4.204390   -3.729814
     33          6           0       -7.854567    5.330034   -4.274422
     34          7           0       -6.227109    0.026407   -0.565160
     35          6           0       -7.284805    0.311540   -1.437764
     36          6           0       -8.043517   -0.846485   -1.708800
     37          6           0       -7.315310   -1.887943   -1.078538
     38          6           0       -6.215882   -1.323470   -0.464898
     39          6           0       -9.216502   -0.907000   -2.639409
     40          6           0       -7.275526   -3.299837   -0.929009
     41          8           0       -7.956080   -4.239789   -1.372586
     42          6           0       -6.047239   -3.611986   -0.008791
     43          6           0       -5.147020   -4.515180   -0.871230
     44          8           0       -4.507331   -4.075334   -1.812970
     45          8           0       -5.239612   -5.828391   -0.418509
     46          6           0       -4.354923   -6.758196   -1.258130
     47          6           0        1.591192   -4.927077   -0.133240
     48          6           0        2.859582   -4.042132   -0.264053
     49          6           0        3.891829   -3.824960    0.584912
     50          6           0        4.200775   -4.542615    1.975382
     51          6           0        4.965276   -2.729746    0.345538
     52          6           0        5.439658   -2.558060   -1.142236
     53          6           0        6.838681   -1.880569   -1.173337
     54          6           0        6.827110   -0.234863   -1.128100
     55          6           0        7.194072    0.356647   -2.535250
     56          6           0        7.785550    0.392357   -0.138739
     57          6           0        9.393306    0.145535   -0.308641
     58          6           0       10.102951    1.390074    0.162072
     59          6           0       11.279989    1.091475    1.089067
     60          6           0       11.060834    1.688992    2.506594
     61          6           0       12.656098    1.524592    0.570546
     62          6           0       13.073112    0.936079   -0.810366
     63          6           0       14.551897    0.607737   -0.891011
     64          6           0       15.268936    1.242371   -2.098824
     65          6           0       15.598038    0.314721   -3.279985
     66          6           0       16.524428    1.931754   -1.664659
     67          1           0       -1.663308    0.336248    3.602700
     68          1           0       -3.754506    5.541228    0.111282
     69          1           0       -8.189554    1.776831   -2.675144
     70          1           0       -4.303624   -3.400043    2.581959
     71          1           0       -1.849259   -2.070129    3.105017
     72          1           0       -4.231913   -2.522634    4.642294
     73          1           0       -4.078079   -0.780759    4.579195
     74          1           0       -2.688035   -1.784568    5.248793
     75          1           0       -3.357666   -4.535335    1.071563
     76          1           0       -2.103950   -4.253046    2.142432
     77          1           0       -1.561750   -2.115772    0.396856
     78          1           0       -2.006958   -3.403539   -0.718109
     79          1           0       -0.658410    2.048754    4.458661
     80          1           0       -0.756599    3.705097    4.542369
     81          1           0        0.336088    2.927791    3.262064
     82          1           0       -1.643677    7.663902    2.021493
     83          1           0       -3.205823    6.718469    1.799169
     84          1           0       -1.943231    6.617552    0.548188
     85          1           0       -5.003366    5.209149   -2.538548
     86          1           0       -7.694851    4.559903   -1.655794
     87          1           0       -6.204399    6.288634   -0.038952
     88          1           0       -6.965494    6.717563   -1.550750
     89          1           0       -5.243790    7.127446   -1.426747
     90          1           0       -7.399259    3.223675   -3.991669
     91          1           0       -6.031482    4.224574   -4.224236
     92          1           0       -7.407141    5.879419   -5.102174
     93          1           0       -8.112478    6.078840   -3.525361
     94          1           0       -8.812091    4.955901   -4.636988
     95          1           0       -9.053050   -1.707841   -3.359839
     96          1           0       -9.205469    0.019977   -3.212330
     97          1           0      -10.222876   -0.934204   -2.221425
     98          1           0       -6.304674   -4.160559    0.897157
     99          1           0       -4.293445   -6.442569   -2.299290
    100          1           0       -4.890850   -7.691985   -1.083939
    101          1           0       -3.368115   -6.777865   -0.796022
    102          1           0        1.540509   -5.785424   -0.803357
    103          1           0        1.551424   -5.446866    0.823654
    104          1           0        2.698538   -3.274442   -1.020613
    105          1           0        4.162542   -3.887334    2.845969
    106          1           0        5.149680   -5.077680    1.953620
    107          1           0        3.451488   -5.321653    2.117207
    108          1           0        5.828545   -2.778956    1.008771
    109          1           0        4.540361   -1.744065    0.536476
    110          1           0        4.797021   -1.855473   -1.671732
    111          1           0        5.574095   -3.501963   -1.670039
    112          1           0        7.406117   -2.203696   -2.046474
    113          1           0        7.405964   -2.343139   -0.366128
    114          1           0        5.786999    0.054715   -0.980915
    115          1           0        6.215725    0.528083   -2.985959
    116          1           0        7.822628   -0.317971   -3.116086
    117          1           0        7.740170    1.300162   -2.563733
    118          1           0        7.624342   -0.292778    0.693119
    119          1           0        7.503178    1.419898    0.092637
    120          1           0        9.651285   -0.056889   -1.348052
    121          1           0        9.700532   -0.700719    0.306303
    122          1           0        9.390627    2.003731    0.712353
    123          1           0       10.355813    1.967946   -0.727545
    124          1           0       11.370358    0.005868    1.095964
    125          1           0       10.296741    2.465983    2.522973
    126          1           0       11.994746    2.064162    2.926391
    127          1           0       10.757652    0.858275    3.144041
    128          1           0       13.317779    1.259410    1.395669
    129          1           0       12.647548    2.613343    0.626599
    130          1           0       12.840012    1.755231   -1.490216
    131          1           0       12.503371    0.170057   -1.336798
    132          1           0       14.629187   -0.478217   -0.935405
    133          1           0       14.968383    0.817227    0.094709
    134          1           0       14.629810    2.050670   -2.453078
    135          1           0       15.693194    0.848336   -4.225478
    136          1           0       14.695183   -0.283160   -3.408309
    137          1           0       16.392914   -0.365873   -2.976819
    138          1           0       17.338791    1.648724   -2.330988
    139          1           0       16.751406    1.569675   -0.662076
    140          1           0       16.416101    3.014658   -1.726110
 ---------------------------------------------------------------------

 SCF Done:  E(RB-LYP) =  -3007.36964781     A.U. after   22 cycles

 Excitation energies and oscillator strengths:

 Excited State   1:      Singlet-A      1.5917 eV  778.97 nm  f=0.0004  <S**2>=0.000
     244 -> 247        0.70432
 This state for optimization and/or second-order correction.
 Total Energy, E(TD-HF/TD-DFT) =  -3007.31115574
 Copying the excited state density for this state as the 1-particle RhoCI density.

 Excited State   2:      Singlet-A      1.6749 eV  740.26 nm  f=0.0063  <S**2>=0.000
     243 -> 247        0.69692
     246 -> 247        0.11017

 Excited State   3:      Singlet-A      1.8211 eV  680.83 nm  f=0.3085  <S**2>=0.000
     243 -> 247       -0.10722
     245 -> 248       -0.17932
     246 -> 247        0.68264
     246 <- 247       -0.15163

 Excited State   4:      Singlet-A      2.0206 eV  613.60 nm  f=0.0866  <S**2>=0.000
     240 -> 247        0.10995
     245 -> 247        0.64520
     246 -> 248        0.22263

 Excited State   5:      Singlet-A      2.0696 eV  599.08 nm  f=0.0001  <S**2>=0.000
     242 -> 247        0.70696

 The electronic state is 1-A.
 Alpha  occ. eigenvalues --  -46.27434 -18.83053 -18.82562 -18.77181 -18.77169
 Alpha  occ. eigenvalues --  -18.75321 -18.75226 -14.03912 -14.03557 -14.01339
 Alpha  occ. eigenvalues --  -14.00662 -10.04496 -10.04072  -9.99920  -9.99228
 Alpha  occ. eigenvalues --   -9.98149  -9.98027  -9.97720  -9.97301  -9.97061
 Alpha  occ. eigenvalues --   -9.96690  -9.96307  -9.95464  -9.95208  -9.94351
 Alpha  occ. eigenvalues --   -9.94275  -9.94002  -9.93981  -9.93973  -9.93820
 Alpha  occ. eigenvalues --   -9.93701  -9.93683  -9.93637  -9.93572  -9.93514
 Alpha  occ. eigenvalues --   -9.93490  -9.93268  -9.93190  -9.93167  -9.93155
 Alpha  occ. eigenvalues --   -9.93035  -9.92772  -9.92723  -9.92565  -9.92263
 Alpha  occ. eigenvalues --   -9.92154  -9.92116  -9.91910  -9.91900  -9.91714
 Alpha  occ. eigenvalues --   -9.91527  -9.91255  -9.91225  -9.91067  -9.91021
 Alpha  occ. eigenvalues --   -9.91003  -9.90891  -9.90808  -9.90807  -9.90777
 Alpha  occ. eigenvalues --   -9.90669  -9.90527  -9.90436  -9.90249  -9.90023
 Alpha  occ. eigenvalues --   -9.89727  -2.92004  -1.72424  -1.71866  -1.71735
 Alpha  occ. eigenvalues --   -0.99420  -0.96585  -0.90293  -0.90040  -0.89690
 Alpha  occ. eigenvalues --   -0.89596  -0.86735  -0.86249  -0.85285  -0.84777
 Alpha  occ. eigenvalues --   -0.75391  -0.73045  -0.72865  -0.72453  -0.72360
 Alpha  occ. eigenvalues --   -0.72137  -0.71612  -0.70872  -0.70477  -0.70325
 Alpha  occ. eigenvalues --   -0.69750  -0.68536  -0.67752  -0.67453  -0.66899
 Alpha  occ. eigenvalues --   -0.66209  -0.65790  -0.65177  -0.64856  -0.64577
 Alpha  occ. eigenvalues --   -0.63895  -0.62607  -0.62081  -0.61592  -0.60618
 Alpha  occ. eigenvalues --   -0.60062  -0.59845  -0.59651  -0.59013  -0.58744
 Alpha  occ. eigenvalues --   -0.58535  -0.57914  -0.57301  -0.56119  -0.55126
 Alpha  occ. eigenvalues --   -0.54161  -0.53475  -0.52774  -0.52441  -0.51664
 Alpha  occ. eigenvalues --   -0.51453  -0.51174  -0.50738  -0.50634  -0.49691
 Alpha  occ. eigenvalues --   -0.49124  -0.48903  -0.48014  -0.47752  -0.46569
 Alpha  occ. eigenvalues --   -0.46527  -0.46239  -0.45604  -0.45327  -0.44584
 Alpha  occ. eigenvalues --   -0.43809  -0.43433  -0.43249  -0.42615  -0.41973
 Alpha  occ. eigenvalues --   -0.41811  -0.41457  -0.41368  -0.41169  -0.40915
 Alpha  occ. eigenvalues --   -0.40718  -0.40272  -0.40210  -0.39984  -0.39899
 Alpha  occ. eigenvalues --   -0.39759  -0.39509  -0.39435  -0.39337  -0.39031
 Alpha  occ. eigenvalues --   -0.38923  -0.38799  -0.38559  -0.38366  -0.38158
 Alpha  occ. eigenvalues --   -0.37793  -0.37525  -0.37450  -0.37229  -0.37039
 Alpha  occ. eigenvalues --   -0.36895  -0.36832  -0.36712  -0.36350  -0.36236
 Alpha  occ. eigenvalues --   -0.35972  -0.35784  -0.35549  -0.35445  -0.35356
 Alpha  occ. eigenvalues --   -0.35337  -0.35170  -0.34939  -0.34826  -0.34700
 Alpha  occ. eigenvalues --   -0.34564  -0.34387  -0.34328  -0.33924  -0.33801
 Alpha  occ. eigenvalues --   -0.33633  -0.33526  -0.33306  -0.33165  -0.33107
 Alpha  occ. eigenvalues --   -0.33044  -0.32599  -0.32534  -0.32490  -0.32238
 Alpha  occ. eigenvalues --   -0.32200  -0.32088  -0.31705  -0.31548  -0.31343
 Alpha  occ. eigenvalues --   -0.31235  -0.31106  -0.30909  -0.30785  -0.30616
 Alpha  occ. eigenvalues --   -0.30408  -0.30188  -0.30128  -0.29995  -0.29825
 Alpha  occ. eigenvalues --   -0.29699  -0.29560  -0.29416  -0.29143  -0.29026
 Alpha  occ. eigenvalues --   -0.28873  -0.28470  -0.28297  -0.27643  -0.27443
 Alpha  occ. eigenvalues --   -0.27287  -0.26892  -0.26863  -0.26440  -0.26214
 Alpha  occ. eigenvalues --   -0.26093  -0.25806  -0.25701  -0.25624  -0.25462
 Alpha  occ. eigenvalues --   -0.25078  -0.24793  -0.24524  -0.23749  -0.23402
 Alpha  occ. eigenvalues --   -0.22999  -0.22610  -0.22501  -0.21967  -0.20820
 Alpha  occ. eigenvalues --   -0.20487  -0.19945  -0.18400  -0.18122  -0.17938
 Alpha  occ. eigenvalues --   -0.16599
 Alpha virt. eigenvalues --   -0.12340  -0.07277  -0.06262  -0.04903  -0.03403
 Alpha virt. eigenvalues --   -0.03021  -0.02498  -0.02093  -0.01701  -0.00025
 Alpha virt. eigenvalues --    0.01295   0.01799   0.02386   0.02967   0.03054

 Mulliken charges:
               1
     1  Mg   0.680894
     2  C    0.021969
     3  C   -0.056266
     4  C   -0.046790
     5  C   -0.076909
     6  N   -0.243081
     7  C   -0.071718
     8  C    0.000735
     9  C    0.020608
    10  C   -0.004458
    11  C    0.140424
    12  C    0.104174
    13  C    0.145188
    14  C    0.059362
    15  O   -0.199541
    16  O   -0.228271
    17  N   -0.260721
    18  C    0.180893
    19  C   -0.177187
    20  C    0.054712
    21  C    0.113725
    22  C    0.204585
    23  C   -0.089980
    24  O   -0.189178
    25  C    0.130105
    26  N   -0.248962
    27  C    0.005406
    28  C   -0.018786
    29  C    0.044419
    30  C    0.046167
    31  C    0.118148
    32  C    0.106790
    33  C    0.077582
    34  N   -0.265000
    35  C    0.104557
    36  C   -0.155726
    37  C    0.127740
    38  C    0.097888
    39  C    0.176791
    40  C   -0.071143
    41  O   -0.155263
    42  C    0.055420
    43  C    0.128455
    44  O   -0.183152
    45  O   -0.292851
    46  C    0.203132
    47  C    0.298689
    48  C   -0.072386
    49  C   -0.102388
    50  C    0.117672
    51  C    0.111609
    52  C    0.065314
    53  C    0.063827
    54  C   -0.055213
    55  C    0.083100
    56  C    0.084595
    57  C    0.049357
    58  C    0.128626
    59  C   -0.102316
    60  C    0.124358
    61  C    0.071667
    62  C    0.070569
    63  C    0.122515
    64  C   -0.113579
    65  C    0.130381
    66  C    0.129618
    67  H   -0.056477
    68  H   -0.071891
    69  H   -0.054604
    70  H   -0.044026
    71  H   -0.023583
    72  H   -0.008881
    73  H   -0.001462
    74  H    0.012777
    75  H   -0.019275
    76  H   -0.027927
    77  H    0.010150
    78  H    0.003147
    79  H   -0.034831
    80  H    0.003989
    81  H    0.016969
    82  H   -0.001392
    83  H    0.008041
    84  H    0.022445
    85  H   -0.018060
    86  H   -0.025808
    87  H   -0.000243
    88  H   -0.013883
    89  H    0.008113
    90  H   -0.032407
    91  H   -0.027090
    92  H   -0.007878
    93  H   -0.016050
    94  H   -0.010257
    95  H    0.014657
    96  H   -0.037621
    97  H    0.009367
    98  H   -0.012827
    99  H    0.042234
   100  H    0.026384
   101  H    0.019505
   102  H   -0.018845
   103  H   -0.008624
   104  H   -0.028196
   105  H    0.015146
   106  H   -0.001712
   107  H   -0.030650
   108  H   -0.032143
   109  H   -0.011215
   110  H   -0.017160
   111  H   -0.022642
   112  H   -0.039966
   113  H   -0.039353
   114  H   -0.037238
   115  H   -0.020095
   116  H   -0.012421
   117  H   -0.018043
   118  H   -0.041688
   119  H   -0.011554
   120  H   -0.023820
   121  H   -0.024041
   122  H   -0.038680
   123  H   -0.034759
   124  H   -0.038283
   125  H   -0.009483
   126  H   -0.025032
   127  H   -0.019261
   128  H   -0.030955
   129  H   -0.034981
   130  H   -0.037924
   131  H   -0.030243
   132  H   -0.046420
   133  H   -0.033423
   134  H   -0.041143
   135  H   -0.008540
   136  H   -0.035514
   137  H   -0.008947
   138  H   -0.034662
   139  H   -0.022935
   140  H   -0.016754
 Sum of Mulliken charges =  -0.00000

 Dipole moment (field-independent basis, Debye):
    X=             -1.3254    Y=              0.7069    Z=             -0.2729  Tot=              1.5268
 Quadrupole moment (field-independent basis, Debye-Ang):
   XX=           -405.1168   YY=           -396.9282   ZZ=           -404.3403
   XY=            -47.5463   XZ=             -6.2073   YZ=            -31.4133

 Normal termination of Gaussian 16 at Wed Apr 27 06:32:07 2022.
