 Gaussian 16, Revision A.03,
 Gaussian 16:  ES64L-G16RevA.03 25-Dec-2016

 -----------------------------------
 #p cam-b3lyp/Def2SVP td=(nstates=5)
 -----------------------------------

 --------------------------------------------------------
 step_1101_chromophore_11 TDDFT with cam-b3lyp functional
 --------------------------------------------------------
 Symbolic Z-matrix:
 Charge =  0 Multiplicity = 1

                         Standard orientation:
 ---------------------------------------------------------------------
 Center     Atomic      Atomic             Coordinates (Angstroms)
 Number     Number       Type             X           Y           Z
 ---------------------------------------------------------------------
      1         12           0       -4.911846    1.230959    0.576540
      2          6           0       -5.425941   -2.173396    0.274955
      3          6           0       -2.329392    0.600657    2.778588
      4          6           0       -3.959293    4.483687    0.291593
      5          6           0       -7.444104    1.651208   -1.886013
      6          7           0       -3.870064   -0.580838    1.224835
      7          6           0       -4.334997   -1.869039    1.045545
      8          6           0       -3.569533   -2.766485    2.083686
      9          6           0       -2.900855   -1.787157    3.059626
     10          6           0       -2.981320   -0.473262    2.289020
     11          6           0       -3.511796   -1.710922    4.538881
     12          6           0       -2.663305   -3.745196    1.356876
     13          6           0       -1.638880   -3.197447    0.286665
     14          6           0       -0.108222   -3.567402    0.510924
     15          8           0        0.481442   -3.375536    1.571610
     16          8           0        0.424847   -4.192672   -0.562805
     17          7           0       -3.384097    2.410188    1.498508
     18          6           0       -2.532557    1.925976    2.444895
     19          6           0       -1.756966    3.034171    2.844344
     20          6           0       -2.197851    4.227086    2.229846
     21          6           0       -3.222089    3.738572    1.304306
     22          6           0       -0.610237    2.917400    3.803066
     23          6           0       -1.584544    5.604432    2.417138
     24          8           0       -0.617993    5.886645    3.167212
     25          6           0       -2.134834    6.783127    1.608121
     26          7           0       -5.540812    2.802503   -0.662613
     27          6           0       -4.966168    4.034681   -0.649812
     28          6           0       -5.650552    4.974862   -1.692930
     29          6           0       -6.836568    4.145544   -2.185724
     30          6           0       -6.613905    2.744001   -1.576089
     31          6           0       -6.014524    6.426948   -1.103620
     32          6           0       -7.001776    4.204390   -3.729814
     33          6           0       -7.854567    5.330034   -4.274422
     34          7           0       -6.227109    0.026407   -0.565160
     35          6           0       -7.284805    0.311540   -1.437764
     36          6           0       -8.043517   -0.846485   -1.708800
     37          6           0       -7.315310   -1.887943   -1.078538
     38          6           0       -6.215882   -1.323470   -0.464898
     39          6           0       -9.216502   -0.907000   -2.639409
     40          6           0       -7.275526   -3.299837   -0.929009
     41          8           0       -7.956080   -4.239789   -1.372586
     42          6           0       -6.047239   -3.611986   -0.008791
     43          6           0       -5.147020   -4.515180   -0.871230
     44          8           0       -4.507331   -4.075334   -1.812970
     45          8           0       -5.239612   -5.828391   -0.418509
     46          6           0       -4.354923   -6.758196   -1.258130
     47          6           0        1.591192   -4.927077   -0.133240
     48          6           0        2.859582   -4.042132   -0.264053
     49          6           0        3.891829   -3.824960    0.584912
     50          6           0        4.200775   -4.542615    1.975382
     51          6           0        4.965276   -2.729746    0.345538
     52          6           0        5.439658   -2.558060   -1.142236
     53          6           0        6.838681   -1.880569   -1.173337
     54          6           0        6.827110   -0.234863   -1.128100
     55          6           0        7.194072    0.356647   -2.535250
     56          6           0        7.785550    0.392357   -0.138739
     57          6           0        9.393306    0.145535   -0.308641
     58          6           0       10.102951    1.390074    0.162072
     59          6           0       11.279989    1.091475    1.089067
     60          6           0       11.060834    1.688992    2.506594
     61          6           0       12.656098    1.524592    0.570546
     62          6           0       13.073112    0.936079   -0.810366
     63          6           0       14.551897    0.607737   -0.891011
     64          6           0       15.268936    1.242371   -2.098824
     65          6           0       15.598038    0.314721   -3.279985
     66          6           0       16.524428    1.931754   -1.664659
     67          1           0       -1.663308    0.336248    3.602700
     68          1           0       -3.754506    5.541228    0.111282
     69          1           0       -8.189554    1.776831   -2.675144
     70          1           0       -4.303624   -3.400043    2.581959
     71          1           0       -1.849259   -2.070129    3.105017
     72          1           0       -4.231913   -2.522634    4.642294
     73          1           0       -4.078079   -0.780759    4.579195
     74          1           0       -2.688035   -1.784568    5.248793
     75          1           0       -3.357666   -4.535335    1.071563
     76          1           0       -2.103950   -4.253046    2.142432
     77          1           0       -1.561750   -2.115772    0.396856
     78          1           0       -2.006958   -3.403539   -0.718109
     79          1           0       -0.658410    2.048754    4.458661
     80          1           0       -0.756599    3.705097    4.542369
     81          1           0        0.336088    2.927791    3.262064
     82          1           0       -1.643677    7.663902    2.021493
     83          1           0       -3.205823    6.718469    1.799169
     84          1           0       -1.943231    6.617552    0.548188
     85          1           0       -5.003366    5.209149   -2.538548
     86          1           0       -7.694851    4.559903   -1.655794
     87          1           0       -6.204399    6.288634   -0.038952
     88          1           0       -6.965494    6.717563   -1.550750
     89          1           0       -5.243790    7.127446   -1.426747
     90          1           0       -7.399259    3.223675   -3.991669
     91          1           0       -6.031482    4.224574   -4.224236
     92          1           0       -7.407141    5.879419   -5.102174
     93          1           0       -8.112478    6.078840   -3.525361
     94          1           0       -8.812091    4.955901   -4.636988
     95          1           0       -9.053050   -1.707841   -3.359839
     96          1           0       -9.205469    0.019977   -3.212330
     97          1           0      -10.222876   -0.934204   -2.221425
     98          1           0       -6.304674   -4.160559    0.897157
     99          1           0       -4.293445   -6.442569   -2.299290
    100          1           0       -4.890850   -7.691985   -1.083939
    101          1           0       -3.368115   -6.777865   -0.796022
    102          1           0        1.540509   -5.785424   -0.803357
    103          1           0        1.551424   -5.446866    0.823654
    104          1           0        2.698538   -3.274442   -1.020613
    105          1           0        4.162542   -3.887334    2.845969
    106          1           0        5.149680   -5.077680    1.953620
    107          1           0        3.451488   -5.321653    2.117207
    108          1           0        5.828545   -2.778956    1.008771
    109          1           0        4.540361   -1.744065    0.536476
    110          1           0        4.797021   -1.855473   -1.671732
    111          1           0        5.574095   -3.501963   -1.670039
    112          1           0        7.406117   -2.203696   -2.046474
    113          1           0        7.405964   -2.343139   -0.366128
    114          1           0        5.786999    0.054715   -0.980915
    115          1           0        6.215725    0.528083   -2.985959
    116          1           0        7.822628   -0.317971   -3.116086
    117          1           0        7.740170    1.300162   -2.563733
    118          1           0        7.624342   -0.292778    0.693119
    119          1           0        7.503178    1.419898    0.092637
    120          1           0        9.651285   -0.056889   -1.348052
    121          1           0        9.700532   -0.700719    0.306303
    122          1           0        9.390627    2.003731    0.712353
    123          1           0       10.355813    1.967946   -0.727545
    124          1           0       11.370358    0.005868    1.095964
    125          1           0       10.296741    2.465983    2.522973
    126          1           0       11.994746    2.064162    2.926391
    127          1           0       10.757652    0.858275    3.144041
    128          1           0       13.317779    1.259410    1.395669
    129          1           0       12.647548    2.613343    0.626599
    130          1           0       12.840012    1.755231   -1.490216
    131          1           0       12.503371    0.170057   -1.336798
    132          1           0       14.629187   -0.478217   -0.935405
    133          1           0       14.968383    0.817227    0.094709
    134          1           0       14.629810    2.050670   -2.453078
    135          1           0       15.693194    0.848336   -4.225478
    136          1           0       14.695183   -0.283160   -3.408309
    137          1           0       16.392914   -0.365873   -2.976819
    138          1           0       17.338791    1.648724   -2.330988
    139          1           0       16.751406    1.569675   -0.662076
    140          1           0       16.416101    3.014658   -1.726110
 ---------------------------------------------------------------------

 SCF Done:  E(RCAM-B3LYP) =  -3007.15546053     A.U. after   17 cycles

 Excitation energies and oscillator strengths:

 Excited State   1:      Singlet-A      1.7157 eV  722.64 nm  f=0.3960  <S**2>=0.000
     245 -> 248        0.16922
     246 -> 247        0.68852
     245 <- 248        0.10447
 This state for optimization and/or second-order correction.
 Total Energy, E(TD-HF/TD-DFT) =  -3007.09240971
 Copying the excited state density for this state as the 1-particle RhoCI density.

 Excited State   2:      Singlet-A      2.2144 eV  559.90 nm  f=0.1409  <S**2>=0.000
     245 -> 247        0.65122
     246 -> 248       -0.25517

 Excited State   3:      Singlet-A      3.1687 eV  391.28 nm  f=0.0017  <S**2>=0.000
     240 -> 247       -0.13287
     242 -> 247        0.42200
     244 -> 247        0.52455

 Excited State   4:      Singlet-A      3.2782 eV  378.21 nm  f=0.0088  <S**2>=0.000
     242 -> 247        0.49286
     244 -> 247       -0.42801
     246 -> 248       -0.11539

 Excited State   5:      Singlet-A      3.3413 eV  371.06 nm  f=0.0005  <S**2>=0.000
     241 -> 247        0.58637
     241 -> 249        0.25146
     241 -> 251       -0.17905
     242 -> 249       -0.12590

 The electronic state is 1-A.
 Alpha  occ. eigenvalues --  -46.89039 -19.25893 -19.25445 -19.20193 -19.20063
 Alpha  occ. eigenvalues --  -19.18764 -19.18147 -14.42805 -14.42557 -14.40003
 Alpha  occ. eigenvalues --  -14.38896 -10.39734 -10.39499 -10.35419 -10.34348
 Alpha  occ. eigenvalues --  -10.32576 -10.32168 -10.32099 -10.31995 -10.31574
 Alpha  occ. eigenvalues --  -10.31036 -10.31031 -10.29891 -10.29305 -10.28414
 Alpha  occ. eigenvalues --  -10.28283 -10.28277 -10.28266 -10.28134 -10.27909
 Alpha  occ. eigenvalues --  -10.27875 -10.27857 -10.27845 -10.27715 -10.27589
 Alpha  occ. eigenvalues --  -10.27586 -10.27479 -10.27395 -10.27131 -10.27113
 Alpha  occ. eigenvalues --  -10.27069 -10.26994 -10.26720 -10.26042 -10.25975
 Alpha  occ. eigenvalues --  -10.25925 -10.25863 -10.25854 -10.25838 -10.25625
 Alpha  occ. eigenvalues --  -10.25300 -10.25200 -10.24983 -10.24798 -10.24758
 Alpha  occ. eigenvalues --  -10.24642 -10.24602 -10.24518 -10.24465 -10.24383
 Alpha  occ. eigenvalues --  -10.24325 -10.24145 -10.24068 -10.23853 -10.23658
 Alpha  occ. eigenvalues --  -10.23263  -3.17507  -1.92406  -1.91947  -1.91819
 Alpha  occ. eigenvalues --   -1.17833  -1.15042  -1.08151  -1.08133  -1.08120
 Alpha  occ. eigenvalues --   -1.07540  -1.04693  -1.03760  -1.02957  -1.02318
 Alpha  occ. eigenvalues --   -0.92369  -0.89890  -0.89609  -0.89256  -0.89118
 Alpha  occ. eigenvalues --   -0.88896  -0.88307  -0.87513  -0.86915  -0.86855
 Alpha  occ. eigenvalues --   -0.86564  -0.84926  -0.83999  -0.83546  -0.83113
 Alpha  occ. eigenvalues --   -0.82280  -0.81870  -0.81241  -0.80654  -0.80442
 Alpha  occ. eigenvalues --   -0.79690  -0.78238  -0.77629  -0.77321  -0.76013
 Alpha  occ. eigenvalues --   -0.75431  -0.75186  -0.74920  -0.74304  -0.74006
 Alpha  occ. eigenvalues --   -0.73594  -0.72934  -0.72251  -0.71000  -0.69716
 Alpha  occ. eigenvalues --   -0.68725  -0.68103  -0.67496  -0.66883  -0.65839
 Alpha  occ. eigenvalues --   -0.65739  -0.65211  -0.64749  -0.64642  -0.63523
 Alpha  occ. eigenvalues --   -0.63119  -0.62880  -0.61711  -0.61545  -0.60146
 Alpha  occ. eigenvalues --   -0.60080  -0.59837  -0.59206  -0.58677  -0.57996
 Alpha  occ. eigenvalues --   -0.57359  -0.56907  -0.56402  -0.55827  -0.55219
 Alpha  occ. eigenvalues --   -0.55107  -0.54461  -0.54204  -0.54138  -0.53660
 Alpha  occ. eigenvalues --   -0.53481  -0.53081  -0.53027  -0.52849  -0.52561
 Alpha  occ. eigenvalues --   -0.52460  -0.52331  -0.52140  -0.51968  -0.51833
 Alpha  occ. eigenvalues --   -0.51369  -0.51212  -0.51131  -0.50701  -0.50583
 Alpha  occ. eigenvalues --   -0.50355  -0.49722  -0.49579  -0.49457  -0.49378
 Alpha  occ. eigenvalues --   -0.49150  -0.49129  -0.48924  -0.48724  -0.48540
 Alpha  occ. eigenvalues --   -0.48235  -0.47934  -0.47654  -0.47609  -0.47504
 Alpha  occ. eigenvalues --   -0.47436  -0.47406  -0.47142  -0.46866  -0.46775
 Alpha  occ. eigenvalues --   -0.46610  -0.46269  -0.46045  -0.45901  -0.45571
 Alpha  occ. eigenvalues --   -0.45323  -0.45242  -0.45051  -0.44986  -0.44836
 Alpha  occ. eigenvalues --   -0.44760  -0.44349  -0.44138  -0.44078  -0.44054
 Alpha  occ. eigenvalues --   -0.44032  -0.43761  -0.43589  -0.43175  -0.42842
 Alpha  occ. eigenvalues --   -0.42792  -0.42679  -0.42448  -0.42237  -0.42046
 Alpha  occ. eigenvalues --   -0.41863  -0.41465  -0.41364  -0.41289  -0.41164
 Alpha  occ. eigenvalues --   -0.41045  -0.41030  -0.40641  -0.40265  -0.40138
 Alpha  occ. eigenvalues --   -0.40042  -0.39513  -0.39384  -0.38623  -0.38339
 Alpha  occ. eigenvalues --   -0.38196  -0.37799  -0.37727  -0.37537  -0.37223
 Alpha  occ. eigenvalues --   -0.37033  -0.37017  -0.36759  -0.36510  -0.36268
 Alpha  occ. eigenvalues --   -0.35747  -0.35383  -0.34570  -0.34373  -0.34304
 Alpha  occ. eigenvalues --   -0.34257  -0.33813  -0.33402  -0.31623  -0.30866
 Alpha  occ. eigenvalues --   -0.30364  -0.30234  -0.29647  -0.29563  -0.24755
 Alpha  occ. eigenvalues --   -0.22044
 Alpha virt. eigenvalues --   -0.09645  -0.02040   0.00171   0.01637   0.02080
 Alpha virt. eigenvalues --    0.04922   0.05372   0.05476   0.05647   0.06786
 Alpha virt. eigenvalues --    0.08114   0.08410   0.08936   0.09171   0.09289

 Mulliken charges:
               1
     1  Mg   0.812796
     2  C   -0.008414
     3  C   -0.068517
     4  C   -0.075783
     5  C   -0.078857
     6  N   -0.310239
     7  C   -0.035652
     8  C   -0.042651
     9  C   -0.043406
    10  C    0.012881
    11  C    0.084948
    12  C    0.053060
    13  C    0.076167
    14  C    0.141813
    15  O   -0.241990
    16  O   -0.290687
    17  N   -0.351057
    18  C    0.190848
    19  C   -0.177838
    20  C   -0.019586
    21  C    0.151401
    22  C    0.144774
    23  C   -0.007427
    24  O   -0.228194
    25  C    0.048711
    26  N   -0.324200
    27  C    0.037267
    28  C   -0.068258
    29  C   -0.017616
    30  C    0.066304
    31  C    0.059397
    32  C    0.047034
    33  C    0.016423
    34  N   -0.351106
    35  C    0.099598
    36  C   -0.149667
    37  C    0.041316
    38  C    0.135819
    39  C    0.128672
    40  C    0.023966
    41  O   -0.196540
    42  C   -0.006362
    43  C    0.209335
    44  O   -0.220332
    45  O   -0.357134
    46  C    0.166452
    47  C    0.263070
    48  C   -0.102390
    49  C   -0.121685
    50  C    0.062398
    51  C    0.057505
    52  C    0.010177
    53  C    0.013395
    54  C   -0.108901
    55  C    0.025560
    56  C    0.033127
    57  C   -0.000385
    58  C    0.070602
    59  C   -0.155077
    60  C    0.063475
    61  C    0.027048
    62  C    0.012702
    63  C    0.062364
    64  C   -0.172706
    65  C    0.069111
    66  C    0.067667
    67  H   -0.018234
    68  H   -0.035431
    69  H   -0.021676
    70  H   -0.006904
    71  H    0.014549
    72  H    0.016324
    73  H    0.022963
    74  H    0.035824
    75  H    0.006937
    76  H    0.005889
    77  H    0.038767
    78  H    0.038909
    79  H   -0.005888
    80  H    0.033838
    81  H    0.045939
    82  H    0.035337
    83  H    0.032933
    84  H    0.048826
    85  H    0.016309
    86  H    0.009174
    87  H    0.024958
    88  H    0.010258
    89  H    0.031003
    90  H   -0.002233
    91  H    0.002780
    92  H    0.016667
    93  H    0.004492
    94  H    0.014471
    95  H    0.039619
    96  H   -0.014587
    97  H    0.034484
    98  H    0.029814
    99  H    0.067350
   100  H    0.050273
   101  H    0.039134
   102  H    0.012379
   103  H    0.020668
   104  H    0.004535
   105  H    0.038679
   106  H    0.021970
   107  H   -0.007168
   108  H   -0.003821
   109  H    0.016691
   110  H    0.007206
   111  H    0.007345
   112  H   -0.010001
   113  H   -0.012166
   114  H   -0.005611
   115  H    0.003892
   116  H    0.009240
   117  H    0.006174
   118  H   -0.013999
   119  H    0.015738
   120  H    0.001426
   121  H    0.003258
   122  H   -0.009707
   123  H   -0.006185
   124  H   -0.007295
   125  H    0.014071
   126  H    0.000240
   127  H    0.005836
   128  H   -0.004355
   129  H   -0.006976
   130  H   -0.009650
   131  H   -0.002591
   132  H   -0.015647
   133  H   -0.003505
   134  H   -0.008305
   135  H    0.016707
   136  H   -0.011437
   137  H    0.014223
   138  H   -0.008064
   139  H    0.001019
   140  H    0.007795
 Sum of Mulliken charges =  -0.00000

 Dipole moment (field-independent basis, Debye):
    X=             -0.8910    Y=              1.3022    Z=              0.2120  Tot=              1.5920
 Quadrupole moment (field-independent basis, Debye-Ang):
   XX=           -409.6620   YY=           -391.6403   ZZ=           -402.9124
   XY=            -50.7343   XZ=             -7.1682   YZ=            -31.9980

 Normal termination of Gaussian 16 at Wed Apr 27 05:10:30 2022.
