 Gaussian 16, Revision A.03,
 Gaussian 16:  ES64L-G16RevA.03 25-Dec-2016

 ---------------------------------
 #p PBE1PBE/Def2SVP td=(nstates=5)
 ---------------------------------

 ------------------------------------------------------
 step_1101_chromophore_11 TDDFT with PBE1PBE functional
 ------------------------------------------------------
 Symbolic Z-matrix:
 Charge =  0 Multiplicity = 1

                         Standard orientation:
 ---------------------------------------------------------------------
 Center     Atomic      Atomic             Coordinates (Angstroms)
 Number     Number       Type             X           Y           Z
 ---------------------------------------------------------------------
      1         12           0       -4.911846    1.230959    0.576540
      2          6           0       -5.425941   -2.173396    0.274955
      3          6           0       -2.329392    0.600657    2.778588
      4          6           0       -3.959293    4.483687    0.291593
      5          6           0       -7.444104    1.651208   -1.886013
      6          7           0       -3.870064   -0.580838    1.224835
      7          6           0       -4.334997   -1.869039    1.045545
      8          6           0       -3.569533   -2.766485    2.083686
      9          6           0       -2.900855   -1.787157    3.059626
     10          6           0       -2.981320   -0.473262    2.289020
     11          6           0       -3.511796   -1.710922    4.538881
     12          6           0       -2.663305   -3.745196    1.356876
     13          6           0       -1.638880   -3.197447    0.286665
     14          6           0       -0.108222   -3.567402    0.510924
     15          8           0        0.481442   -3.375536    1.571610
     16          8           0        0.424847   -4.192672   -0.562805
     17          7           0       -3.384097    2.410188    1.498508
     18          6           0       -2.532557    1.925976    2.444895
     19          6           0       -1.756966    3.034171    2.844344
     20          6           0       -2.197851    4.227086    2.229846
     21          6           0       -3.222089    3.738572    1.304306
     22          6           0       -0.610237    2.917400    3.803066
     23          6           0       -1.584544    5.604432    2.417138
     24          8           0       -0.617993    5.886645    3.167212
     25          6           0       -2.134834    6.783127    1.608121
     26          7           0       -5.540812    2.802503   -0.662613
     27          6           0       -4.966168    4.034681   -0.649812
     28          6           0       -5.650552    4.974862   -1.692930
     29          6           0       -6.836568    4.145544   -2.185724
     30          6           0       -6.613905    2.744001   -1.576089
     31          6           0       -6.014524    6.426948   -1.103620
     32          6           0       -7.001776    4.204390   -3.729814
     33          6           0       -7.854567    5.330034   -4.274422
     34          7           0       -6.227109    0.026407   -0.565160
     35          6           0       -7.284805    0.311540   -1.437764
     36          6           0       -8.043517   -0.846485   -1.708800
     37          6           0       -7.315310   -1.887943   -1.078538
     38          6           0       -6.215882   -1.323470   -0.464898
     39          6           0       -9.216502   -0.907000   -2.639409
     40          6           0       -7.275526   -3.299837   -0.929009
     41          8           0       -7.956080   -4.239789   -1.372586
     42          6           0       -6.047239   -3.611986   -0.008791
     43          6           0       -5.147020   -4.515180   -0.871230
     44          8           0       -4.507331   -4.075334   -1.812970
     45          8           0       -5.239612   -5.828391   -0.418509
     46          6           0       -4.354923   -6.758196   -1.258130
     47          6           0        1.591192   -4.927077   -0.133240
     48          6           0        2.859582   -4.042132   -0.264053
     49          6           0        3.891829   -3.824960    0.584912
     50          6           0        4.200775   -4.542615    1.975382
     51          6           0        4.965276   -2.729746    0.345538
     52          6           0        5.439658   -2.558060   -1.142236
     53          6           0        6.838681   -1.880569   -1.173337
     54          6           0        6.827110   -0.234863   -1.128100
     55          6           0        7.194072    0.356647   -2.535250
     56          6           0        7.785550    0.392357   -0.138739
     57          6           0        9.393306    0.145535   -0.308641
     58          6           0       10.102951    1.390074    0.162072
     59          6           0       11.279989    1.091475    1.089067
     60          6           0       11.060834    1.688992    2.506594
     61          6           0       12.656098    1.524592    0.570546
     62          6           0       13.073112    0.936079   -0.810366
     63          6           0       14.551897    0.607737   -0.891011
     64          6           0       15.268936    1.242371   -2.098824
     65          6           0       15.598038    0.314721   -3.279985
     66          6           0       16.524428    1.931754   -1.664659
     67          1           0       -1.663308    0.336248    3.602700
     68          1           0       -3.754506    5.541228    0.111282
     69          1           0       -8.189554    1.776831   -2.675144
     70          1           0       -4.303624   -3.400043    2.581959
     71          1           0       -1.849259   -2.070129    3.105017
     72          1           0       -4.231913   -2.522634    4.642294
     73          1           0       -4.078079   -0.780759    4.579195
     74          1           0       -2.688035   -1.784568    5.248793
     75          1           0       -3.357666   -4.535335    1.071563
     76          1           0       -2.103950   -4.253046    2.142432
     77          1           0       -1.561750   -2.115772    0.396856
     78          1           0       -2.006958   -3.403539   -0.718109
     79          1           0       -0.658410    2.048754    4.458661
     80          1           0       -0.756599    3.705097    4.542369
     81          1           0        0.336088    2.927791    3.262064
     82          1           0       -1.643677    7.663902    2.021493
     83          1           0       -3.205823    6.718469    1.799169
     84          1           0       -1.943231    6.617552    0.548188
     85          1           0       -5.003366    5.209149   -2.538548
     86          1           0       -7.694851    4.559903   -1.655794
     87          1           0       -6.204399    6.288634   -0.038952
     88          1           0       -6.965494    6.717563   -1.550750
     89          1           0       -5.243790    7.127446   -1.426747
     90          1           0       -7.399259    3.223675   -3.991669
     91          1           0       -6.031482    4.224574   -4.224236
     92          1           0       -7.407141    5.879419   -5.102174
     93          1           0       -8.112478    6.078840   -3.525361
     94          1           0       -8.812091    4.955901   -4.636988
     95          1           0       -9.053050   -1.707841   -3.359839
     96          1           0       -9.205469    0.019977   -3.212330
     97          1           0      -10.222876   -0.934204   -2.221425
     98          1           0       -6.304674   -4.160559    0.897157
     99          1           0       -4.293445   -6.442569   -2.299290
    100          1           0       -4.890850   -7.691985   -1.083939
    101          1           0       -3.368115   -6.777865   -0.796022
    102          1           0        1.540509   -5.785424   -0.803357
    103          1           0        1.551424   -5.446866    0.823654
    104          1           0        2.698538   -3.274442   -1.020613
    105          1           0        4.162542   -3.887334    2.845969
    106          1           0        5.149680   -5.077680    1.953620
    107          1           0        3.451488   -5.321653    2.117207
    108          1           0        5.828545   -2.778956    1.008771
    109          1           0        4.540361   -1.744065    0.536476
    110          1           0        4.797021   -1.855473   -1.671732
    111          1           0        5.574095   -3.501963   -1.670039
    112          1           0        7.406117   -2.203696   -2.046474
    113          1           0        7.405964   -2.343139   -0.366128
    114          1           0        5.786999    0.054715   -0.980915
    115          1           0        6.215725    0.528083   -2.985959
    116          1           0        7.822628   -0.317971   -3.116086
    117          1           0        7.740170    1.300162   -2.563733
    118          1           0        7.624342   -0.292778    0.693119
    119          1           0        7.503178    1.419898    0.092637
    120          1           0        9.651285   -0.056889   -1.348052
    121          1           0        9.700532   -0.700719    0.306303
    122          1           0        9.390627    2.003731    0.712353
    123          1           0       10.355813    1.967946   -0.727545
    124          1           0       11.370358    0.005868    1.095964
    125          1           0       10.296741    2.465983    2.522973
    126          1           0       11.994746    2.064162    2.926391
    127          1           0       10.757652    0.858275    3.144041
    128          1           0       13.317779    1.259410    1.395669
    129          1           0       12.647548    2.613343    0.626599
    130          1           0       12.840012    1.755231   -1.490216
    131          1           0       12.503371    0.170057   -1.336798
    132          1           0       14.629187   -0.478217   -0.935405
    133          1           0       14.968383    0.817227    0.094709
    134          1           0       14.629810    2.050670   -2.453078
    135          1           0       15.693194    0.848336   -4.225478
    136          1           0       14.695183   -0.283160   -3.408309
    137          1           0       16.392914   -0.365873   -2.976819
    138          1           0       17.338791    1.648724   -2.330988
    139          1           0       16.751406    1.569675   -0.662076
    140          1           0       16.416101    3.014658   -1.726110
 ---------------------------------------------------------------------

 SCF Done:  E(RPBE1PBE) =  -3005.34333461     A.U. after   15 cycles

 Excitation energies and oscillator strengths:

 Excited State   1:      Singlet-A      1.8588 eV  667.03 nm  f=0.3806  <S**2>=0.000
     245 -> 248        0.16384
     246 -> 247        0.69517
     246 <- 247       -0.11090
 This state for optimization and/or second-order correction.
 Total Energy, E(TD-HF/TD-DFT) =  -3005.27502648
 Copying the excited state density for this state as the 1-particle RhoCI density.

 Excited State   2:      Singlet-A      2.2247 eV  557.30 nm  f=0.1274  <S**2>=0.000
     245 -> 247        0.65759
     246 -> 248       -0.23557

 Excited State   3:      Singlet-A      2.7447 eV  451.72 nm  f=0.0014  <S**2>=0.000
     243 -> 247        0.67763
     243 -> 249        0.10632

 Excited State   4:      Singlet-A      2.7496 eV  450.92 nm  f=0.0002  <S**2>=0.000
     241 -> 247       -0.26466
     242 -> 247        0.62158
     242 -> 249       -0.13381

 Excited State   5:      Singlet-A      2.8701 eV  431.99 nm  f=0.0044  <S**2>=0.000
     240 -> 247        0.18653
     241 -> 247        0.62159
     242 -> 247        0.25746

 The electronic state is 1-A.
 Alpha  occ. eigenvalues --  -46.92418 -19.26574 -19.26184 -19.20483 -19.20350
 Alpha  occ. eigenvalues --  -19.18843 -19.18597 -14.42374 -14.42043 -14.39522
 Alpha  occ. eigenvalues --  -14.38708 -10.36796 -10.36611 -10.32429 -10.31658
 Alpha  occ. eigenvalues --  -10.30147 -10.29581 -10.29527 -10.29393 -10.29373
 Alpha  occ. eigenvalues --  -10.28921 -10.28551 -10.27312 -10.27237 -10.26208
 Alpha  occ. eigenvalues --  -10.26120 -10.26032 -10.25940 -10.25742 -10.25738
 Alpha  occ. eigenvalues --  -10.25680 -10.25661 -10.25539 -10.25471 -10.25335
 Alpha  occ. eigenvalues --  -10.25242 -10.25081 -10.24891 -10.24760 -10.24619
 Alpha  occ. eigenvalues --  -10.24518 -10.24432 -10.24402 -10.23650 -10.23628
 Alpha  occ. eigenvalues --  -10.23398 -10.23317 -10.23234 -10.23181 -10.23170
 Alpha  occ. eigenvalues --  -10.22756 -10.22751 -10.22592 -10.22539 -10.22296
 Alpha  occ. eigenvalues --  -10.22284 -10.22280 -10.22096 -10.22023 -10.21861
 Alpha  occ. eigenvalues --  -10.21754 -10.21615 -10.21544 -10.21249 -10.21187
 Alpha  occ. eigenvalues --  -10.20620  -3.14468  -1.87307  -1.86826  -1.86702
 Alpha  occ. eigenvalues --   -1.12672  -1.09839  -1.03036  -1.02973  -1.02708
 Alpha  occ. eigenvalues --   -1.02436  -0.99178  -0.98548  -0.97524  -0.96960
 Alpha  occ. eigenvalues --   -0.86843  -0.83969  -0.83892  -0.83512  -0.83372
 Alpha  occ. eigenvalues --   -0.82989  -0.82414  -0.81805  -0.81319  -0.81015
 Alpha  occ. eigenvalues --   -0.80772  -0.79129  -0.78173  -0.77875  -0.77273
 Alpha  occ. eigenvalues --   -0.76471  -0.76107  -0.75436  -0.74959  -0.74696
 Alpha  occ. eigenvalues --   -0.73857  -0.72557  -0.71890  -0.71497  -0.70365
 Alpha  occ. eigenvalues --   -0.69746  -0.69265  -0.69079  -0.68421  -0.68149
 Alpha  occ. eigenvalues --   -0.68049  -0.67244  -0.66644  -0.65322  -0.64085
 Alpha  occ. eigenvalues --   -0.63291  -0.62289  -0.61841  -0.61051  -0.60345
 Alpha  occ. eigenvalues --   -0.59943  -0.59653  -0.59279  -0.59157  -0.58021
 Alpha  occ. eigenvalues --   -0.57266  -0.57015  -0.56350  -0.55777  -0.54668
 Alpha  occ. eigenvalues --   -0.54495  -0.54435  -0.53740  -0.53316  -0.52639
 Alpha  occ. eigenvalues --   -0.51807  -0.51317  -0.50979  -0.50349  -0.49784
 Alpha  occ. eigenvalues --   -0.49698  -0.48975  -0.48796  -0.48476  -0.48333
 Alpha  occ. eigenvalues --   -0.47971  -0.47723  -0.47487  -0.47323  -0.46996
 Alpha  occ. eigenvalues --   -0.46970  -0.46717  -0.46556  -0.46451  -0.46347
 Alpha  occ. eigenvalues --   -0.45911  -0.45784  -0.45689  -0.45279  -0.45189
 Alpha  occ. eigenvalues --   -0.44754  -0.44328  -0.44261  -0.44073  -0.43961
 Alpha  occ. eigenvalues --   -0.43814  -0.43701  -0.43506  -0.43390  -0.43198
 Alpha  occ. eigenvalues --   -0.42834  -0.42515  -0.42196  -0.42157  -0.42079
 Alpha  occ. eigenvalues --   -0.42045  -0.42014  -0.41706  -0.41636  -0.41357
 Alpha  occ. eigenvalues --   -0.41293  -0.41031  -0.40669  -0.40597  -0.40218
 Alpha  occ. eigenvalues --   -0.40039  -0.39916  -0.39857  -0.39699  -0.39605
 Alpha  occ. eigenvalues --   -0.39405  -0.39111  -0.38920  -0.38901  -0.38795
 Alpha  occ. eigenvalues --   -0.38705  -0.38449  -0.38264  -0.38002  -0.37694
 Alpha  occ. eigenvalues --   -0.37640  -0.37406  -0.37292  -0.36983  -0.36890
 Alpha  occ. eigenvalues --   -0.36798  -0.36370  -0.36165  -0.36089  -0.35965
 Alpha  occ. eigenvalues --   -0.35884  -0.35763  -0.35641  -0.35037  -0.34982
 Alpha  occ. eigenvalues --   -0.34864  -0.34358  -0.34191  -0.33394  -0.33326
 Alpha  occ. eigenvalues --   -0.32975  -0.32734  -0.32619  -0.32392  -0.32247
 Alpha  occ. eigenvalues --   -0.32020  -0.31824  -0.31791  -0.31406  -0.31119
 Alpha  occ. eigenvalues --   -0.30724  -0.30268  -0.29748  -0.29550  -0.29210
 Alpha  occ. eigenvalues --   -0.29128  -0.29056  -0.28302  -0.27270  -0.25975
 Alpha  occ. eigenvalues --   -0.25452  -0.25299  -0.25148  -0.24900  -0.21675
 Alpha  occ. eigenvalues --   -0.19624
 Alpha virt. eigenvalues --   -0.12052  -0.05599  -0.04024  -0.02365  -0.01126
 Alpha virt. eigenvalues --    0.00254   0.00670   0.00965   0.01166   0.02939
 Alpha virt. eigenvalues --    0.04329   0.04504   0.05181   0.05841   0.06058

 Mulliken charges:
               1
     1  Mg   0.956966
     2  C   -0.035840
     3  C   -0.053200
     4  C   -0.075723
     5  C   -0.072576
     6  N   -0.412098
     7  C    0.047550
     8  C   -0.116494
     9  C   -0.114499
    10  C    0.037290
    11  C    0.025924
    12  C    0.000003
    13  C   -0.002927
    14  C    0.207774
    15  O   -0.270461
    16  O   -0.321199
    17  N   -0.468694
    18  C    0.217888
    19  C   -0.209999
    20  C   -0.063890
    21  C    0.182102
    22  C    0.087810
    23  C    0.042517
    24  O   -0.264022
    25  C   -0.030506
    26  N   -0.430201
    27  C    0.080810
    28  C   -0.134112
    29  C   -0.102022
    30  C    0.107626
    31  C   -0.006629
    32  C   -0.017652
    33  C   -0.053556
    34  N   -0.469219
    35  C    0.116326
    36  C   -0.156873
    37  C   -0.015204
    38  C    0.197719
    39  C    0.077386
    40  C    0.113721
    41  O   -0.240018
    42  C   -0.103638
    43  C    0.291481
    44  O   -0.252396
    45  O   -0.385936
    46  C    0.110019
    47  C    0.216295
    48  C   -0.125289
    49  C   -0.154089
    50  C   -0.002019
    51  C    0.000399
    52  C   -0.061075
    53  C   -0.034530
    54  C   -0.191284
    55  C   -0.032232
    56  C   -0.030287
    57  C   -0.059009
    58  C    0.021087
    59  C   -0.242009
    60  C    0.002139
    61  C   -0.029211
    62  C   -0.047829
    63  C    0.008835
    64  C   -0.264798
    65  C    0.000069
    66  C    0.008257
    67  H    0.011385
    68  H   -0.000964
    69  H    0.009457
    70  H    0.030962
    71  H    0.051512
    72  H    0.043483
    73  H    0.051644
    74  H    0.061821
    75  H    0.045183
    76  H    0.039829
    77  H    0.075171
    78  H    0.071213
    79  H    0.020654
    80  H    0.060253
    81  H    0.072409
    82  H    0.062693
    83  H    0.059802
    84  H    0.074858
    85  H    0.053248
    86  H    0.048701
    87  H    0.053632
    88  H    0.039830
    89  H    0.057692
    90  H    0.031525
    91  H    0.035445
    92  H    0.044314
    93  H    0.032599
    94  H    0.042128
    95  H    0.067627
    96  H    0.015026
    97  H    0.062559
    98  H    0.065210
    99  H    0.087763
   100  H    0.071617
   101  H    0.061242
   102  H    0.040254
   103  H    0.047620
   104  H    0.035005
   105  H    0.065087
   106  H    0.049584
   107  H    0.021903
   108  H    0.025312
   109  H    0.051015
   110  H    0.040639
   111  H    0.040291
   112  H    0.021971
   113  H    0.019881
   114  H    0.031770
   115  H    0.032107
   116  H    0.034941
   117  H    0.034537
   118  H    0.023260
   119  H    0.046161
   120  H    0.033124
   121  H    0.033690
   122  H    0.023233
   123  H    0.026541
   124  H    0.031644
   125  H    0.040540
   126  H    0.027219
   127  H    0.034424
   128  H    0.028158
   129  H    0.026528
   130  H    0.022884
   131  H    0.028568
   132  H    0.018004
   133  H    0.027678
   134  H    0.030365
   135  H    0.044856
   136  H    0.018896
   137  H    0.042038
   138  H    0.020295
   139  H    0.028504
   140  H    0.035201
 Sum of Mulliken charges =  -0.00000

 Dipole moment (field-independent basis, Debye):
    X=             -1.2436    Y=              1.0880    Z=             -0.0640  Tot=              1.6536
 Quadrupole moment (field-independent basis, Debye-Ang):
   XX=           -402.6286   YY=           -388.9468   ZZ=           -399.6124
   XY=            -50.6461   XZ=             -4.9565   YZ=            -33.4663

 Normal termination of Gaussian 16 at Wed Apr 27 05:35:08 2022.
