 Gaussian 16, Revision A.03,
 Gaussian 16:  ES64L-G16RevA.03 25-Dec-2016

 --------------------------------
 #p wB97XD/Def2SVP td=(nstates=5)
 --------------------------------

 -----------------------------------------------------
 step_1101_chromophore_11 TDDFT with wB97XD functional
 -----------------------------------------------------
 Symbolic Z-matrix:
 Charge =  0 Multiplicity = 1

                         Standard orientation:
 ---------------------------------------------------------------------
 Center     Atomic      Atomic             Coordinates (Angstroms)
 Number     Number       Type             X           Y           Z
 ---------------------------------------------------------------------
      1         12           0       -4.911846    1.230959    0.576540
      2          6           0       -5.425941   -2.173396    0.274955
      3          6           0       -2.329392    0.600657    2.778588
      4          6           0       -3.959293    4.483687    0.291593
      5          6           0       -7.444104    1.651208   -1.886013
      6          7           0       -3.870064   -0.580838    1.224835
      7          6           0       -4.334997   -1.869039    1.045545
      8          6           0       -3.569533   -2.766485    2.083686
      9          6           0       -2.900855   -1.787157    3.059626
     10          6           0       -2.981320   -0.473262    2.289020
     11          6           0       -3.511796   -1.710922    4.538881
     12          6           0       -2.663305   -3.745196    1.356876
     13          6           0       -1.638880   -3.197447    0.286665
     14          6           0       -0.108222   -3.567402    0.510924
     15          8           0        0.481442   -3.375536    1.571610
     16          8           0        0.424847   -4.192672   -0.562805
     17          7           0       -3.384097    2.410188    1.498508
     18          6           0       -2.532557    1.925976    2.444895
     19          6           0       -1.756966    3.034171    2.844344
     20          6           0       -2.197851    4.227086    2.229846
     21          6           0       -3.222089    3.738572    1.304306
     22          6           0       -0.610237    2.917400    3.803066
     23          6           0       -1.584544    5.604432    2.417138
     24          8           0       -0.617993    5.886645    3.167212
     25          6           0       -2.134834    6.783127    1.608121
     26          7           0       -5.540812    2.802503   -0.662613
     27          6           0       -4.966168    4.034681   -0.649812
     28          6           0       -5.650552    4.974862   -1.692930
     29          6           0       -6.836568    4.145544   -2.185724
     30          6           0       -6.613905    2.744001   -1.576089
     31          6           0       -6.014524    6.426948   -1.103620
     32          6           0       -7.001776    4.204390   -3.729814
     33          6           0       -7.854567    5.330034   -4.274422
     34          7           0       -6.227109    0.026407   -0.565160
     35          6           0       -7.284805    0.311540   -1.437764
     36          6           0       -8.043517   -0.846485   -1.708800
     37          6           0       -7.315310   -1.887943   -1.078538
     38          6           0       -6.215882   -1.323470   -0.464898
     39          6           0       -9.216502   -0.907000   -2.639409
     40          6           0       -7.275526   -3.299837   -0.929009
     41          8           0       -7.956080   -4.239789   -1.372586
     42          6           0       -6.047239   -3.611986   -0.008791
     43          6           0       -5.147020   -4.515180   -0.871230
     44          8           0       -4.507331   -4.075334   -1.812970
     45          8           0       -5.239612   -5.828391   -0.418509
     46          6           0       -4.354923   -6.758196   -1.258130
     47          6           0        1.591192   -4.927077   -0.133240
     48          6           0        2.859582   -4.042132   -0.264053
     49          6           0        3.891829   -3.824960    0.584912
     50          6           0        4.200775   -4.542615    1.975382
     51          6           0        4.965276   -2.729746    0.345538
     52          6           0        5.439658   -2.558060   -1.142236
     53          6           0        6.838681   -1.880569   -1.173337
     54          6           0        6.827110   -0.234863   -1.128100
     55          6           0        7.194072    0.356647   -2.535250
     56          6           0        7.785550    0.392357   -0.138739
     57          6           0        9.393306    0.145535   -0.308641
     58          6           0       10.102951    1.390074    0.162072
     59          6           0       11.279989    1.091475    1.089067
     60          6           0       11.060834    1.688992    2.506594
     61          6           0       12.656098    1.524592    0.570546
     62          6           0       13.073112    0.936079   -0.810366
     63          6           0       14.551897    0.607737   -0.891011
     64          6           0       15.268936    1.242371   -2.098824
     65          6           0       15.598038    0.314721   -3.279985
     66          6           0       16.524428    1.931754   -1.664659
     67          1           0       -1.663308    0.336248    3.602700
     68          1           0       -3.754506    5.541228    0.111282
     69          1           0       -8.189554    1.776831   -2.675144
     70          1           0       -4.303624   -3.400043    2.581959
     71          1           0       -1.849259   -2.070129    3.105017
     72          1           0       -4.231913   -2.522634    4.642294
     73          1           0       -4.078079   -0.780759    4.579195
     74          1           0       -2.688035   -1.784568    5.248793
     75          1           0       -3.357666   -4.535335    1.071563
     76          1           0       -2.103950   -4.253046    2.142432
     77          1           0       -1.561750   -2.115772    0.396856
     78          1           0       -2.006958   -3.403539   -0.718109
     79          1           0       -0.658410    2.048754    4.458661
     80          1           0       -0.756599    3.705097    4.542369
     81          1           0        0.336088    2.927791    3.262064
     82          1           0       -1.643677    7.663902    2.021493
     83          1           0       -3.205823    6.718469    1.799169
     84          1           0       -1.943231    6.617552    0.548188
     85          1           0       -5.003366    5.209149   -2.538548
     86          1           0       -7.694851    4.559903   -1.655794
     87          1           0       -6.204399    6.288634   -0.038952
     88          1           0       -6.965494    6.717563   -1.550750
     89          1           0       -5.243790    7.127446   -1.426747
     90          1           0       -7.399259    3.223675   -3.991669
     91          1           0       -6.031482    4.224574   -4.224236
     92          1           0       -7.407141    5.879419   -5.102174
     93          1           0       -8.112478    6.078840   -3.525361
     94          1           0       -8.812091    4.955901   -4.636988
     95          1           0       -9.053050   -1.707841   -3.359839
     96          1           0       -9.205469    0.019977   -3.212330
     97          1           0      -10.222876   -0.934204   -2.221425
     98          1           0       -6.304674   -4.160559    0.897157
     99          1           0       -4.293445   -6.442569   -2.299290
    100          1           0       -4.890850   -7.691985   -1.083939
    101          1           0       -3.368115   -6.777865   -0.796022
    102          1           0        1.540509   -5.785424   -0.803357
    103          1           0        1.551424   -5.446866    0.823654
    104          1           0        2.698538   -3.274442   -1.020613
    105          1           0        4.162542   -3.887334    2.845969
    106          1           0        5.149680   -5.077680    1.953620
    107          1           0        3.451488   -5.321653    2.117207
    108          1           0        5.828545   -2.778956    1.008771
    109          1           0        4.540361   -1.744065    0.536476
    110          1           0        4.797021   -1.855473   -1.671732
    111          1           0        5.574095   -3.501963   -1.670039
    112          1           0        7.406117   -2.203696   -2.046474
    113          1           0        7.405964   -2.343139   -0.366128
    114          1           0        5.786999    0.054715   -0.980915
    115          1           0        6.215725    0.528083   -2.985959
    116          1           0        7.822628   -0.317971   -3.116086
    117          1           0        7.740170    1.300162   -2.563733
    118          1           0        7.624342   -0.292778    0.693119
    119          1           0        7.503178    1.419898    0.092637
    120          1           0        9.651285   -0.056889   -1.348052
    121          1           0        9.700532   -0.700719    0.306303
    122          1           0        9.390627    2.003731    0.712353
    123          1           0       10.355813    1.967946   -0.727545
    124          1           0       11.370358    0.005868    1.095964
    125          1           0       10.296741    2.465983    2.522973
    126          1           0       11.994746    2.064162    2.926391
    127          1           0       10.757652    0.858275    3.144041
    128          1           0       13.317779    1.259410    1.395669
    129          1           0       12.647548    2.613343    0.626599
    130          1           0       12.840012    1.755231   -1.490216
    131          1           0       12.503371    0.170057   -1.336798
    132          1           0       14.629187   -0.478217   -0.935405
    133          1           0       14.968383    0.817227    0.094709
    134          1           0       14.629810    2.050670   -2.453078
    135          1           0       15.693194    0.848336   -4.225478
    136          1           0       14.695183   -0.283160   -3.408309
    137          1           0       16.392914   -0.365873   -2.976819
    138          1           0       17.338791    1.648724   -2.330988
    139          1           0       16.751406    1.569675   -0.662076
    140          1           0       16.416101    3.014658   -1.726110
 ---------------------------------------------------------------------

 SCF Done:  E(RwB97XD) =  -3007.85325795     A.U. after   17 cycles

 Excitation energies and oscillator strengths:

 Excited State   1:      Singlet-A      1.6660 eV  744.20 nm  f=0.3959  <S**2>=0.000
     245 -> 248       -0.17356
     246 -> 247        0.68649
     245 <- 248       -0.11263
 This state for optimization and/or second-order correction.
 Total Energy, E(TD-HF/TD-DFT) =  -3007.79203355
 Copying the excited state density for this state as the 1-particle RhoCI density.

 Excited State   2:      Singlet-A      2.1607 eV  573.81 nm  f=0.1362  <S**2>=0.000
     245 -> 247        0.64861
     246 -> 248        0.25808

 Excited State   3:      Singlet-A      3.1927 eV  388.34 nm  f=0.0019  <S**2>=0.000
     240 -> 247       -0.24452
     241 -> 247        0.38485
     242 -> 247       -0.18428
     243 -> 247        0.47640

 Excited State   4:      Singlet-A      3.3109 eV  374.47 nm  f=0.0064  <S**2>=0.000
     241 -> 247       -0.41048
     241 -> 249        0.13660
     242 -> 247        0.17488
     243 -> 247        0.45434
     246 -> 248        0.13362

 Excited State   5:      Singlet-A      3.3996 eV  364.70 nm  f=0.0003  <S**2>=0.000
     240 -> 247        0.14617
     240 -> 249       -0.10849
     241 -> 247        0.24303
     241 -> 250       -0.12799
     242 -> 247        0.49291
     242 -> 249        0.30036
     242 -> 250       -0.17711

 The electronic state is 1-A.
 Alpha  occ. eigenvalues --  -46.95400 -19.31130 -19.30659 -19.25104 -19.24996
 Alpha  occ. eigenvalues --  -19.23848 -19.23171 -14.47410 -14.47193 -14.44636
 Alpha  occ. eigenvalues --  -14.43486 -10.43555 -10.43353 -10.39451 -10.38328
 Alpha  occ. eigenvalues --  -10.36665 -10.36137 -10.36055 -10.35846 -10.35575
 Alpha  occ. eigenvalues --  -10.35105 -10.35036 -10.33980 -10.33250 -10.32458
 Alpha  occ. eigenvalues --  -10.32399 -10.32331 -10.32321 -10.32185 -10.32007
 Alpha  occ. eigenvalues --  -10.31906 -10.31890 -10.31879 -10.31751 -10.31656
 Alpha  occ. eigenvalues --  -10.31558 -10.31512 -10.31488 -10.31124 -10.31103
 Alpha  occ. eigenvalues --  -10.31040 -10.30892 -10.30650 -10.29917 -10.29887
 Alpha  occ. eigenvalues --  -10.29865 -10.29792 -10.29695 -10.29674 -10.29567
 Alpha  occ. eigenvalues --  -10.29263 -10.29130 -10.28942 -10.28765 -10.28688
 Alpha  occ. eigenvalues --  -10.28574 -10.28564 -10.28465 -10.28403 -10.28244
 Alpha  occ. eigenvalues --  -10.28196 -10.27980 -10.27978 -10.27687 -10.27573
 Alpha  occ. eigenvalues --  -10.27049  -3.21309  -1.94896  -1.94416  -1.94291
 Alpha  occ. eigenvalues --   -1.20030  -1.17175  -1.10408  -1.10323  -1.10307
 Alpha  occ. eigenvalues --   -1.09725  -1.06786  -1.05764  -1.04954  -1.04341
 Alpha  occ. eigenvalues --   -0.94325  -0.91640  -0.91520  -0.91157  -0.91005
 Alpha  occ. eigenvalues --   -0.90675  -0.90087  -0.89454  -0.88813  -0.88707
 Alpha  occ. eigenvalues --   -0.88528  -0.86824  -0.85862  -0.85425  -0.84978
 Alpha  occ. eigenvalues --   -0.84136  -0.83789  -0.83162  -0.82584  -0.82334
 Alpha  occ. eigenvalues --   -0.81524  -0.80175  -0.79523  -0.79267  -0.77950
 Alpha  occ. eigenvalues --   -0.77389  -0.76966  -0.76773  -0.76118  -0.75830
 Alpha  occ. eigenvalues --   -0.75553  -0.74864  -0.74219  -0.72947  -0.71614
 Alpha  occ. eigenvalues --   -0.70719  -0.69958  -0.69550  -0.68715  -0.67808
 Alpha  occ. eigenvalues --   -0.67610  -0.67148  -0.66719  -0.66656  -0.65488
 Alpha  occ. eigenvalues --   -0.64926  -0.64690  -0.63708  -0.63405  -0.62156
 Alpha  occ. eigenvalues --   -0.61980  -0.61837  -0.61190  -0.60660  -0.59985
 Alpha  occ. eigenvalues --   -0.59281  -0.58828  -0.58378  -0.57746  -0.57218
 Alpha  occ. eigenvalues --   -0.57092  -0.56353  -0.56170  -0.55975  -0.55587
 Alpha  occ. eigenvalues --   -0.55388  -0.55014  -0.54949  -0.54739  -0.54431
 Alpha  occ. eigenvalues --   -0.54426  -0.54264  -0.54045  -0.53854  -0.53737
 Alpha  occ. eigenvalues --   -0.53254  -0.53100  -0.53037  -0.52559  -0.52513
 Alpha  occ. eigenvalues --   -0.52327  -0.51627  -0.51478  -0.51338  -0.51302
 Alpha  occ. eigenvalues --   -0.51082  -0.51047  -0.50806  -0.50641  -0.50444
 Alpha  occ. eigenvalues --   -0.50177  -0.49831  -0.49655  -0.49556  -0.49424
 Alpha  occ. eigenvalues --   -0.49335  -0.49314  -0.49004  -0.48774  -0.48628
 Alpha  occ. eigenvalues --   -0.48536  -0.48184  -0.47873  -0.47796  -0.47449
 Alpha  occ. eigenvalues --   -0.47235  -0.47146  -0.46984  -0.46899  -0.46724
 Alpha  occ. eigenvalues --   -0.46619  -0.46281  -0.46057  -0.45988  -0.45959
 Alpha  occ. eigenvalues --   -0.45910  -0.45646  -0.45515  -0.45141  -0.44826
 Alpha  occ. eigenvalues --   -0.44703  -0.44573  -0.44387  -0.44109  -0.44004
 Alpha  occ. eigenvalues --   -0.43814  -0.43403  -0.43321  -0.43204  -0.43128
 Alpha  occ. eigenvalues --   -0.42942  -0.42884  -0.42549  -0.42120  -0.42011
 Alpha  occ. eigenvalues --   -0.41956  -0.41398  -0.41269  -0.40476  -0.40230
 Alpha  occ. eigenvalues --   -0.40035  -0.39772  -0.39656  -0.39447  -0.39283
 Alpha  occ. eigenvalues --   -0.39022  -0.38853  -0.38668  -0.38384  -0.38105
 Alpha  occ. eigenvalues --   -0.37623  -0.37218  -0.36530  -0.36420  -0.36224
 Alpha  occ. eigenvalues --   -0.36117  -0.35951  -0.35246  -0.33846  -0.32945
 Alpha  occ. eigenvalues --   -0.32390  -0.32279  -0.31684  -0.31658  -0.26689
 Alpha  occ. eigenvalues --   -0.23850
 Alpha virt. eigenvalues --   -0.07994  -0.00124   0.02242   0.04133   0.04747
 Alpha virt. eigenvalues --    0.07124   0.07560   0.07672   0.07940   0.09484
 Alpha virt. eigenvalues --    0.10690   0.11323   0.11847   0.12562   0.12782

 Mulliken charges:
               1
     1  Mg   0.948434
     2  C   -0.027541
     3  C   -0.074717
     4  C   -0.087635
     5  C   -0.085681
     6  N   -0.379069
     7  C    0.004674
     8  C   -0.085122
     9  C   -0.095367
    10  C    0.031037
    11  C    0.037389
    12  C    0.014830
    13  C    0.017358
    14  C    0.198372
    15  O   -0.269421
    16  O   -0.322206
    17  N   -0.435214
    18  C    0.210798
    19  C   -0.196481
    20  C   -0.061657
    21  C    0.179946
    22  C    0.097161
    23  C    0.038424
    24  O   -0.257652
    25  C   -0.012042
    26  N   -0.399046
    27  C    0.068105
    28  C   -0.115872
    29  C   -0.070493
    30  C    0.091851
    31  C    0.009772
    32  C   -0.000791
    33  C   -0.038483
    34  N   -0.434893
    35  C    0.108924
    36  C   -0.159731
    37  C   -0.009610
    38  C    0.175114
    39  C    0.089202
    40  C    0.096819
    41  O   -0.232801
    42  C   -0.068204
    43  C    0.267971
    44  O   -0.247472
    45  O   -0.386061
    46  C    0.126323
    47  C    0.238918
    48  C   -0.134076
    49  C   -0.146324
    50  C    0.014674
    51  C    0.016444
    52  C   -0.039622
    53  C   -0.021311
    54  C   -0.165724
    55  C   -0.021595
    56  C   -0.006443
    57  C   -0.044193
    58  C    0.034079
    59  C   -0.210199
    60  C    0.014694
    61  C   -0.008819
    62  C   -0.032565
    63  C    0.022418
    64  C   -0.234802
    65  C    0.014994
    66  C    0.019460
    67  H    0.006583
    68  H   -0.015228
    69  H    0.000313
    70  H    0.020141
    71  H    0.041577
    72  H    0.038642
    73  H    0.044065
    74  H    0.057598
    75  H    0.030648
    76  H    0.031539
    77  H    0.062335
    78  H    0.067242
    79  H    0.016828
    80  H    0.056583
    81  H    0.070624
    82  H    0.062230
    83  H    0.051774
    84  H    0.069932
    85  H    0.042911
    86  H    0.035873
    87  H    0.046370
    88  H    0.031839
    89  H    0.053071
    90  H    0.022200
    91  H    0.027788
    92  H    0.039121
    93  H    0.023585
    94  H    0.036970
    95  H    0.062430
    96  H    0.006812
    97  H    0.057453
    98  H    0.059994
    99  H    0.084116
   100  H    0.068598
   101  H    0.056600
   102  H    0.036677
   103  H    0.039927
   104  H    0.030771
   105  H    0.060486
   106  H    0.043847
   107  H    0.014386
   108  H    0.016887
   109  H    0.041721
   110  H    0.029770
   111  H    0.032777
   112  H    0.013970
   113  H    0.008745
   114  H    0.020336
   115  H    0.026671
   116  H    0.028047
   117  H    0.027863
   118  H    0.009232
   119  H    0.038819
   120  H    0.023494
   121  H    0.024830
   122  H    0.009502
   123  H    0.018105
   124  H    0.016594
   125  H    0.035006
   126  H    0.021266
   127  H    0.028728
   128  H    0.016524
   129  H    0.017225
   130  H    0.011234
   131  H    0.020755
   132  H    0.010079
   133  H    0.016812
   134  H    0.017929
   135  H    0.040131
   136  H    0.010849
   137  H    0.035476
   138  H    0.013905
   139  H    0.021730
   140  H    0.030494
 Sum of Mulliken charges =  -0.00000

 Dipole moment (field-independent basis, Debye):
    X=             -0.7861    Y=              1.4194    Z=              0.3289  Tot=              1.6556
 Quadrupole moment (field-independent basis, Debye-Ang):
   XX=           -406.5360   YY=           -387.0411   ZZ=           -398.9941
   XY=            -51.2792   XZ=             -6.8901   YZ=            -32.4097

 Normal termination of Gaussian 16 at Wed Apr 27 06:11:52 2022.
