 Gaussian 16, Revision A.03,
 Gaussian 16:  ES64L-G16RevA.03 25-Dec-2016

 --------------------
 #p ZINDO=(nstates=5)
 --------------------

 ------------------------------
 step_1101_chromophore_11 ZINDO
 ------------------------------
 Symbolic Z-matrix:
 Charge =  0 Multiplicity = 1

                         Standard orientation:
 ---------------------------------------------------------------------
 Center     Atomic      Atomic             Coordinates (Angstroms)
 Number     Number       Type             X           Y           Z
 ---------------------------------------------------------------------
      1         12           0       -4.911846    1.230959    0.576540
      2          6           0       -5.425941   -2.173396    0.274955
      3          6           0       -2.329392    0.600657    2.778588
      4          6           0       -3.959293    4.483687    0.291593
      5          6           0       -7.444104    1.651208   -1.886013
      6          7           0       -3.870064   -0.580838    1.224835
      7          6           0       -4.334997   -1.869039    1.045545
      8          6           0       -3.569533   -2.766485    2.083686
      9          6           0       -2.900855   -1.787157    3.059626
     10          6           0       -2.981320   -0.473262    2.289020
     11          6           0       -3.511796   -1.710922    4.538881
     12          6           0       -2.663305   -3.745196    1.356876
     13          6           0       -1.638880   -3.197447    0.286665
     14          6           0       -0.108222   -3.567402    0.510924
     15          8           0        0.481442   -3.375536    1.571610
     16          8           0        0.424847   -4.192672   -0.562805
     17          7           0       -3.384097    2.410188    1.498508
     18          6           0       -2.532557    1.925976    2.444895
     19          6           0       -1.756966    3.034171    2.844344
     20          6           0       -2.197851    4.227086    2.229846
     21          6           0       -3.222089    3.738572    1.304306
     22          6           0       -0.610237    2.917400    3.803066
     23          6           0       -1.584544    5.604432    2.417138
     24          8           0       -0.617993    5.886645    3.167212
     25          6           0       -2.134834    6.783127    1.608121
     26          7           0       -5.540812    2.802503   -0.662613
     27          6           0       -4.966168    4.034681   -0.649812
     28          6           0       -5.650552    4.974862   -1.692930
     29          6           0       -6.836568    4.145544   -2.185724
     30          6           0       -6.613905    2.744001   -1.576089
     31          6           0       -6.014524    6.426948   -1.103620
     32          6           0       -7.001776    4.204390   -3.729814
     33          6           0       -7.854567    5.330034   -4.274422
     34          7           0       -6.227109    0.026407   -0.565160
     35          6           0       -7.284805    0.311540   -1.437764
     36          6           0       -8.043517   -0.846485   -1.708800
     37          6           0       -7.315310   -1.887943   -1.078538
     38          6           0       -6.215882   -1.323470   -0.464898
     39          6           0       -9.216502   -0.907000   -2.639409
     40          6           0       -7.275526   -3.299837   -0.929009
     41          8           0       -7.956080   -4.239789   -1.372586
     42          6           0       -6.047239   -3.611986   -0.008791
     43          6           0       -5.147020   -4.515180   -0.871230
     44          8           0       -4.507331   -4.075334   -1.812970
     45          8           0       -5.239612   -5.828391   -0.418509
     46          6           0       -4.354923   -6.758196   -1.258130
     47          6           0        1.591192   -4.927077   -0.133240
     48          6           0        2.859582   -4.042132   -0.264053
     49          6           0        3.891829   -3.824960    0.584912
     50          6           0        4.200775   -4.542615    1.975382
     51          6           0        4.965276   -2.729746    0.345538
     52          6           0        5.439658   -2.558060   -1.142236
     53          6           0        6.838681   -1.880569   -1.173337
     54          6           0        6.827110   -0.234863   -1.128100
     55          6           0        7.194072    0.356647   -2.535250
     56          6           0        7.785550    0.392357   -0.138739
     57          6           0        9.393306    0.145535   -0.308641
     58          6           0       10.102951    1.390074    0.162072
     59          6           0       11.279989    1.091475    1.089067
     60          6           0       11.060834    1.688992    2.506594
     61          6           0       12.656098    1.524592    0.570546
     62          6           0       13.073112    0.936079   -0.810366
     63          6           0       14.551897    0.607737   -0.891011
     64          6           0       15.268936    1.242371   -2.098824
     65          6           0       15.598038    0.314721   -3.279985
     66          6           0       16.524428    1.931754   -1.664659
     67          1           0       -1.663308    0.336248    3.602700
     68          1           0       -3.754506    5.541228    0.111282
     69          1           0       -8.189554    1.776831   -2.675144
     70          1           0       -4.303624   -3.400043    2.581959
     71          1           0       -1.849259   -2.070129    3.105017
     72          1           0       -4.231913   -2.522634    4.642294
     73          1           0       -4.078079   -0.780759    4.579195
     74          1           0       -2.688035   -1.784568    5.248793
     75          1           0       -3.357666   -4.535335    1.071563
     76          1           0       -2.103950   -4.253046    2.142432
     77          1           0       -1.561750   -2.115772    0.396856
     78          1           0       -2.006958   -3.403539   -0.718109
     79          1           0       -0.658410    2.048754    4.458661
     80          1           0       -0.756599    3.705097    4.542369
     81          1           0        0.336088    2.927791    3.262064
     82          1           0       -1.643677    7.663902    2.021493
     83          1           0       -3.205823    6.718469    1.799169
     84          1           0       -1.943231    6.617552    0.548188
     85          1           0       -5.003366    5.209149   -2.538548
     86          1           0       -7.694851    4.559903   -1.655794
     87          1           0       -6.204399    6.288634   -0.038952
     88          1           0       -6.965494    6.717563   -1.550750
     89          1           0       -5.243790    7.127446   -1.426747
     90          1           0       -7.399259    3.223675   -3.991669
     91          1           0       -6.031482    4.224574   -4.224236
     92          1           0       -7.407141    5.879419   -5.102174
     93          1           0       -8.112478    6.078840   -3.525361
     94          1           0       -8.812091    4.955901   -4.636988
     95          1           0       -9.053050   -1.707841   -3.359839
     96          1           0       -9.205469    0.019977   -3.212330
     97          1           0      -10.222876   -0.934204   -2.221425
     98          1           0       -6.304674   -4.160559    0.897157
     99          1           0       -4.293445   -6.442569   -2.299290
    100          1           0       -4.890850   -7.691985   -1.083939
    101          1           0       -3.368115   -6.777865   -0.796022
    102          1           0        1.540509   -5.785424   -0.803357
    103          1           0        1.551424   -5.446866    0.823654
    104          1           0        2.698538   -3.274442   -1.020613
    105          1           0        4.162542   -3.887334    2.845969
    106          1           0        5.149680   -5.077680    1.953620
    107          1           0        3.451488   -5.321653    2.117207
    108          1           0        5.828545   -2.778956    1.008771
    109          1           0        4.540361   -1.744065    0.536476
    110          1           0        4.797021   -1.855473   -1.671732
    111          1           0        5.574095   -3.501963   -1.670039
    112          1           0        7.406117   -2.203696   -2.046474
    113          1           0        7.405964   -2.343139   -0.366128
    114          1           0        5.786999    0.054715   -0.980915
    115          1           0        6.215725    0.528083   -2.985959
    116          1           0        7.822628   -0.317971   -3.116086
    117          1           0        7.740170    1.300162   -2.563733
    118          1           0        7.624342   -0.292778    0.693119
    119          1           0        7.503178    1.419898    0.092637
    120          1           0        9.651285   -0.056889   -1.348052
    121          1           0        9.700532   -0.700719    0.306303
    122          1           0        9.390627    2.003731    0.712353
    123          1           0       10.355813    1.967946   -0.727545
    124          1           0       11.370358    0.005868    1.095964
    125          1           0       10.296741    2.465983    2.522973
    126          1           0       11.994746    2.064162    2.926391
    127          1           0       10.757652    0.858275    3.144041
    128          1           0       13.317779    1.259410    1.395669
    129          1           0       12.647548    2.613343    0.626599
    130          1           0       12.840012    1.755231   -1.490216
    131          1           0       12.503371    0.170057   -1.336798
    132          1           0       14.629187   -0.478217   -0.935405
    133          1           0       14.968383    0.817227    0.094709
    134          1           0       14.629810    2.050670   -2.453078
    135          1           0       15.693194    0.848336   -4.225478
    136          1           0       14.695183   -0.283160   -3.408309
    137          1           0       16.392914   -0.365873   -2.976819
    138          1           0       17.338791    1.648724   -2.330988
    139          1           0       16.751406    1.569675   -0.662076
    140          1           0       16.416101    3.014658   -1.726110
 ---------------------------------------------------------------------

 SCF Done:  E(RZINDO/S) =  -474.051607730     A.U. after   19 cycles

 Excitation energies and oscillator strengths:

 Excited State   1:      Singlet-A      1.2883 eV  962.41 nm  f=0.6070  <S**2>=0.000
     175 ->178        -0.16843
     176 ->177         0.66996
 This state for optimization and/or second-order correction.
 Total Energy, E(CIS/TDA) =  -474.004264591
 Copying the excited state density for this state as the 1-particle RhoCI density.

 Excited State   2:      Singlet-A      1.9435 eV  637.94 nm  f=0.0843  <S**2>=0.000
     175 ->177         0.57157
     176 ->178         0.37921

 Excited State   3:      Singlet-A      2.9113 eV  425.87 nm  f=0.0005  <S**2>=0.000
     168 ->177         0.29656
     168 ->178         0.18564
     168 ->179        -0.38056
     168 ->180         0.31132
     168 ->184        -0.10922
     168 ->185        -0.20855
     171 ->177         0.13256

 Excited State   4:      Singlet-A      2.9753 eV  416.71 nm  f=0.0005  <S**2>=0.000
     170 ->177         0.33428
     170 ->179         0.36854
     170 ->180         0.35911
     170 ->185         0.15726
     170 ->187         0.15558
     170 ->188        -0.14423
     170 ->202        -0.10848

 Excited State   5:      Singlet-A      3.0729 eV  403.47 nm  f=0.9988  <S**2>=0.000
     171 ->177         0.17182
     175 ->177        -0.34235
     176 ->178         0.53813
     176 ->179         0.13865
     176 ->180         0.10139

 The electronic state is 1-A.
 Alpha  occ. eigenvalues --   -1.84342  -1.83096  -1.79191  -1.75320  -1.71880
 Alpha  occ. eigenvalues --   -1.69604  -1.65291  -1.59958  -1.57596  -1.56804
 Alpha  occ. eigenvalues --   -1.55772  -1.49391  -1.47868  -1.47541  -1.46804
 Alpha  occ. eigenvalues --   -1.43720  -1.42678  -1.39615  -1.39123  -1.37441
 Alpha  occ. eigenvalues --   -1.35346  -1.33233  -1.32658  -1.31364  -1.27869
 Alpha  occ. eigenvalues --   -1.27334  -1.26918  -1.22874  -1.20627  -1.18698
 Alpha  occ. eigenvalues --   -1.16082  -1.15089  -1.14382  -1.13147  -1.13061
 Alpha  occ. eigenvalues --   -1.11634  -1.10682  -1.09905  -1.04388  -1.03169
 Alpha  occ. eigenvalues --   -1.02005  -1.01436  -0.99364  -0.97792  -0.97240
 Alpha  occ. eigenvalues --   -0.95777  -0.95364  -0.93686  -0.93396  -0.92432
 Alpha  occ. eigenvalues --   -0.91110  -0.90220  -0.89382  -0.87979  -0.85841
 Alpha  occ. eigenvalues --   -0.84994  -0.84115  -0.83847  -0.81210  -0.80278
 Alpha  occ. eigenvalues --   -0.79302  -0.78770  -0.77916  -0.76586  -0.76277
 Alpha  occ. eigenvalues --   -0.75858  -0.74326  -0.74122  -0.73577  -0.73069
 Alpha  occ. eigenvalues --   -0.72807  -0.72744  -0.71321  -0.71042  -0.70267
 Alpha  occ. eigenvalues --   -0.70140  -0.69473  -0.69126  -0.68760  -0.67916
 Alpha  occ. eigenvalues --   -0.67188  -0.66682  -0.66319  -0.66121  -0.65368
 Alpha  occ. eigenvalues --   -0.64944  -0.64515  -0.64061  -0.63596  -0.63380
 Alpha  occ. eigenvalues --   -0.63104  -0.62613  -0.62403  -0.62359  -0.62208
 Alpha  occ. eigenvalues --   -0.61735  -0.61315  -0.60217  -0.59949  -0.59857
 Alpha  occ. eigenvalues --   -0.59143  -0.58923  -0.58553  -0.58435  -0.57863
 Alpha  occ. eigenvalues --   -0.57630  -0.57421  -0.56850  -0.56756  -0.56450
 Alpha  occ. eigenvalues --   -0.56424  -0.55865  -0.55805  -0.55461  -0.55085
 Alpha  occ. eigenvalues --   -0.55001  -0.54534  -0.53171  -0.53024  -0.52516
 Alpha  occ. eigenvalues --   -0.52470  -0.52293  -0.52159  -0.51661  -0.51601
 Alpha  occ. eigenvalues --   -0.51421  -0.51296  -0.51098  -0.50127  -0.49926
 Alpha  occ. eigenvalues --   -0.49816  -0.49661  -0.49502  -0.49232  -0.49162
 Alpha  occ. eigenvalues --   -0.49089  -0.48542  -0.48040  -0.48026  -0.47433
 Alpha  occ. eigenvalues --   -0.47099  -0.46708  -0.46558  -0.46317  -0.46247
 Alpha  occ. eigenvalues --   -0.46065  -0.45855  -0.45198  -0.45185  -0.45137
 Alpha  occ. eigenvalues --   -0.44864  -0.44453  -0.44253  -0.44112  -0.43852
 Alpha  occ. eigenvalues --   -0.43583  -0.42870  -0.42437  -0.42245  -0.41786
 Alpha  occ. eigenvalues --   -0.41598  -0.41565  -0.40819  -0.39587  -0.38867
 Alpha  occ. eigenvalues --   -0.38140  -0.37247  -0.36083  -0.35445  -0.34340
 Alpha  occ. eigenvalues --   -0.34062  -0.32965  -0.32437  -0.32001  -0.27336
 Alpha  occ. eigenvalues --   -0.22573
 Alpha virt. eigenvalues --   -0.09261  -0.02325  -0.00774   0.00956   0.01574
 Alpha virt. eigenvalues --    0.01854   0.02531   0.02958   0.04392   0.04478
 Alpha virt. eigenvalues --    0.06198   0.06420   0.07344   0.07919   0.08045

 Mulliken charges:
               1
     1  Mg   0.423596
     2  C   -0.023320
     3  C   -0.055267
     4  C   -0.110530
     5  C   -0.057720
     6  N   -0.292411
     7  C    0.099104
     8  C    0.009175
     9  C   -0.005402
    10  C    0.161142
    11  C   -0.050477
    12  C   -0.018709
    13  C    0.004161
    14  C    0.470739
    15  O   -0.530472
    16  O   -0.247471
    17  N   -0.327073
    18  C    0.134130
    19  C    0.065994
    20  C   -0.053634
    21  C    0.156429
    22  C   -0.043946
    23  C    0.322121
    24  O   -0.530383
    25  C   -0.032685
    26  N   -0.268384
    27  C    0.161059
    28  C   -0.005039
    29  C    0.005273
    30  C    0.085332
    31  C   -0.061310
    32  C   -0.025001
    33  C   -0.053665
    34  N   -0.341979
    35  C    0.077835
    36  C    0.015284
    37  C   -0.048730
    38  C    0.124617
    39  C   -0.039438
    40  C    0.333367
    41  O   -0.542355
    42  C    0.038277
    43  C    0.487124
    44  O   -0.523971
    45  O   -0.274011
    46  C    0.070198
    47  C    0.111359
    48  C   -0.078167
    49  C    0.004444
    50  C   -0.047020
    51  C   -0.025977
    52  C   -0.034920
    53  C   -0.049294
    54  C   -0.013811
    55  C   -0.064165
    56  C   -0.044184
    57  C   -0.036715
    58  C   -0.031735
    59  C   -0.016091
    60  C   -0.059161
    61  C   -0.030886
    62  C   -0.041598
    63  C   -0.031099
    64  C   -0.009106
    65  C   -0.054285
    66  C   -0.058859
    67  H    0.035010
    68  H    0.030834
    69  H    0.030987
    70  H    0.018856
    71  H    0.034799
    72  H    0.024971
    73  H    0.027259
    74  H    0.033658
    75  H    0.029546
    76  H    0.016189
    77  H    0.042102
    78  H    0.051246
    79  H    0.016021
    80  H    0.039091
    81  H    0.049502
    82  H    0.047222
    83  H    0.034928
    84  H    0.043721
    85  H    0.033159
    86  H    0.031259
    87  H    0.029958
    88  H    0.018892
    89  H    0.029940
    90  H    0.020815
    91  H    0.021048
    92  H    0.019170
    93  H    0.016358
    94  H    0.017483
    95  H    0.035525
    96  H    0.011545
    97  H    0.037097
    98  H    0.052559
    99  H    0.063584
   100  H    0.038161
   101  H    0.038618
   102  H    0.023753
   103  H    0.048854
   104  H    0.031269
   105  H    0.037992
   106  H    0.025596
   107  H    0.013411
   108  H    0.027406
   109  H    0.025968
   110  H    0.026108
   111  H    0.023495
   112  H    0.013061
   113  H    0.015611
   114  H    0.024160
   115  H    0.011646
   116  H    0.020111
   117  H    0.017947
   118  H    0.005059
   119  H    0.033878
   120  H    0.022164
   121  H    0.024905
   122  H    0.016508
   123  H    0.017020
   124  H    0.018489
   125  H    0.025864
   126  H    0.017939
   127  H    0.013799
   128  H    0.013207
   129  H    0.018732
   130  H    0.006858
   131  H    0.029931
   132  H    0.009705
   133  H    0.021675
   134  H    0.016066
   135  H    0.028118
   136  H    0.002595
   137  H    0.028723
   138  H    0.012412
   139  H    0.020562
   140  H    0.017989
 Sum of Mulliken charges =  -0.00000

 Dipole moment (field-independent basis, Debye):
    X=             -0.2977    Y=              3.4201    Z=              2.3863  Tot=              4.1810
 N-N= 4.318857209586D+03 E-N= 0.000000000000D+00  KE=-9.312064450183D+03
 Leave Link  601 at Wed Apr 27 06:32:15 2022, MaxMem=  6710886400 cpu:               0.7 elap:               0.0
 (Enter /sw/apps/gaussian-16.0/g16/l9999.exe)
 1\1\GINC-BP1-COMPUTE142\SP\RZINDO CIS\STO-3G\C55H74Mg1N4O6\OF15641\27-
 Apr-2022\0\\#p ZINDO=(nstates=5)\\step_1101_chromophore_11 ZINDO\\0,1\
 Mg,0,52.584,23.846,45.057\C,0,49.909,25.957,44.48\C,0,50.75,21.235,43.
 74\C,0,55.429,21.985,44.95\C,0,54.38,26.713,46.156\N,0,50.665,23.705,4
 4.015\C,0,49.7,24.693,43.995\C,0,48.351,23.989,43.603\C,0,48.617,22.48
 3,43.744\C,0,50.141,22.437,43.788\C,0,47.909,21.736,44.972\C,0,47.881,
 24.484,42.246\C,0,48.874,24.427,41.019\C,0,48.374,23.634,39.734\O,0,47

 Normal termination of Gaussian 16 at Wed Apr 27 06:32:15 2022.
