 Gaussian 16, Revision A.03,
 Gaussian 16:  ES64L-G16RevA.03 25-Dec-2016

 ------------------------------
 #p blyp/Def2SVP td=(nstates=5)
 ------------------------------

 --------------------------------------------------
 step_601_chromophore_20 TDDFT with blyp functional
 --------------------------------------------------
 Symbolic Z-matrix:
 Charge =  0 Multiplicity = 1

                         Standard orientation:
 ---------------------------------------------------------------------
 Center     Atomic      Atomic             Coordinates (Angstroms)
 Number     Number       Type             X           Y           Z
 ---------------------------------------------------------------------
      1         12           0        4.148665    1.284459   -0.541650
      2          6           0        3.677511   -2.154085   -1.031572
      3          6           0        1.568100    1.784994   -2.883171
      4          6           0        4.086316    4.480120    0.295778
      5          6           0        6.357534    0.598972    1.954533
      6          7           0        2.685839   -0.072376   -1.853698
      7          6           0        2.794751   -1.443565   -1.880901
      8          6           0        1.781900   -1.988346   -2.838233
      9          6           0        1.332884   -0.736493   -3.665340
     10          6           0        1.876211    0.416934   -2.815753
     11          6           0        1.806139   -0.692826   -5.081485
     12          6           0        0.558258   -2.748631   -2.203771
     13          6           0        0.001693   -3.995613   -2.902779
     14          6           0       -1.441295   -4.429462   -2.751118
     15          8           0       -2.415208   -4.126594   -3.436048
     16          8           0       -1.513244   -5.220333   -1.688388
     17          7           0        2.974837    2.918905   -1.158418
     18          6           0        2.017910    2.900110   -2.120105
     19          6           0        1.466159    4.203388   -2.278976
     20          6           0        2.102053    5.112494   -1.409169
     21          6           0        3.124204    4.152964   -0.729194
     22          6           0        0.451205    4.506408   -3.342114
     23          6           0        1.779950    6.589927   -1.224159
     24          8           0        1.110452    7.235186   -2.001115
     25          6           0        2.458256    7.197503   -0.076122
     26          7           0        5.058990    2.374125    1.024227
     27          6           0        4.930044    3.716917    1.053921
     28          6           0        6.042500    4.328670    2.041114
     29          6           0        6.809173    3.049037    2.479563
     30          6           0        6.047836    1.931061    1.782199
     31          6           0        6.999266    5.454204    1.438231
     32          6           0        6.966885    2.960760    4.001728
     33          6           0        8.402373    2.751383    4.604808
     34          7           0        4.940198   -0.412716    0.344846
     35          6           0        5.858881   -0.567293    1.308297
     36          6           0        6.278503   -1.973192    1.389555
     37          6           0        5.338191   -2.629004    0.543537
     38          6           0        4.663406   -1.652717   -0.109121
     39          6           0        7.276500   -2.558610    2.279955
     40          6           0        4.971292   -3.943937    0.033319
     41          8           0        5.315783   -5.103144    0.174944
     42          6           0        3.786075   -3.633748   -0.938467
     43          6           0        2.664734   -4.478151   -0.314952
     44          8           0        1.978899   -4.198285    0.642923
     45          8           0        2.549885   -5.610314   -1.117157
     46          6           0        1.574481   -6.666189   -0.671771
     47          6           0       -2.855841   -5.707897   -1.413917
     48          6           0       -3.398893   -4.754780   -0.325387
     49          6           0       -3.637753   -4.947247    0.937881
     50          6           0       -3.304768   -6.231784    1.691213
     51          6           0       -4.195916   -3.824731    1.794634
     52          6           0       -5.617867   -3.407050    1.665620
     53          6           0       -6.325313   -3.310079    3.082955
     54          6           0       -5.947852   -1.900456    3.620711
     55          6           0       -5.549088   -1.977915    5.138647
     56          6           0       -7.166893   -0.952054    3.420779
     57          6           0       -6.730194    0.621570    3.118926
     58          6           0       -6.616732    0.905323    1.648480
     59          6           0       -7.917607    1.262247    1.042531
     60          6           0       -8.138275    0.612881   -0.291968
     61          6           0       -8.159026    2.758407    0.884321
     62          6           0       -9.609387    3.294871    1.095007
     63          6           0       -9.848900    4.500201    0.136607
     64          6           0      -10.668158    4.210603   -1.165630
     65          6           0      -10.172882    5.064610   -2.265749
     66          6           0      -12.202663    4.322345   -0.897878
     67          1           0        0.784517    1.922174   -3.630761
     68          1           0        4.162541    5.538033    0.558168
     69          1           0        7.066710    0.435560    2.768134
     70          1           0        2.205530   -2.633942   -3.607772
     71          1           0        0.253247   -0.592560   -3.707583
     72          1           0        2.007228   -1.590829   -5.664777
     73          1           0        2.685425   -0.050267   -5.126480
     74          1           0        1.106281   -0.166485   -5.730438
     75          1           0       -0.258161   -2.027815   -2.152652
     76          1           0        0.734103   -3.027725   -1.165273
     77          1           0        0.571266   -4.825859   -2.486062
     78          1           0        0.198385   -3.943979   -3.972972
     79          1           0       -0.303636    3.751499   -3.563083
     80          1           0        0.998717    4.904752   -4.196213
     81          1           0       -0.127754    5.398241   -3.101935
     82          1           0        3.540731    7.165626   -0.201737
     83          1           0        2.282360    6.474995    0.720739
     84          1           0        2.142913    8.219342    0.132005
     85          1           0        5.522416    4.710304    2.920148
     86          1           0        7.801917    2.967763    2.037766
     87          1           0        6.916149    6.327199    2.086301
     88          1           0        6.707532    5.738300    0.427564
     89          1           0        8.068361    5.246225    1.483301
     90          1           0        6.490591    2.065159    4.399179
     91          1           0        6.623895    3.866442    4.503594
     92          1           0        8.353137    2.928660    5.679690
     93          1           0        9.226520    3.383448    4.271633
     94          1           0        8.758724    1.735123    4.437230
     95          1           0        7.122906   -2.416380    3.349635
     96          1           0        8.237857   -2.088836    2.069734
     97          1           0        7.285598   -3.627720    2.065102
     98          1           0        4.019077   -4.073434   -1.908242
     99          1           0        0.938013   -6.860929   -1.534786
    100          1           0        0.879002   -6.312946    0.090367
    101          1           0        2.156181   -7.504784   -0.290043
    102          1           0       -2.658597   -6.694017   -0.992685
    103          1           0       -3.522408   -5.904008   -2.253628
    104          1           0       -3.633202   -3.772060   -0.735819
    105          1           0       -3.860743   -7.089378    1.312081
    106          1           0       -3.517796   -6.130899    2.755760
    107          1           0       -2.266075   -6.504038    1.504864
    108          1           0       -3.649650   -2.904727    1.587040
    109          1           0       -3.881221   -4.048809    2.813085
    110          1           0       -6.117264   -4.145485    1.038445
    111          1           0       -5.665126   -2.415827    1.215359
    112          1           0       -6.078648   -4.206408    3.652340
    113          1           0       -7.384139   -3.365952    2.831462
    114          1           0       -5.111123   -1.435372    3.100096
    115          1           0       -4.859225   -1.146699    5.284989
    116          1           0       -5.057937   -2.897073    5.456569
    117          1           0       -6.346508   -1.804320    5.860676
    118          1           0       -7.913675   -1.076419    4.204280
    119          1           0       -7.599880   -1.322873    2.491224
    120          1           0       -5.857142    0.851423    3.728918
    121          1           0       -7.532190    1.275896    3.461484
    122          1           0       -6.135096    0.020871    1.232362
    123          1           0       -5.896988    1.722725    1.586176
    124          1           0       -8.779288    0.873924    1.584823
    125          1           0       -7.886811    1.228593   -1.155418
    126          1           0       -9.146466    0.223210   -0.432910
    127          1           0       -7.507413   -0.275320   -0.300468
    128          1           0       -7.694523    3.239189    0.023419
    129          1           0       -7.623678    3.251224    1.695890
    130          1           0       -9.849094    3.737345    2.061907
    131          1           0      -10.315390    2.493805    0.877115
    132          1           0       -8.867486    4.886872   -0.138718
    133          1           0      -10.331250    5.247754    0.765975
    134          1           0      -10.546300    3.158473   -1.422132
    135          1           0      -10.975939    5.287717   -2.968771
    136          1           0       -9.465064    4.460978   -2.834448
    137          1           0       -9.735433    6.012927   -1.954550
    138          1           0      -12.561375    3.394508   -1.343980
    139          1           0      -12.557888    5.192661   -1.449039
    140          1           0      -12.461025    4.365740    0.160302
 ---------------------------------------------------------------------

 SCF Done:  E(RB-LYP) =  -3007.36975121     A.U. after   20 cycles

 Excitation energies and oscillator strengths:

 Excited State   1:      Singlet-A      1.8715 eV  662.50 nm  f=0.2820  <S**2>=0.000
     245 -> 248        0.19904
     246 -> 247        0.68322
     246 <- 247       -0.14246
 This state for optimization and/or second-order correction.
 Total Energy, E(TD-HF/TD-DFT) =  -3007.30097618
 Copying the excited state density for this state as the 1-particle RhoCI density.

 Excited State   2:      Singlet-A      2.0113 eV  616.44 nm  f=0.0744  <S**2>=0.000
     243 -> 247        0.37365
     245 -> 247        0.56341
     246 -> 248       -0.17007

 Excited State   3:      Singlet-A      2.0446 eV  606.41 nm  f=0.0018  <S**2>=0.000
     244 -> 247        0.70443

 Excited State   4:      Singlet-A      2.0989 eV  590.70 nm  f=0.0325  <S**2>=0.000
     243 -> 247        0.59698
     245 -> 247       -0.33897
     246 -> 248        0.13994

 Excited State   5:      Singlet-A      2.3893 eV  518.92 nm  f=0.0005  <S**2>=0.000
     242 -> 247        0.70667

 The electronic state is 1-A.
 Alpha  occ. eigenvalues --  -46.28710 -18.82687 -18.81855 -18.77137 -18.76352
 Alpha  occ. eigenvalues --  -18.76094 -18.75947 -14.03219 -14.03030 -14.02100
 Alpha  occ. eigenvalues --  -14.01163 -10.04150 -10.03612 -10.00068 -10.00031
 Alpha  occ. eigenvalues --   -9.97858  -9.97401  -9.97099  -9.96755  -9.96661
 Alpha  occ. eigenvalues --   -9.96375  -9.96234  -9.95673  -9.95634  -9.94823
 Alpha  occ. eigenvalues --   -9.94602  -9.94249  -9.93976  -9.93940  -9.93830
 Alpha  occ. eigenvalues --   -9.93786  -9.93389  -9.93305  -9.93290  -9.93154
 Alpha  occ. eigenvalues --   -9.93138  -9.92980  -9.92925  -9.92754  -9.92696
 Alpha  occ. eigenvalues --   -9.92358  -9.92323  -9.92299  -9.92291  -9.92255
 Alpha  occ. eigenvalues --   -9.92231  -9.91968  -9.91878  -9.91489  -9.91445
 Alpha  occ. eigenvalues --   -9.91382  -9.91286  -9.91206  -9.91167  -9.91132
 Alpha  occ. eigenvalues --   -9.90909  -9.90875  -9.90869  -9.90855  -9.90583
 Alpha  occ. eigenvalues --   -9.90541  -9.90525  -9.90398  -9.90358  -9.90190
 Alpha  occ. eigenvalues --   -9.89890  -2.93206  -1.73619  -1.73097  -1.72919
 Alpha  occ. eigenvalues --   -0.99610  -0.96773  -0.92350  -0.92143  -0.89814
 Alpha  occ. eigenvalues --   -0.89448  -0.87846  -0.87324  -0.86794  -0.85865
 Alpha  occ. eigenvalues --   -0.76091  -0.73921  -0.73554  -0.72842  -0.72719
 Alpha  occ. eigenvalues --   -0.72037  -0.71717  -0.71302  -0.71152  -0.70567
 Alpha  occ. eigenvalues --   -0.70097  -0.69682  -0.68227  -0.67565  -0.67346
 Alpha  occ. eigenvalues --   -0.66617  -0.66540  -0.65669  -0.65079  -0.64638
 Alpha  occ. eigenvalues --   -0.64125  -0.62623  -0.62304  -0.61514  -0.60696
 Alpha  occ. eigenvalues --   -0.60499  -0.60334  -0.60009  -0.59353  -0.58753
 Alpha  occ. eigenvalues --   -0.58207  -0.57932  -0.56936  -0.55724  -0.54990
 Alpha  occ. eigenvalues --   -0.54487  -0.53439  -0.53245  -0.52224  -0.51997
 Alpha  occ. eigenvalues --   -0.51637  -0.51390  -0.51226  -0.50650  -0.50087
 Alpha  occ. eigenvalues --   -0.49608  -0.48876  -0.48255  -0.48086  -0.46846
 Alpha  occ. eigenvalues --   -0.46621  -0.46208  -0.46103  -0.45409  -0.44912
 Alpha  occ. eigenvalues --   -0.44111  -0.43953  -0.43444  -0.42915  -0.42524
 Alpha  occ. eigenvalues --   -0.42087  -0.42022  -0.41595  -0.41356  -0.41008
 Alpha  occ. eigenvalues --   -0.40615  -0.40499  -0.40484  -0.40215  -0.40090
 Alpha  occ. eigenvalues --   -0.39990  -0.39694  -0.39543  -0.39520  -0.39385
 Alpha  occ. eigenvalues --   -0.38921  -0.38898  -0.38638  -0.38481  -0.38310
 Alpha  occ. eigenvalues --   -0.38016  -0.37851  -0.37659  -0.37563  -0.37354
 Alpha  occ. eigenvalues --   -0.37185  -0.36831  -0.36772  -0.36595  -0.36418
 Alpha  occ. eigenvalues --   -0.36282  -0.35946  -0.35811  -0.35753  -0.35599
 Alpha  occ. eigenvalues --   -0.35391  -0.35313  -0.35233  -0.35044  -0.34805
 Alpha  occ. eigenvalues --   -0.34733  -0.34488  -0.34374  -0.34077  -0.34013
 Alpha  occ. eigenvalues --   -0.33850  -0.33720  -0.33548  -0.33385  -0.32933
 Alpha  occ. eigenvalues --   -0.32812  -0.32759  -0.32550  -0.32463  -0.32376
 Alpha  occ. eigenvalues --   -0.32068  -0.32022  -0.31940  -0.31709  -0.31629
 Alpha  occ. eigenvalues --   -0.31431  -0.31248  -0.31126  -0.30969  -0.30495
 Alpha  occ. eigenvalues --   -0.30396  -0.30331  -0.30108  -0.30064  -0.29769
 Alpha  occ. eigenvalues --   -0.29490  -0.29324  -0.29286  -0.29049  -0.28829
 Alpha  occ. eigenvalues --   -0.28619  -0.28338  -0.28300  -0.27788  -0.27732
 Alpha  occ. eigenvalues --   -0.27224  -0.27057  -0.26881  -0.26843  -0.26713
 Alpha  occ. eigenvalues --   -0.26404  -0.26086  -0.25740  -0.25468  -0.25401
 Alpha  occ. eigenvalues --   -0.25156  -0.25021  -0.24219  -0.24065  -0.23803
 Alpha  occ. eigenvalues --   -0.23763  -0.22952  -0.21981  -0.21468  -0.21297
 Alpha  occ. eigenvalues --   -0.20995  -0.20457  -0.19183  -0.19107  -0.17399
 Alpha  occ. eigenvalues --   -0.16184
 Alpha virt. eigenvalues --   -0.11679  -0.07008  -0.06310  -0.04667  -0.03792
 Alpha virt. eigenvalues --   -0.02611  -0.02126  -0.01675  -0.01015   0.00073
 Alpha virt. eigenvalues --    0.01551   0.01609   0.02426   0.02692   0.03091

 Mulliken charges:
               1
     1  Mg   0.696893
     2  C    0.089337
     3  C   -0.067920
     4  C   -0.035479
     5  C   -0.088996
     6  N   -0.180327
     7  C   -0.080436
     8  C    0.069287
     9  C    0.021734
    10  C   -0.056643
    11  C    0.125902
    12  C    0.112860
    13  C    0.142242
    14  C    0.044579
    15  O   -0.204574
    16  O   -0.238524
    17  N   -0.221952
    18  C    0.174011
    19  C   -0.151806
    20  C   -0.010212
    21  C    0.088515
    22  C    0.190968
    23  C   -0.065505
    24  O   -0.142103
    25  C    0.142036
    26  N   -0.204885
    27  C   -0.016826
    28  C    0.031282
    29  C    0.066130
    30  C   -0.002377
    31  C    0.110787
    32  C    0.092185
    33  C    0.019159
    34  N   -0.237977
    35  C    0.101665
    36  C   -0.159133
    37  C    0.056021
    38  C    0.065507
    39  C    0.168431
    40  C   -0.050990
    41  O   -0.118864
    42  C    0.012022
    43  C    0.126845
    44  O   -0.158217
    45  O   -0.296331
    46  C    0.196256
    47  C    0.327247
    48  C   -0.100473
    49  C   -0.132422
    50  C    0.130773
    51  C    0.137599
    52  C    0.062159
    53  C    0.111969
    54  C   -0.073824
    55  C    0.101953
    56  C    0.078051
    57  C    0.047703
    58  C    0.163388
    59  C   -0.054769
    60  C    0.113393
    61  C    0.099607
    62  C    0.074303
    63  C    0.059347
    64  C   -0.105910
    65  C    0.134730
    66  C    0.114458
    67  H   -0.067372
    68  H   -0.089547
    69  H   -0.076252
    70  H   -0.037521
    71  H   -0.019610
    72  H   -0.001163
    73  H   -0.017457
    74  H   -0.018006
    75  H   -0.026884
    76  H   -0.001023
    77  H   -0.023177
    78  H   -0.019222
    79  H   -0.000019
    80  H   -0.000033
    81  H   -0.013376
    82  H    0.026889
    83  H    0.005458
    84  H   -0.007420
    85  H   -0.015898
    86  H   -0.018773
    87  H   -0.014774
    88  H    0.002435
    89  H   -0.004441
    90  H   -0.010186
    91  H   -0.012897
    92  H   -0.011033
    93  H   -0.012937
    94  H   -0.008655
    95  H    0.004463
    96  H   -0.007680
    97  H    0.009156
    98  H   -0.006027
    99  H    0.026520
   100  H    0.023061
   101  H    0.032709
   102  H   -0.041248
   103  H    0.015527
   104  H   -0.035090
   105  H   -0.004467
   106  H   -0.012958
   107  H    0.010220
   108  H   -0.029074
   109  H   -0.039819
   110  H   -0.035420
   111  H   -0.022024
   112  H   -0.030601
   113  H   -0.035238
   114  H   -0.021396
   115  H   -0.025033
   116  H   -0.016298
   117  H   -0.020693
   118  H   -0.024623
   119  H   -0.036093
   120  H   -0.032025
   121  H   -0.035917
   122  H   -0.047271
   123  H   -0.039807
   124  H   -0.037534
   125  H   -0.018306
   126  H   -0.023369
   127  H   -0.034457
   128  H   -0.027320
   129  H   -0.051220
   130  H   -0.028919
   131  H   -0.031393
   132  H   -0.035596
   133  H   -0.041607
   134  H   -0.037320
   135  H   -0.034782
   136  H   -0.018640
   137  H   -0.006923
   138  H   -0.016736
   139  H   -0.017696
   140  H   -0.011990
 Sum of Mulliken charges =  -0.00000

 Dipole moment (field-independent basis, Debye):
    X=              2.7489    Y=              0.8112    Z=              1.6854  Tot=              3.3250
 Quadrupole moment (field-independent basis, Debye-Ang):
   XX=           -382.1086   YY=           -418.4502   ZZ=           -399.8042
   XY=             38.1127   XZ=             -0.7678   YZ=             15.9189

 Normal termination of Gaussian 16 at Sat Apr 30 05:57:41 2022.
