 Gaussian 16, Revision A.03,
 Gaussian 16:  ES64L-G16RevA.03 25-Dec-2016

 -----------------------------------
 #p cam-b3lyp/Def2SVP td=(nstates=5)
 -----------------------------------

 -------------------------------------------------------
 step_601_chromophore_20 TDDFT with cam-b3lyp functional
 -------------------------------------------------------
 Symbolic Z-matrix:
 Charge =  0 Multiplicity = 1

                         Standard orientation:
 ---------------------------------------------------------------------
 Center     Atomic      Atomic             Coordinates (Angstroms)
 Number     Number       Type             X           Y           Z
 ---------------------------------------------------------------------
      1         12           0        4.148665    1.284459   -0.541650
      2          6           0        3.677511   -2.154085   -1.031572
      3          6           0        1.568100    1.784994   -2.883171
      4          6           0        4.086316    4.480120    0.295778
      5          6           0        6.357534    0.598972    1.954533
      6          7           0        2.685839   -0.072376   -1.853698
      7          6           0        2.794751   -1.443565   -1.880901
      8          6           0        1.781900   -1.988346   -2.838233
      9          6           0        1.332884   -0.736493   -3.665340
     10          6           0        1.876211    0.416934   -2.815753
     11          6           0        1.806139   -0.692826   -5.081485
     12          6           0        0.558258   -2.748631   -2.203771
     13          6           0        0.001693   -3.995613   -2.902779
     14          6           0       -1.441295   -4.429462   -2.751118
     15          8           0       -2.415208   -4.126594   -3.436048
     16          8           0       -1.513244   -5.220333   -1.688388
     17          7           0        2.974837    2.918905   -1.158418
     18          6           0        2.017910    2.900110   -2.120105
     19          6           0        1.466159    4.203388   -2.278976
     20          6           0        2.102053    5.112494   -1.409169
     21          6           0        3.124204    4.152964   -0.729194
     22          6           0        0.451205    4.506408   -3.342114
     23          6           0        1.779950    6.589927   -1.224159
     24          8           0        1.110452    7.235186   -2.001115
     25          6           0        2.458256    7.197503   -0.076122
     26          7           0        5.058990    2.374125    1.024227
     27          6           0        4.930044    3.716917    1.053921
     28          6           0        6.042500    4.328670    2.041114
     29          6           0        6.809173    3.049037    2.479563
     30          6           0        6.047836    1.931061    1.782199
     31          6           0        6.999266    5.454204    1.438231
     32          6           0        6.966885    2.960760    4.001728
     33          6           0        8.402373    2.751383    4.604808
     34          7           0        4.940198   -0.412716    0.344846
     35          6           0        5.858881   -0.567293    1.308297
     36          6           0        6.278503   -1.973192    1.389555
     37          6           0        5.338191   -2.629004    0.543537
     38          6           0        4.663406   -1.652717   -0.109121
     39          6           0        7.276500   -2.558610    2.279955
     40          6           0        4.971292   -3.943937    0.033319
     41          8           0        5.315783   -5.103144    0.174944
     42          6           0        3.786075   -3.633748   -0.938467
     43          6           0        2.664734   -4.478151   -0.314952
     44          8           0        1.978899   -4.198285    0.642923
     45          8           0        2.549885   -5.610314   -1.117157
     46          6           0        1.574481   -6.666189   -0.671771
     47          6           0       -2.855841   -5.707897   -1.413917
     48          6           0       -3.398893   -4.754780   -0.325387
     49          6           0       -3.637753   -4.947247    0.937881
     50          6           0       -3.304768   -6.231784    1.691213
     51          6           0       -4.195916   -3.824731    1.794634
     52          6           0       -5.617867   -3.407050    1.665620
     53          6           0       -6.325313   -3.310079    3.082955
     54          6           0       -5.947852   -1.900456    3.620711
     55          6           0       -5.549088   -1.977915    5.138647
     56          6           0       -7.166893   -0.952054    3.420779
     57          6           0       -6.730194    0.621570    3.118926
     58          6           0       -6.616732    0.905323    1.648480
     59          6           0       -7.917607    1.262247    1.042531
     60          6           0       -8.138275    0.612881   -0.291968
     61          6           0       -8.159026    2.758407    0.884321
     62          6           0       -9.609387    3.294871    1.095007
     63          6           0       -9.848900    4.500201    0.136607
     64          6           0      -10.668158    4.210603   -1.165630
     65          6           0      -10.172882    5.064610   -2.265749
     66          6           0      -12.202663    4.322345   -0.897878
     67          1           0        0.784517    1.922174   -3.630761
     68          1           0        4.162541    5.538033    0.558168
     69          1           0        7.066710    0.435560    2.768134
     70          1           0        2.205530   -2.633942   -3.607772
     71          1           0        0.253247   -0.592560   -3.707583
     72          1           0        2.007228   -1.590829   -5.664777
     73          1           0        2.685425   -0.050267   -5.126480
     74          1           0        1.106281   -0.166485   -5.730438
     75          1           0       -0.258161   -2.027815   -2.152652
     76          1           0        0.734103   -3.027725   -1.165273
     77          1           0        0.571266   -4.825859   -2.486062
     78          1           0        0.198385   -3.943979   -3.972972
     79          1           0       -0.303636    3.751499   -3.563083
     80          1           0        0.998717    4.904752   -4.196213
     81          1           0       -0.127754    5.398241   -3.101935
     82          1           0        3.540731    7.165626   -0.201737
     83          1           0        2.282360    6.474995    0.720739
     84          1           0        2.142913    8.219342    0.132005
     85          1           0        5.522416    4.710304    2.920148
     86          1           0        7.801917    2.967763    2.037766
     87          1           0        6.916149    6.327199    2.086301
     88          1           0        6.707532    5.738300    0.427564
     89          1           0        8.068361    5.246225    1.483301
     90          1           0        6.490591    2.065159    4.399179
     91          1           0        6.623895    3.866442    4.503594
     92          1           0        8.353137    2.928660    5.679690
     93          1           0        9.226520    3.383448    4.271633
     94          1           0        8.758724    1.735123    4.437230
     95          1           0        7.122906   -2.416380    3.349635
     96          1           0        8.237857   -2.088836    2.069734
     97          1           0        7.285598   -3.627720    2.065102
     98          1           0        4.019077   -4.073434   -1.908242
     99          1           0        0.938013   -6.860929   -1.534786
    100          1           0        0.879002   -6.312946    0.090367
    101          1           0        2.156181   -7.504784   -0.290043
    102          1           0       -2.658597   -6.694017   -0.992685
    103          1           0       -3.522408   -5.904008   -2.253628
    104          1           0       -3.633202   -3.772060   -0.735819
    105          1           0       -3.860743   -7.089378    1.312081
    106          1           0       -3.517796   -6.130899    2.755760
    107          1           0       -2.266075   -6.504038    1.504864
    108          1           0       -3.649650   -2.904727    1.587040
    109          1           0       -3.881221   -4.048809    2.813085
    110          1           0       -6.117264   -4.145485    1.038445
    111          1           0       -5.665126   -2.415827    1.215359
    112          1           0       -6.078648   -4.206408    3.652340
    113          1           0       -7.384139   -3.365952    2.831462
    114          1           0       -5.111123   -1.435372    3.100096
    115          1           0       -4.859225   -1.146699    5.284989
    116          1           0       -5.057937   -2.897073    5.456569
    117          1           0       -6.346508   -1.804320    5.860676
    118          1           0       -7.913675   -1.076419    4.204280
    119          1           0       -7.599880   -1.322873    2.491224
    120          1           0       -5.857142    0.851423    3.728918
    121          1           0       -7.532190    1.275896    3.461484
    122          1           0       -6.135096    0.020871    1.232362
    123          1           0       -5.896988    1.722725    1.586176
    124          1           0       -8.779288    0.873924    1.584823
    125          1           0       -7.886811    1.228593   -1.155418
    126          1           0       -9.146466    0.223210   -0.432910
    127          1           0       -7.507413   -0.275320   -0.300468
    128          1           0       -7.694523    3.239189    0.023419
    129          1           0       -7.623678    3.251224    1.695890
    130          1           0       -9.849094    3.737345    2.061907
    131          1           0      -10.315390    2.493805    0.877115
    132          1           0       -8.867486    4.886872   -0.138718
    133          1           0      -10.331250    5.247754    0.765975
    134          1           0      -10.546300    3.158473   -1.422132
    135          1           0      -10.975939    5.287717   -2.968771
    136          1           0       -9.465064    4.460978   -2.834448
    137          1           0       -9.735433    6.012927   -1.954550
    138          1           0      -12.561375    3.394508   -1.343980
    139          1           0      -12.557888    5.192661   -1.449039
    140          1           0      -12.461025    4.365740    0.160302
 ---------------------------------------------------------------------

 SCF Done:  E(RCAM-B3LYP) =  -3007.17590425     A.U. after   17 cycles

 Excitation energies and oscillator strengths:

 Excited State   1:      Singlet-A      1.7888 eV  693.10 nm  f=0.3752  <S**2>=0.000
     245 -> 248        0.18485
     246 -> 247        0.68168
     245 <- 248        0.10463
 This state for optimization and/or second-order correction.
 Total Energy, E(TD-HF/TD-DFT) =  -3007.11016607
 Copying the excited state density for this state as the 1-particle RhoCI density.

 Excited State   2:      Singlet-A      2.2692 eV  546.38 nm  f=0.1341  <S**2>=0.000
     245 -> 247        0.64532
     246 -> 248       -0.27348

 Excited State   3:      Singlet-A      3.5329 eV  350.94 nm  f=0.0864  <S**2>=0.000
     241 -> 247       -0.28209
     241 -> 249       -0.16288
     242 -> 247        0.19882
     244 -> 247        0.46532
     245 -> 247       -0.10759
     246 -> 248       -0.30919

 Excited State   4:      Singlet-A      3.6160 eV  342.88 nm  f=0.1287  <S**2>=0.000
     239 -> 247       -0.12102
     240 -> 247        0.11846
     241 -> 247        0.32785
     241 -> 249        0.23727
     241 -> 251       -0.11204
     242 -> 247       -0.30216
     244 -> 247        0.22889
     245 -> 247       -0.11368
     246 -> 248       -0.32156

 Excited State   5:      Singlet-A      3.6277 eV  341.77 nm  f=0.1122  <S**2>=0.000
     240 -> 247        0.11342
     241 -> 247        0.31215
     242 -> 247        0.41882
     242 -> 249       -0.11930
     244 -> 247        0.27549
     245 -> 247        0.10806
     246 -> 248        0.27038

 The electronic state is 1-A.
 Alpha  occ. eigenvalues --  -46.90387 -19.25573 -19.24744 -19.20193 -19.19497
 Alpha  occ. eigenvalues --  -19.19247 -19.19066 -14.42391 -14.41592 -14.40813
 Alpha  occ. eigenvalues --  -14.39453 -10.39623 -10.38864 -10.35321 -10.35296
 Alpha  occ. eigenvalues --  -10.32026 -10.31961 -10.31439 -10.31421 -10.31015
 Alpha  occ. eigenvalues --  -10.30998 -10.30422 -10.30225 -10.29647 -10.28883
 Alpha  occ. eigenvalues --  -10.28652 -10.28440 -10.28312 -10.28280 -10.28048
 Alpha  occ. eigenvalues --  -10.27863 -10.27840 -10.27632 -10.27545 -10.27456
 Alpha  occ. eigenvalues --  -10.26986 -10.26914 -10.26902 -10.26733 -10.26678
 Alpha  occ. eigenvalues --  -10.26300 -10.26076 -10.26041 -10.26005 -10.25938
 Alpha  occ. eigenvalues --  -10.25914 -10.25768 -10.25591 -10.25479 -10.25338
 Alpha  occ. eigenvalues --  -10.25198 -10.24993 -10.24872 -10.24852 -10.24761
 Alpha  occ. eigenvalues --  -10.24742 -10.24555 -10.24506 -10.24479 -10.24238
 Alpha  occ. eigenvalues --  -10.24121 -10.24111 -10.24053 -10.23992 -10.23747
 Alpha  occ. eigenvalues --  -10.23449  -3.18779  -1.93669  -1.93229  -1.93082
 Alpha  occ. eigenvalues --   -1.18115  -1.15294  -1.10880  -1.10504  -1.07672
 Alpha  occ. eigenvalues --   -1.07358  -1.05598  -1.05041  -1.04412  -1.03618
 Alpha  occ. eigenvalues --   -0.93233  -0.90802  -0.90397  -0.89605  -0.89484
 Alpha  occ. eigenvalues --   -0.88770  -0.88418  -0.87917  -0.87758  -0.87299
 Alpha  occ. eigenvalues --   -0.86580  -0.86181  -0.84598  -0.83830  -0.83455
 Alpha  occ. eigenvalues --   -0.82772  -0.82602  -0.81659  -0.80847  -0.80465
 Alpha  occ. eigenvalues --   -0.79915  -0.78236  -0.77776  -0.77251  -0.76154
 Alpha  occ. eigenvalues --   -0.75834  -0.75688  -0.75391  -0.74627  -0.73960
 Alpha  occ. eigenvalues --   -0.73282  -0.72944  -0.71848  -0.70607  -0.69530
 Alpha  occ. eigenvalues --   -0.69097  -0.68025  -0.67904  -0.66375  -0.66256
 Alpha  occ. eigenvalues --   -0.65886  -0.65484  -0.65398  -0.64793  -0.64140
 Alpha  occ. eigenvalues --   -0.63484  -0.62766  -0.62134  -0.61756  -0.60575
 Alpha  occ. eigenvalues --   -0.60255  -0.59718  -0.59634  -0.58782  -0.58336
 Alpha  occ. eigenvalues --   -0.57657  -0.57573  -0.56809  -0.56277  -0.55732
 Alpha  occ. eigenvalues --   -0.55118  -0.55009  -0.54509  -0.54132  -0.53931
 Alpha  occ. eigenvalues --   -0.53626  -0.53435  -0.53139  -0.53029  -0.52778
 Alpha  occ. eigenvalues --   -0.52712  -0.52602  -0.52451  -0.52209  -0.52040
 Alpha  occ. eigenvalues --   -0.51437  -0.51344  -0.51266  -0.51214  -0.50763
 Alpha  occ. eigenvalues --   -0.50649  -0.50142  -0.49945  -0.49907  -0.49810
 Alpha  occ. eigenvalues --   -0.49655  -0.49508  -0.49208  -0.48858  -0.48629
 Alpha  occ. eigenvalues --   -0.48442  -0.48363  -0.48036  -0.47790  -0.47703
 Alpha  occ. eigenvalues --   -0.47496  -0.47390  -0.47212  -0.46887  -0.46703
 Alpha  occ. eigenvalues --   -0.46653  -0.46372  -0.46269  -0.45964  -0.45812
 Alpha  occ. eigenvalues --   -0.45721  -0.45487  -0.45396  -0.45282  -0.44745
 Alpha  occ. eigenvalues --   -0.44494  -0.44362  -0.44326  -0.44107  -0.44005
 Alpha  occ. eigenvalues --   -0.43765  -0.43731  -0.43531  -0.43421  -0.43107
 Alpha  occ. eigenvalues --   -0.43005  -0.42723  -0.42563  -0.42538  -0.42156
 Alpha  occ. eigenvalues --   -0.41920  -0.41822  -0.41508  -0.41376  -0.41189
 Alpha  occ. eigenvalues --   -0.41011  -0.40629  -0.40442  -0.40220  -0.39764
 Alpha  occ. eigenvalues --   -0.39664  -0.39419  -0.39320  -0.38887  -0.38649
 Alpha  occ. eigenvalues --   -0.38373  -0.38041  -0.37732  -0.37640  -0.37374
 Alpha  occ. eigenvalues --   -0.37185  -0.36809  -0.36784  -0.36432  -0.36345
 Alpha  occ. eigenvalues --   -0.36186  -0.35869  -0.34802  -0.34723  -0.34550
 Alpha  occ. eigenvalues --   -0.34248  -0.33628  -0.33400  -0.31880  -0.31646
 Alpha  occ. eigenvalues --   -0.30939  -0.30697  -0.30330  -0.30046  -0.24159
 Alpha  occ. eigenvalues --   -0.21594
 Alpha virt. eigenvalues --   -0.08795  -0.01791   0.00198   0.01129   0.02291
 Alpha virt. eigenvalues --    0.04958   0.05558   0.05779   0.06123   0.06773
 Alpha virt. eigenvalues --    0.08227   0.08441   0.08875   0.08984   0.09284

 Mulliken charges:
               1
     1  Mg   0.828272
     2  C    0.061827
     3  C   -0.075493
     4  C   -0.073623
     5  C   -0.096357
     6  N   -0.241664
     7  C   -0.041629
     8  C    0.018604
     9  C   -0.031231
    10  C   -0.038059
    11  C    0.064525
    12  C    0.058175
    13  C    0.077921
    14  C    0.127363
    15  O   -0.247592
    16  O   -0.300199
    17  N   -0.311571
    18  C    0.178513
    19  C   -0.155633
    20  C   -0.075051
    21  C    0.127785
    22  C    0.127841
    23  C    0.019335
    24  O   -0.182609
    25  C    0.049380
    26  N   -0.287341
    27  C    0.018497
    28  C   -0.022570
    29  C    0.008377
    30  C    0.024750
    31  C    0.052713
    32  C    0.029647
    33  C   -0.033356
    34  N   -0.327477
    35  C    0.107018
    36  C   -0.155123
    37  C   -0.016961
    38  C    0.097460
    39  C    0.111664
    40  C    0.042297
    41  O   -0.158117
    42  C   -0.057419
    43  C    0.208415
    44  O   -0.195263
    45  O   -0.360562
    46  C    0.162534
    47  C    0.285029
    48  C   -0.116273
    49  C   -0.158553
    50  C    0.070275
    51  C    0.079801
    52  C    0.009357
    53  C    0.054622
    54  C   -0.130654
    55  C    0.048324
    56  C    0.030930
    57  C   -0.001938
    58  C    0.103382
    59  C   -0.118505
    60  C    0.059968
    61  C    0.044024
    62  C    0.026696
    63  C    0.005234
    64  C   -0.158917
    65  C    0.067736
    66  C    0.054468
    67  H   -0.029053
    68  H   -0.054905
    69  H   -0.044524
    70  H   -0.001344
    71  H    0.015471
    72  H    0.024760
    73  H    0.009702
    74  H    0.007886
    75  H    0.004438
    76  H    0.029674
    77  H    0.006137
    78  H    0.011741
    79  H    0.026124
    80  H    0.030624
    81  H    0.020118
    82  H    0.052654
    83  H    0.033741
    84  H    0.029171
    85  H    0.018638
    86  H    0.016414
    87  H    0.009609
    88  H    0.026305
    89  H    0.020399
    90  H    0.019604
    91  H    0.014279
    92  H    0.013544
    93  H    0.008948
    94  H    0.012108
    95  H    0.028975
    96  H    0.016694
    97  H    0.034711
    98  H    0.038520
    99  H    0.044119
   100  H    0.047889
   101  H    0.055719
   102  H   -0.009143
   103  H    0.048969
   104  H   -0.002549
   105  H    0.019649
   106  H    0.012462
   107  H    0.032752
   108  H    0.002339
   109  H   -0.010768
   110  H   -0.004155
   111  H    0.000408
   112  H   -0.002011
   113  H   -0.004280
   114  H    0.006902
   115  H   -0.001634
   116  H    0.006893
   117  H    0.003134
   118  H    0.003966
   119  H   -0.011388
   120  H   -0.003735
   121  H   -0.007868
   122  H   -0.020602
   123  H   -0.007673
   124  H   -0.004239
   125  H    0.004696
   126  H    0.001169
   127  H   -0.010406
   128  H    0.000129
   129  H   -0.020890
   130  H    0.000143
   131  H   -0.006444
   132  H   -0.007443
   133  H   -0.012341
   134  H   -0.007182
   135  H   -0.008419
   136  H    0.005964
   137  H    0.017207
   138  H    0.006846
   139  H    0.006205
   140  H    0.011430
 Sum of Mulliken charges =  -0.00000

 Dipole moment (field-independent basis, Debye):
    X=              2.5386    Y=              1.3061    Z=              1.3644  Tot=              3.1642
 Quadrupole moment (field-independent basis, Debye-Ang):
   XX=           -383.5490   YY=           -414.3230   ZZ=           -397.9103
   XY=             40.7199   XZ=             -0.8794   YZ=             16.6410

 Normal termination of Gaussian 16 at Sat Apr 30 04:57:46 2022.
