 Gaussian 16, Revision A.03,
 Gaussian 16:  ES64L-G16RevA.03 25-Dec-2016

 ---------------------------------
 #p PBE1PBE/Def2SVP td=(nstates=5)
 ---------------------------------

 -----------------------------------------------------
 step_601_chromophore_20 TDDFT with PBE1PBE functional
 -----------------------------------------------------
 Symbolic Z-matrix:
 Charge =  0 Multiplicity = 1

                         Standard orientation:
 ---------------------------------------------------------------------
 Center     Atomic      Atomic             Coordinates (Angstroms)
 Number     Number       Type             X           Y           Z
 ---------------------------------------------------------------------
      1         12           0        4.148665    1.284459   -0.541650
      2          6           0        3.677511   -2.154085   -1.031572
      3          6           0        1.568100    1.784994   -2.883171
      4          6           0        4.086316    4.480120    0.295778
      5          6           0        6.357534    0.598972    1.954533
      6          7           0        2.685839   -0.072376   -1.853698
      7          6           0        2.794751   -1.443565   -1.880901
      8          6           0        1.781900   -1.988346   -2.838233
      9          6           0        1.332884   -0.736493   -3.665340
     10          6           0        1.876211    0.416934   -2.815753
     11          6           0        1.806139   -0.692826   -5.081485
     12          6           0        0.558258   -2.748631   -2.203771
     13          6           0        0.001693   -3.995613   -2.902779
     14          6           0       -1.441295   -4.429462   -2.751118
     15          8           0       -2.415208   -4.126594   -3.436048
     16          8           0       -1.513244   -5.220333   -1.688388
     17          7           0        2.974837    2.918905   -1.158418
     18          6           0        2.017910    2.900110   -2.120105
     19          6           0        1.466159    4.203388   -2.278976
     20          6           0        2.102053    5.112494   -1.409169
     21          6           0        3.124204    4.152964   -0.729194
     22          6           0        0.451205    4.506408   -3.342114
     23          6           0        1.779950    6.589927   -1.224159
     24          8           0        1.110452    7.235186   -2.001115
     25          6           0        2.458256    7.197503   -0.076122
     26          7           0        5.058990    2.374125    1.024227
     27          6           0        4.930044    3.716917    1.053921
     28          6           0        6.042500    4.328670    2.041114
     29          6           0        6.809173    3.049037    2.479563
     30          6           0        6.047836    1.931061    1.782199
     31          6           0        6.999266    5.454204    1.438231
     32          6           0        6.966885    2.960760    4.001728
     33          6           0        8.402373    2.751383    4.604808
     34          7           0        4.940198   -0.412716    0.344846
     35          6           0        5.858881   -0.567293    1.308297
     36          6           0        6.278503   -1.973192    1.389555
     37          6           0        5.338191   -2.629004    0.543537
     38          6           0        4.663406   -1.652717   -0.109121
     39          6           0        7.276500   -2.558610    2.279955
     40          6           0        4.971292   -3.943937    0.033319
     41          8           0        5.315783   -5.103144    0.174944
     42          6           0        3.786075   -3.633748   -0.938467
     43          6           0        2.664734   -4.478151   -0.314952
     44          8           0        1.978899   -4.198285    0.642923
     45          8           0        2.549885   -5.610314   -1.117157
     46          6           0        1.574481   -6.666189   -0.671771
     47          6           0       -2.855841   -5.707897   -1.413917
     48          6           0       -3.398893   -4.754780   -0.325387
     49          6           0       -3.637753   -4.947247    0.937881
     50          6           0       -3.304768   -6.231784    1.691213
     51          6           0       -4.195916   -3.824731    1.794634
     52          6           0       -5.617867   -3.407050    1.665620
     53          6           0       -6.325313   -3.310079    3.082955
     54          6           0       -5.947852   -1.900456    3.620711
     55          6           0       -5.549088   -1.977915    5.138647
     56          6           0       -7.166893   -0.952054    3.420779
     57          6           0       -6.730194    0.621570    3.118926
     58          6           0       -6.616732    0.905323    1.648480
     59          6           0       -7.917607    1.262247    1.042531
     60          6           0       -8.138275    0.612881   -0.291968
     61          6           0       -8.159026    2.758407    0.884321
     62          6           0       -9.609387    3.294871    1.095007
     63          6           0       -9.848900    4.500201    0.136607
     64          6           0      -10.668158    4.210603   -1.165630
     65          6           0      -10.172882    5.064610   -2.265749
     66          6           0      -12.202663    4.322345   -0.897878
     67          1           0        0.784517    1.922174   -3.630761
     68          1           0        4.162541    5.538033    0.558168
     69          1           0        7.066710    0.435560    2.768134
     70          1           0        2.205530   -2.633942   -3.607772
     71          1           0        0.253247   -0.592560   -3.707583
     72          1           0        2.007228   -1.590829   -5.664777
     73          1           0        2.685425   -0.050267   -5.126480
     74          1           0        1.106281   -0.166485   -5.730438
     75          1           0       -0.258161   -2.027815   -2.152652
     76          1           0        0.734103   -3.027725   -1.165273
     77          1           0        0.571266   -4.825859   -2.486062
     78          1           0        0.198385   -3.943979   -3.972972
     79          1           0       -0.303636    3.751499   -3.563083
     80          1           0        0.998717    4.904752   -4.196213
     81          1           0       -0.127754    5.398241   -3.101935
     82          1           0        3.540731    7.165626   -0.201737
     83          1           0        2.282360    6.474995    0.720739
     84          1           0        2.142913    8.219342    0.132005
     85          1           0        5.522416    4.710304    2.920148
     86          1           0        7.801917    2.967763    2.037766
     87          1           0        6.916149    6.327199    2.086301
     88          1           0        6.707532    5.738300    0.427564
     89          1           0        8.068361    5.246225    1.483301
     90          1           0        6.490591    2.065159    4.399179
     91          1           0        6.623895    3.866442    4.503594
     92          1           0        8.353137    2.928660    5.679690
     93          1           0        9.226520    3.383448    4.271633
     94          1           0        8.758724    1.735123    4.437230
     95          1           0        7.122906   -2.416380    3.349635
     96          1           0        8.237857   -2.088836    2.069734
     97          1           0        7.285598   -3.627720    2.065102
     98          1           0        4.019077   -4.073434   -1.908242
     99          1           0        0.938013   -6.860929   -1.534786
    100          1           0        0.879002   -6.312946    0.090367
    101          1           0        2.156181   -7.504784   -0.290043
    102          1           0       -2.658597   -6.694017   -0.992685
    103          1           0       -3.522408   -5.904008   -2.253628
    104          1           0       -3.633202   -3.772060   -0.735819
    105          1           0       -3.860743   -7.089378    1.312081
    106          1           0       -3.517796   -6.130899    2.755760
    107          1           0       -2.266075   -6.504038    1.504864
    108          1           0       -3.649650   -2.904727    1.587040
    109          1           0       -3.881221   -4.048809    2.813085
    110          1           0       -6.117264   -4.145485    1.038445
    111          1           0       -5.665126   -2.415827    1.215359
    112          1           0       -6.078648   -4.206408    3.652340
    113          1           0       -7.384139   -3.365952    2.831462
    114          1           0       -5.111123   -1.435372    3.100096
    115          1           0       -4.859225   -1.146699    5.284989
    116          1           0       -5.057937   -2.897073    5.456569
    117          1           0       -6.346508   -1.804320    5.860676
    118          1           0       -7.913675   -1.076419    4.204280
    119          1           0       -7.599880   -1.322873    2.491224
    120          1           0       -5.857142    0.851423    3.728918
    121          1           0       -7.532190    1.275896    3.461484
    122          1           0       -6.135096    0.020871    1.232362
    123          1           0       -5.896988    1.722725    1.586176
    124          1           0       -8.779288    0.873924    1.584823
    125          1           0       -7.886811    1.228593   -1.155418
    126          1           0       -9.146466    0.223210   -0.432910
    127          1           0       -7.507413   -0.275320   -0.300468
    128          1           0       -7.694523    3.239189    0.023419
    129          1           0       -7.623678    3.251224    1.695890
    130          1           0       -9.849094    3.737345    2.061907
    131          1           0      -10.315390    2.493805    0.877115
    132          1           0       -8.867486    4.886872   -0.138718
    133          1           0      -10.331250    5.247754    0.765975
    134          1           0      -10.546300    3.158473   -1.422132
    135          1           0      -10.975939    5.287717   -2.968771
    136          1           0       -9.465064    4.460978   -2.834448
    137          1           0       -9.735433    6.012927   -1.954550
    138          1           0      -12.561375    3.394508   -1.343980
    139          1           0      -12.557888    5.192661   -1.449039
    140          1           0      -12.461025    4.365740    0.160302
 ---------------------------------------------------------------------

 SCF Done:  E(RPBE1PBE) =  -3005.36449581     A.U. after   15 cycles

 Excitation energies and oscillator strengths:

 Excited State   1:      Singlet-A      1.9328 eV  641.49 nm  f=0.3582  <S**2>=0.000
     245 -> 248       -0.18134
     246 -> 247        0.68875
     246 <- 247       -0.10249
 This state for optimization and/or second-order correction.
 Total Energy, E(TD-HF/TD-DFT) =  -3005.29346844
 Copying the excited state density for this state as the 1-particle RhoCI density.

 Excited State   2:      Singlet-A      2.2634 eV  547.78 nm  f=0.1310  <S**2>=0.000
     245 -> 247        0.65713
     246 -> 248        0.24597

 Excited State   3:      Singlet-A      3.0812 eV  402.40 nm  f=0.0006  <S**2>=0.000
     241 -> 247        0.55890
     241 -> 249        0.16283
     243 -> 247        0.36185

 Excited State   4:      Singlet-A      3.1785 eV  390.07 nm  f=0.0009  <S**2>=0.000
     241 -> 247       -0.28708
     242 -> 247        0.51279
     243 -> 247        0.35029

 Excited State   5:      Singlet-A      3.2501 eV  381.48 nm  f=0.0009  <S**2>=0.000
     240 -> 247       -0.12365
     241 -> 247       -0.23066
     242 -> 247       -0.42100
     243 -> 247        0.44987
     246 -> 248       -0.16730

 The electronic state is 1-A.
 Alpha  occ. eigenvalues --  -46.93760 -19.26249 -19.25455 -19.20428 -19.19793
 Alpha  occ. eigenvalues --  -19.19368 -19.19361 -14.41707 -14.41232 -14.40279
 Alpha  occ. eigenvalues --  -14.39168 -10.36677 -10.35865 -10.32548 -10.32312
 Alpha  occ. eigenvalues --  -10.29475 -10.29347 -10.29010 -10.28827 -10.28698
 Alpha  occ. eigenvalues --  -10.28572 -10.28219 -10.27711 -10.27523 -10.26715
 Alpha  occ. eigenvalues --  -10.26489 -10.26115 -10.26099 -10.25820 -10.25752
 Alpha  occ. eigenvalues --  -10.25690 -10.25502 -10.25237 -10.25183 -10.25104
 Alpha  occ. eigenvalues --  -10.24677 -10.24528 -10.24417 -10.24381 -10.24207
 Alpha  occ. eigenvalues --  -10.23934 -10.23915 -10.23756 -10.23410 -10.23395
 Alpha  occ. eigenvalues --  -10.23344 -10.23195 -10.23161 -10.22975 -10.22791
 Alpha  occ. eigenvalues --  -10.22787 -10.22531 -10.22475 -10.22474 -10.22320
 Alpha  occ. eigenvalues --  -10.22265 -10.22148 -10.22079 -10.22012 -10.21791
 Alpha  occ. eigenvalues --  -10.21636 -10.21615 -10.21501 -10.21364 -10.21088
 Alpha  occ. eigenvalues --  -10.20811  -3.15735  -1.88564  -1.88104  -1.87958
 Alpha  occ. eigenvalues --   -1.12950  -1.10047  -1.05537  -1.05319  -1.02526
 Alpha  occ. eigenvalues --   -1.02209  -1.00248  -0.99729  -0.99090  -0.98178
 Alpha  occ. eigenvalues --   -0.87648  -0.84897  -0.84524  -0.83872  -0.83711
 Alpha  occ. eigenvalues --   -0.83037  -0.82505  -0.82228  -0.81898  -0.81536
 Alpha  occ. eigenvalues --   -0.80939  -0.80379  -0.78789  -0.77962  -0.77789
 Alpha  occ. eigenvalues --   -0.76977  -0.76788  -0.75926  -0.75155  -0.74743
 Alpha  occ. eigenvalues --   -0.74081  -0.72542  -0.72108  -0.71446  -0.70453
 Alpha  occ. eigenvalues --   -0.70142  -0.69878  -0.69462  -0.68747  -0.68146
 Alpha  occ. eigenvalues --   -0.67654  -0.67314  -0.66279  -0.64878  -0.63942
 Alpha  occ. eigenvalues --   -0.63586  -0.62316  -0.62170  -0.60712  -0.60585
 Alpha  occ. eigenvalues --   -0.60291  -0.59981  -0.59661  -0.59301  -0.58277
 Alpha  occ. eigenvalues --   -0.57908  -0.56919  -0.56367  -0.56297  -0.55089
 Alpha  occ. eigenvalues --   -0.54818  -0.54213  -0.54031  -0.53389  -0.52992
 Alpha  occ. eigenvalues --   -0.52014  -0.51969  -0.51307  -0.50734  -0.50306
 Alpha  occ. eigenvalues --   -0.49758  -0.49487  -0.48957  -0.48583  -0.48432
 Alpha  occ. eigenvalues --   -0.48249  -0.47919  -0.47697  -0.47522  -0.47299
 Alpha  occ. eigenvalues --   -0.47269  -0.47071  -0.46830  -0.46733  -0.46523
 Alpha  occ. eigenvalues --   -0.46068  -0.45978  -0.45880  -0.45760  -0.45228
 Alpha  occ. eigenvalues --   -0.45122  -0.44710  -0.44547  -0.44528  -0.44324
 Alpha  occ. eigenvalues --   -0.44131  -0.44040  -0.43796  -0.43495  -0.43327
 Alpha  occ. eigenvalues --   -0.42986  -0.42917  -0.42701  -0.42444  -0.42271
 Alpha  occ. eigenvalues --   -0.42122  -0.42015  -0.41810  -0.41656  -0.41416
 Alpha  occ. eigenvalues --   -0.41314  -0.41036  -0.40784  -0.40679  -0.40488
 Alpha  occ. eigenvalues --   -0.40379  -0.40244  -0.40129  -0.39994  -0.39504
 Alpha  occ. eigenvalues --   -0.39200  -0.39137  -0.39004  -0.38967  -0.38722
 Alpha  occ. eigenvalues --   -0.38574  -0.38456  -0.38337  -0.38172  -0.37870
 Alpha  occ. eigenvalues --   -0.37708  -0.37557  -0.37390  -0.37195  -0.36842
 Alpha  occ. eigenvalues --   -0.36695  -0.36631  -0.36444  -0.36053  -0.36036
 Alpha  occ. eigenvalues --   -0.35788  -0.35427  -0.35163  -0.35043  -0.34761
 Alpha  occ. eigenvalues --   -0.34430  -0.34289  -0.34214  -0.33749  -0.33427
 Alpha  occ. eigenvalues --   -0.33362  -0.32811  -0.32505  -0.32452  -0.32429
 Alpha  occ. eigenvalues --   -0.31987  -0.31730  -0.31641  -0.31412  -0.31219
 Alpha  occ. eigenvalues --   -0.31080  -0.30715  -0.29992  -0.29714  -0.29504
 Alpha  occ. eigenvalues --   -0.29161  -0.28943  -0.28425  -0.27337  -0.26665
 Alpha  occ. eigenvalues --   -0.25955  -0.25874  -0.25832  -0.25563  -0.21086
 Alpha  occ. eigenvalues --   -0.19173
 Alpha virt. eigenvalues --   -0.11269  -0.05320  -0.04026  -0.02137  -0.01550
 Alpha virt. eigenvalues --    0.00463   0.01052   0.01318   0.01939   0.02980
 Alpha virt. eigenvalues --    0.04234   0.04725   0.05300   0.05609   0.06093

 Mulliken charges:
               1
     1  Mg   0.968146
     2  C    0.039802
     3  C   -0.066853
     4  C   -0.083813
     5  C   -0.088196
     6  N   -0.342317
     7  C    0.039538
     8  C   -0.053627
     9  C   -0.113766
    10  C    0.011835
    11  C    0.011460
    12  C    0.008712
    13  C   -0.008230
    14  C    0.198125
    15  O   -0.282040
    16  O   -0.328530
    17  N   -0.433095
    18  C    0.197252
    19  C   -0.186131
    20  C   -0.110690
    21  C    0.163297
    22  C    0.069632
    23  C    0.071114
    24  O   -0.221919
    25  C   -0.030449
    26  N   -0.395757
    27  C    0.060286
    28  C   -0.098981
    29  C   -0.063930
    30  C    0.066681
    31  C   -0.005597
    32  C   -0.034446
    33  C   -0.103058
    34  N   -0.456035
    35  C    0.134401
    36  C   -0.170132
    37  C   -0.050350
    38  C    0.145573
    39  C    0.055678
    40  C    0.120449
    41  O   -0.203991
    42  C   -0.150412
    43  C    0.289020
    44  O   -0.231447
    45  O   -0.389492
    46  C    0.105923
    47  C    0.235850
    48  C   -0.124104
    49  C   -0.201816
    50  C    0.007573
    51  C    0.026168
    52  C   -0.067170
    53  C   -0.003139
    54  C   -0.216718
    55  C   -0.006737
    56  C   -0.020674
    57  C   -0.065842
    58  C    0.038442
    59  C   -0.211208
    60  C    0.006016
    61  C   -0.008500
    62  C   -0.031141
    63  C   -0.052320
    64  C   -0.247536
    65  C    0.003318
    66  C   -0.006442
    67  H    0.002090
    68  H   -0.020682
    69  H   -0.008736
    70  H    0.036922
    71  H    0.051269
    72  H    0.050351
    73  H    0.038186
    74  H    0.035490
    75  H    0.038389
    76  H    0.065036
    77  H    0.049791
    78  H    0.044338
    79  H    0.050735
    80  H    0.059114
    81  H    0.047965
    82  H    0.079444
    83  H    0.062813
    84  H    0.056814
    85  H    0.055064
    86  H    0.054356
    87  H    0.037187
    88  H    0.053203
    89  H    0.046463
    90  H    0.052014
    91  H    0.046648
    92  H    0.042001
    93  H    0.036968
    94  H    0.039353
    95  H    0.057089
    96  H    0.045725
    97  H    0.063844
    98  H    0.075587
    99  H    0.064240
   100  H    0.069392
   101  H    0.077762
   102  H    0.019014
   103  H    0.074949
   104  H    0.027233
   105  H    0.047417
   106  H    0.038407
   107  H    0.060118
   108  H    0.035003
   109  H    0.021179
   110  H    0.029832
   111  H    0.038227
   112  H    0.029769
   113  H    0.028987
   114  H    0.044105
   115  H    0.026289
   116  H    0.033632
   117  H    0.029881
   118  H    0.034833
   119  H    0.023714
   120  H    0.028736
   121  H    0.026496
   122  H    0.016540
   123  H    0.026029
   124  H    0.033691
   125  H    0.031589
   126  H    0.028080
   127  H    0.017492
   128  H    0.030985
   129  H    0.014099
   130  H    0.031779
   131  H    0.026289
   132  H    0.025546
   133  H    0.020514
   134  H    0.031199
   135  H    0.019855
   136  H    0.034513
   137  H    0.043968
   138  H    0.034199
   139  H    0.033577
   140  H    0.038351
 Sum of Mulliken charges =  -0.00000

 Dipole moment (field-independent basis, Debye):
    X=              2.8295    Y=              1.1257    Z=              1.6213  Tot=              3.4500
 Quadrupole moment (field-independent basis, Debye-Ang):
   XX=           -377.4683   YY=           -411.7187   ZZ=           -394.1971
   XY=             40.5682   XZ=              1.2117   YZ=             17.1507

 Normal termination of Gaussian 16 at Sat Apr 30 05:16:17 2022.
