 Gaussian 16, Revision A.03,
 Gaussian 16:  ES64L-G16RevA.03 25-Dec-2016

 --------------------------------
 #p wB97XD/Def2SVP td=(nstates=5)
 --------------------------------

 ----------------------------------------------------
 step_601_chromophore_20 TDDFT with wB97XD functional
 ----------------------------------------------------
 Symbolic Z-matrix:
 Charge =  0 Multiplicity = 1

                         Standard orientation:
 ---------------------------------------------------------------------
 Center     Atomic      Atomic             Coordinates (Angstroms)
 Number     Number       Type             X           Y           Z
 ---------------------------------------------------------------------
      1         12           0        4.148665    1.284459   -0.541650
      2          6           0        3.677511   -2.154085   -1.031572
      3          6           0        1.568100    1.784994   -2.883171
      4          6           0        4.086316    4.480120    0.295778
      5          6           0        6.357534    0.598972    1.954533
      6          7           0        2.685839   -0.072376   -1.853698
      7          6           0        2.794751   -1.443565   -1.880901
      8          6           0        1.781900   -1.988346   -2.838233
      9          6           0        1.332884   -0.736493   -3.665340
     10          6           0        1.876211    0.416934   -2.815753
     11          6           0        1.806139   -0.692826   -5.081485
     12          6           0        0.558258   -2.748631   -2.203771
     13          6           0        0.001693   -3.995613   -2.902779
     14          6           0       -1.441295   -4.429462   -2.751118
     15          8           0       -2.415208   -4.126594   -3.436048
     16          8           0       -1.513244   -5.220333   -1.688388
     17          7           0        2.974837    2.918905   -1.158418
     18          6           0        2.017910    2.900110   -2.120105
     19          6           0        1.466159    4.203388   -2.278976
     20          6           0        2.102053    5.112494   -1.409169
     21          6           0        3.124204    4.152964   -0.729194
     22          6           0        0.451205    4.506408   -3.342114
     23          6           0        1.779950    6.589927   -1.224159
     24          8           0        1.110452    7.235186   -2.001115
     25          6           0        2.458256    7.197503   -0.076122
     26          7           0        5.058990    2.374125    1.024227
     27          6           0        4.930044    3.716917    1.053921
     28          6           0        6.042500    4.328670    2.041114
     29          6           0        6.809173    3.049037    2.479563
     30          6           0        6.047836    1.931061    1.782199
     31          6           0        6.999266    5.454204    1.438231
     32          6           0        6.966885    2.960760    4.001728
     33          6           0        8.402373    2.751383    4.604808
     34          7           0        4.940198   -0.412716    0.344846
     35          6           0        5.858881   -0.567293    1.308297
     36          6           0        6.278503   -1.973192    1.389555
     37          6           0        5.338191   -2.629004    0.543537
     38          6           0        4.663406   -1.652717   -0.109121
     39          6           0        7.276500   -2.558610    2.279955
     40          6           0        4.971292   -3.943937    0.033319
     41          8           0        5.315783   -5.103144    0.174944
     42          6           0        3.786075   -3.633748   -0.938467
     43          6           0        2.664734   -4.478151   -0.314952
     44          8           0        1.978899   -4.198285    0.642923
     45          8           0        2.549885   -5.610314   -1.117157
     46          6           0        1.574481   -6.666189   -0.671771
     47          6           0       -2.855841   -5.707897   -1.413917
     48          6           0       -3.398893   -4.754780   -0.325387
     49          6           0       -3.637753   -4.947247    0.937881
     50          6           0       -3.304768   -6.231784    1.691213
     51          6           0       -4.195916   -3.824731    1.794634
     52          6           0       -5.617867   -3.407050    1.665620
     53          6           0       -6.325313   -3.310079    3.082955
     54          6           0       -5.947852   -1.900456    3.620711
     55          6           0       -5.549088   -1.977915    5.138647
     56          6           0       -7.166893   -0.952054    3.420779
     57          6           0       -6.730194    0.621570    3.118926
     58          6           0       -6.616732    0.905323    1.648480
     59          6           0       -7.917607    1.262247    1.042531
     60          6           0       -8.138275    0.612881   -0.291968
     61          6           0       -8.159026    2.758407    0.884321
     62          6           0       -9.609387    3.294871    1.095007
     63          6           0       -9.848900    4.500201    0.136607
     64          6           0      -10.668158    4.210603   -1.165630
     65          6           0      -10.172882    5.064610   -2.265749
     66          6           0      -12.202663    4.322345   -0.897878
     67          1           0        0.784517    1.922174   -3.630761
     68          1           0        4.162541    5.538033    0.558168
     69          1           0        7.066710    0.435560    2.768134
     70          1           0        2.205530   -2.633942   -3.607772
     71          1           0        0.253247   -0.592560   -3.707583
     72          1           0        2.007228   -1.590829   -5.664777
     73          1           0        2.685425   -0.050267   -5.126480
     74          1           0        1.106281   -0.166485   -5.730438
     75          1           0       -0.258161   -2.027815   -2.152652
     76          1           0        0.734103   -3.027725   -1.165273
     77          1           0        0.571266   -4.825859   -2.486062
     78          1           0        0.198385   -3.943979   -3.972972
     79          1           0       -0.303636    3.751499   -3.563083
     80          1           0        0.998717    4.904752   -4.196213
     81          1           0       -0.127754    5.398241   -3.101935
     82          1           0        3.540731    7.165626   -0.201737
     83          1           0        2.282360    6.474995    0.720739
     84          1           0        2.142913    8.219342    0.132005
     85          1           0        5.522416    4.710304    2.920148
     86          1           0        7.801917    2.967763    2.037766
     87          1           0        6.916149    6.327199    2.086301
     88          1           0        6.707532    5.738300    0.427564
     89          1           0        8.068361    5.246225    1.483301
     90          1           0        6.490591    2.065159    4.399179
     91          1           0        6.623895    3.866442    4.503594
     92          1           0        8.353137    2.928660    5.679690
     93          1           0        9.226520    3.383448    4.271633
     94          1           0        8.758724    1.735123    4.437230
     95          1           0        7.122906   -2.416380    3.349635
     96          1           0        8.237857   -2.088836    2.069734
     97          1           0        7.285598   -3.627720    2.065102
     98          1           0        4.019077   -4.073434   -1.908242
     99          1           0        0.938013   -6.860929   -1.534786
    100          1           0        0.879002   -6.312946    0.090367
    101          1           0        2.156181   -7.504784   -0.290043
    102          1           0       -2.658597   -6.694017   -0.992685
    103          1           0       -3.522408   -5.904008   -2.253628
    104          1           0       -3.633202   -3.772060   -0.735819
    105          1           0       -3.860743   -7.089378    1.312081
    106          1           0       -3.517796   -6.130899    2.755760
    107          1           0       -2.266075   -6.504038    1.504864
    108          1           0       -3.649650   -2.904727    1.587040
    109          1           0       -3.881221   -4.048809    2.813085
    110          1           0       -6.117264   -4.145485    1.038445
    111          1           0       -5.665126   -2.415827    1.215359
    112          1           0       -6.078648   -4.206408    3.652340
    113          1           0       -7.384139   -3.365952    2.831462
    114          1           0       -5.111123   -1.435372    3.100096
    115          1           0       -4.859225   -1.146699    5.284989
    116          1           0       -5.057937   -2.897073    5.456569
    117          1           0       -6.346508   -1.804320    5.860676
    118          1           0       -7.913675   -1.076419    4.204280
    119          1           0       -7.599880   -1.322873    2.491224
    120          1           0       -5.857142    0.851423    3.728918
    121          1           0       -7.532190    1.275896    3.461484
    122          1           0       -6.135096    0.020871    1.232362
    123          1           0       -5.896988    1.722725    1.586176
    124          1           0       -8.779288    0.873924    1.584823
    125          1           0       -7.886811    1.228593   -1.155418
    126          1           0       -9.146466    0.223210   -0.432910
    127          1           0       -7.507413   -0.275320   -0.300468
    128          1           0       -7.694523    3.239189    0.023419
    129          1           0       -7.623678    3.251224    1.695890
    130          1           0       -9.849094    3.737345    2.061907
    131          1           0      -10.315390    2.493805    0.877115
    132          1           0       -8.867486    4.886872   -0.138718
    133          1           0      -10.331250    5.247754    0.765975
    134          1           0      -10.546300    3.158473   -1.422132
    135          1           0      -10.975939    5.287717   -2.968771
    136          1           0       -9.465064    4.460978   -2.834448
    137          1           0       -9.735433    6.012927   -1.954550
    138          1           0      -12.561375    3.394508   -1.343980
    139          1           0      -12.557888    5.192661   -1.449039
    140          1           0      -12.461025    4.365740    0.160302
 ---------------------------------------------------------------------

 SCF Done:  E(RwB97XD) =  -3007.87483862     A.U. after   17 cycles

 Excitation energies and oscillator strengths:

 Excited State   1:      Singlet-A      1.7376 eV  713.54 nm  f=0.3742  <S**2>=0.000
     245 -> 248        0.18957
     246 -> 247        0.67920
     245 <- 248        0.11307
 This state for optimization and/or second-order correction.
 Total Energy, E(TD-HF/TD-DFT) =  -3007.81098328
 Copying the excited state density for this state as the 1-particle RhoCI density.

 Excited State   2:      Singlet-A      2.2208 eV  558.29 nm  f=0.1302  <S**2>=0.000
     245 -> 247        0.64281
     246 -> 248       -0.27656

 Excited State   3:      Singlet-A      3.5622 eV  348.05 nm  f=0.1222  <S**2>=0.000
     241 -> 247       -0.18927
     241 -> 249       -0.14862
     242 -> 247       -0.23795
     244 -> 247        0.45745
     245 -> 247       -0.12470
     246 -> 248       -0.34656

 Excited State   4:      Singlet-A      3.6456 eV  340.09 nm  f=0.2253  <S**2>=0.000
     239 -> 247       -0.10940
     241 -> 247        0.10945
     241 -> 249        0.22929
     242 -> 247        0.45541
     245 -> 247       -0.14546
     246 -> 248       -0.38891

 Excited State   5:      Singlet-A      3.6625 eV  338.52 nm  f=0.0394  <S**2>=0.000
     240 -> 247        0.15698
     241 -> 247        0.46753
     241 -> 249        0.11206
     242 -> 247       -0.16669
     242 -> 249        0.19243
     244 -> 247        0.32324
     246 -> 248        0.14537

 The electronic state is 1-A.
 Alpha  occ. eigenvalues --  -46.96725 -19.30787 -19.29989 -19.25131 -19.24521
 Alpha  occ. eigenvalues --  -19.24287 -19.24034 -14.47023 -14.46119 -14.45397
 Alpha  occ. eigenvalues --  -14.44013 -10.43505 -10.42668 -10.39324 -10.39261
 Alpha  occ. eigenvalues --  -10.36138 -10.35843 -10.35479 -10.35214 -10.35053
 Alpha  occ. eigenvalues --  -10.35027 -10.34368 -10.34312 -10.33623 -10.32939
 Alpha  occ. eigenvalues --  -10.32621 -10.32591 -10.32457 -10.32382 -10.32100
 Alpha  occ. eigenvalues --  -10.31957 -10.31927 -10.31699 -10.31648 -10.31502
 Alpha  occ. eigenvalues --  -10.30918 -10.30905 -10.30773 -10.30712 -10.30660
 Alpha  occ. eigenvalues --  -10.30270 -10.30036 -10.30034 -10.29873 -10.29812
 Alpha  occ. eigenvalues --  -10.29733 -10.29587 -10.29446 -10.29421 -10.29348
 Alpha  occ. eigenvalues --  -10.29152 -10.28905 -10.28814 -10.28769 -10.28676
 Alpha  occ. eigenvalues --  -10.28654 -10.28462 -10.28455 -10.28391 -10.28173
 Alpha  occ. eigenvalues --  -10.28022 -10.27973 -10.27933 -10.27796 -10.27538
 Alpha  occ. eigenvalues --  -10.27253  -3.22584  -1.96157  -1.95697  -1.95550
 Alpha  occ. eigenvalues --   -1.20314  -1.17447  -1.13117  -1.12723  -1.09880
 Alpha  occ. eigenvalues --   -1.09557  -1.07623  -1.07081  -1.06412  -1.05649
 Alpha  occ. eigenvalues --   -0.95218  -0.92563  -0.92184  -0.91493  -0.91349
 Alpha  occ. eigenvalues --   -0.90673  -0.90180  -0.89821  -0.89557  -0.89272
 Alpha  occ. eigenvalues --   -0.88492  -0.88072  -0.86511  -0.85655  -0.85361
 Alpha  occ. eigenvalues --   -0.84658  -0.84445  -0.83565  -0.82762  -0.82388
 Alpha  occ. eigenvalues --   -0.81741  -0.80146  -0.79673  -0.79216  -0.78105
 Alpha  occ. eigenvalues --   -0.77745  -0.77555  -0.77171  -0.76437  -0.75800
 Alpha  occ. eigenvalues --   -0.75200  -0.74886  -0.73828  -0.72529  -0.71433
 Alpha  occ. eigenvalues --   -0.71092  -0.69966  -0.69826  -0.68229  -0.68154
 Alpha  occ. eigenvalues --   -0.67845  -0.67400  -0.67324  -0.66802  -0.65944
 Alpha  occ. eigenvalues --   -0.65429  -0.64576  -0.63948  -0.63768  -0.62586
 Alpha  occ. eigenvalues --   -0.62211  -0.61648  -0.61570  -0.60742  -0.60330
 Alpha  occ. eigenvalues --   -0.59564  -0.59510  -0.58809  -0.58198  -0.57711
 Alpha  occ. eigenvalues --   -0.57074  -0.56939  -0.56388  -0.56012  -0.55843
 Alpha  occ. eigenvalues --   -0.55580  -0.55394  -0.55041  -0.54949  -0.54691
 Alpha  occ. eigenvalues --   -0.54625  -0.54475  -0.54379  -0.54124  -0.53922
 Alpha  occ. eigenvalues --   -0.53357  -0.53278  -0.53159  -0.53128  -0.52729
 Alpha  occ. eigenvalues --   -0.52539  -0.52042  -0.51866  -0.51821  -0.51683
 Alpha  occ. eigenvalues --   -0.51617  -0.51381  -0.51119  -0.50773  -0.50517
 Alpha  occ. eigenvalues --   -0.50343  -0.50273  -0.49948  -0.49707  -0.49575
 Alpha  occ. eigenvalues --   -0.49387  -0.49304  -0.49104  -0.48809  -0.48626
 Alpha  occ. eigenvalues --   -0.48556  -0.48288  -0.48085  -0.47894  -0.47676
 Alpha  occ. eigenvalues --   -0.47633  -0.47381  -0.47289  -0.47183  -0.46708
 Alpha  occ. eigenvalues --   -0.46409  -0.46293  -0.46191  -0.45973  -0.45906
 Alpha  occ. eigenvalues --   -0.45706  -0.45615  -0.45480  -0.45354  -0.44993
 Alpha  occ. eigenvalues --   -0.44866  -0.44646  -0.44505  -0.44393  -0.44022
 Alpha  occ. eigenvalues --   -0.43958  -0.43779  -0.43403  -0.43203  -0.43115
 Alpha  occ. eigenvalues --   -0.42887  -0.42507  -0.42279  -0.42115  -0.41640
 Alpha  occ. eigenvalues --   -0.41510  -0.41306  -0.41208  -0.40785  -0.40484
 Alpha  occ. eigenvalues --   -0.40289  -0.39866  -0.39557  -0.39527  -0.39483
 Alpha  occ. eigenvalues --   -0.39020  -0.38764  -0.38673  -0.38381  -0.38214
 Alpha  occ. eigenvalues --   -0.38079  -0.37713  -0.36783  -0.36737  -0.36407
 Alpha  occ. eigenvalues --   -0.36082  -0.35634  -0.35540  -0.34026  -0.33710
 Alpha  occ. eigenvalues --   -0.32954  -0.32847  -0.32340  -0.32204  -0.26079
 Alpha  occ. eigenvalues --   -0.23414
 Alpha virt. eigenvalues --   -0.07136   0.00116   0.02271   0.04193   0.04484
 Alpha virt. eigenvalues --    0.07201   0.07881   0.08037   0.08710   0.09391
 Alpha virt. eigenvalues --    0.10709   0.11585   0.12085   0.12227   0.12862

 Mulliken charges:
               1
     1  Mg   0.962205
     2  C    0.043724
     3  C   -0.081545
     4  C   -0.094980
     5  C   -0.105073
     6  N   -0.304805
     7  C   -0.000719
     8  C   -0.025946
     9  C   -0.083676
    10  C   -0.008934
    11  C    0.017606
    12  C    0.021120
    13  C    0.022287
    14  C    0.185428
    15  O   -0.279054
    16  O   -0.328011
    17  N   -0.397966
    18  C    0.190741
    19  C   -0.173499
    20  C   -0.110330
    21  C    0.157135
    22  C    0.079729
    23  C    0.066386
    24  O   -0.215570
    25  C   -0.012376
    26  N   -0.364098
    27  C    0.049584
    28  C   -0.073584
    29  C   -0.040281
    30  C    0.054454
    31  C    0.006271
    32  C   -0.020401
    33  C   -0.086152
    34  N   -0.417310
    35  C    0.121734
    36  C   -0.168407
    37  C   -0.052627
    38  C    0.127817
    39  C    0.065489
    40  C    0.109188
    41  O   -0.195015
    42  C   -0.115163
    43  C    0.265149
    44  O   -0.224272
    45  O   -0.388325
    46  C    0.121354
    47  C    0.253558
    48  C   -0.137330
    49  C   -0.187470
    50  C    0.019549
    51  C    0.040018
    52  C   -0.038609
    53  C    0.012389
    54  C   -0.187683
    55  C    0.003698
    56  C   -0.003018
    57  C   -0.046931
    58  C    0.061703
    59  C   -0.178283
    60  C    0.017132
    61  C    0.005640
    62  C   -0.017762
    63  C   -0.033447
    64  C   -0.218662
    65  C    0.015433
    66  C    0.004111
    67  H   -0.003434
    68  H   -0.033279
    69  H   -0.018613
    70  H    0.023671
    71  H    0.041690
    72  H    0.046534
    73  H    0.031413
    74  H    0.030343
    75  H    0.029462
    76  H    0.054871
    77  H    0.027263
    78  H    0.038061
    79  H    0.047562
    80  H    0.055676
    81  H    0.044170
    82  H    0.072747
    83  H    0.053664
    84  H    0.056663
    85  H    0.044921
    86  H    0.042146
    87  H    0.031539
    88  H    0.046462
    89  H    0.041599
    90  H    0.043775
    91  H    0.038202
    92  H    0.036333
    93  H    0.030063
    94  H    0.032591
    95  H    0.051423
    96  H    0.039046
    97  H    0.059023
    98  H    0.069255
    99  H    0.060652
   100  H    0.066041
   101  H    0.075354
   102  H    0.014163
   103  H    0.071829
   104  H    0.024133
   105  H    0.041707
   106  H    0.034191
   107  H    0.054321
   108  H    0.027510
   109  H    0.010065
   110  H    0.021533
   111  H    0.022002
   112  H    0.022025
   113  H    0.020479
   114  H    0.028651
   115  H    0.019889
   116  H    0.027992
   117  H    0.024056
   118  H    0.028120
   119  H    0.006420
   120  H    0.021225
   121  H    0.015560
   122  H   -0.000954
   123  H    0.018710
   124  H    0.019527
   125  H    0.025342
   126  H    0.023099
   127  H    0.009846
   128  H    0.020255
   129  H    0.003575
   130  H    0.025828
   131  H    0.014990
   132  H    0.013538
   133  H    0.012287
   134  H    0.018489
   135  H    0.013632
   136  H    0.028524
   137  H    0.038274
   138  H    0.028888
   139  H    0.027320
   140  H    0.032753
 Sum of Mulliken charges =  -0.00000

 Dipole moment (field-independent basis, Debye):
    X=              2.5245    Y=              1.3834    Z=              1.3200  Tot=              3.1669
 Quadrupole moment (field-independent basis, Debye-Ang):
   XX=           -379.8002   YY=           -409.6099   ZZ=           -393.9131
   XY=             41.0697   XZ=             -0.2858   YZ=             16.5939

 Normal termination of Gaussian 16 at Sat Apr 30 05:45:22 2022.
