 Gaussian 16, Revision A.03,
 Gaussian 16:  ES64L-G16RevA.03 25-Dec-2016

 --------------------
 #p ZINDO=(nstates=5)
 --------------------

 -----------------------------
 step_601_chromophore_20 ZINDO
 -----------------------------
 Symbolic Z-matrix:
 Charge =  0 Multiplicity = 1

                         Standard orientation:
 ---------------------------------------------------------------------
 Center     Atomic      Atomic             Coordinates (Angstroms)
 Number     Number       Type             X           Y           Z
 ---------------------------------------------------------------------
      1         12           0        4.148665    1.284459   -0.541650
      2          6           0        3.677511   -2.154085   -1.031572
      3          6           0        1.568100    1.784994   -2.883171
      4          6           0        4.086316    4.480120    0.295778
      5          6           0        6.357534    0.598972    1.954533
      6          7           0        2.685839   -0.072376   -1.853698
      7          6           0        2.794751   -1.443565   -1.880901
      8          6           0        1.781900   -1.988346   -2.838233
      9          6           0        1.332884   -0.736493   -3.665340
     10          6           0        1.876211    0.416934   -2.815753
     11          6           0        1.806139   -0.692826   -5.081485
     12          6           0        0.558258   -2.748631   -2.203771
     13          6           0        0.001693   -3.995613   -2.902779
     14          6           0       -1.441295   -4.429462   -2.751118
     15          8           0       -2.415208   -4.126594   -3.436048
     16          8           0       -1.513244   -5.220333   -1.688388
     17          7           0        2.974837    2.918905   -1.158418
     18          6           0        2.017910    2.900110   -2.120105
     19          6           0        1.466159    4.203388   -2.278976
     20          6           0        2.102053    5.112494   -1.409169
     21          6           0        3.124204    4.152964   -0.729194
     22          6           0        0.451205    4.506408   -3.342114
     23          6           0        1.779950    6.589927   -1.224159
     24          8           0        1.110452    7.235186   -2.001115
     25          6           0        2.458256    7.197503   -0.076122
     26          7           0        5.058990    2.374125    1.024227
     27          6           0        4.930044    3.716917    1.053921
     28          6           0        6.042500    4.328670    2.041114
     29          6           0        6.809173    3.049037    2.479563
     30          6           0        6.047836    1.931061    1.782199
     31          6           0        6.999266    5.454204    1.438231
     32          6           0        6.966885    2.960760    4.001728
     33          6           0        8.402373    2.751383    4.604808
     34          7           0        4.940198   -0.412716    0.344846
     35          6           0        5.858881   -0.567293    1.308297
     36          6           0        6.278503   -1.973192    1.389555
     37          6           0        5.338191   -2.629004    0.543537
     38          6           0        4.663406   -1.652717   -0.109121
     39          6           0        7.276500   -2.558610    2.279955
     40          6           0        4.971292   -3.943937    0.033319
     41          8           0        5.315783   -5.103144    0.174944
     42          6           0        3.786075   -3.633748   -0.938467
     43          6           0        2.664734   -4.478151   -0.314952
     44          8           0        1.978899   -4.198285    0.642923
     45          8           0        2.549885   -5.610314   -1.117157
     46          6           0        1.574481   -6.666189   -0.671771
     47          6           0       -2.855841   -5.707897   -1.413917
     48          6           0       -3.398893   -4.754780   -0.325387
     49          6           0       -3.637753   -4.947247    0.937881
     50          6           0       -3.304768   -6.231784    1.691213
     51          6           0       -4.195916   -3.824731    1.794634
     52          6           0       -5.617867   -3.407050    1.665620
     53          6           0       -6.325313   -3.310079    3.082955
     54          6           0       -5.947852   -1.900456    3.620711
     55          6           0       -5.549088   -1.977915    5.138647
     56          6           0       -7.166893   -0.952054    3.420779
     57          6           0       -6.730194    0.621570    3.118926
     58          6           0       -6.616732    0.905323    1.648480
     59          6           0       -7.917607    1.262247    1.042531
     60          6           0       -8.138275    0.612881   -0.291968
     61          6           0       -8.159026    2.758407    0.884321
     62          6           0       -9.609387    3.294871    1.095007
     63          6           0       -9.848900    4.500201    0.136607
     64          6           0      -10.668158    4.210603   -1.165630
     65          6           0      -10.172882    5.064610   -2.265749
     66          6           0      -12.202663    4.322345   -0.897878
     67          1           0        0.784517    1.922174   -3.630761
     68          1           0        4.162541    5.538033    0.558168
     69          1           0        7.066710    0.435560    2.768134
     70          1           0        2.205530   -2.633942   -3.607772
     71          1           0        0.253247   -0.592560   -3.707583
     72          1           0        2.007228   -1.590829   -5.664777
     73          1           0        2.685425   -0.050267   -5.126480
     74          1           0        1.106281   -0.166485   -5.730438
     75          1           0       -0.258161   -2.027815   -2.152652
     76          1           0        0.734103   -3.027725   -1.165273
     77          1           0        0.571266   -4.825859   -2.486062
     78          1           0        0.198385   -3.943979   -3.972972
     79          1           0       -0.303636    3.751499   -3.563083
     80          1           0        0.998717    4.904752   -4.196213
     81          1           0       -0.127754    5.398241   -3.101935
     82          1           0        3.540731    7.165626   -0.201737
     83          1           0        2.282360    6.474995    0.720739
     84          1           0        2.142913    8.219342    0.132005
     85          1           0        5.522416    4.710304    2.920148
     86          1           0        7.801917    2.967763    2.037766
     87          1           0        6.916149    6.327199    2.086301
     88          1           0        6.707532    5.738300    0.427564
     89          1           0        8.068361    5.246225    1.483301
     90          1           0        6.490591    2.065159    4.399179
     91          1           0        6.623895    3.866442    4.503594
     92          1           0        8.353137    2.928660    5.679690
     93          1           0        9.226520    3.383448    4.271633
     94          1           0        8.758724    1.735123    4.437230
     95          1           0        7.122906   -2.416380    3.349635
     96          1           0        8.237857   -2.088836    2.069734
     97          1           0        7.285598   -3.627720    2.065102
     98          1           0        4.019077   -4.073434   -1.908242
     99          1           0        0.938013   -6.860929   -1.534786
    100          1           0        0.879002   -6.312946    0.090367
    101          1           0        2.156181   -7.504784   -0.290043
    102          1           0       -2.658597   -6.694017   -0.992685
    103          1           0       -3.522408   -5.904008   -2.253628
    104          1           0       -3.633202   -3.772060   -0.735819
    105          1           0       -3.860743   -7.089378    1.312081
    106          1           0       -3.517796   -6.130899    2.755760
    107          1           0       -2.266075   -6.504038    1.504864
    108          1           0       -3.649650   -2.904727    1.587040
    109          1           0       -3.881221   -4.048809    2.813085
    110          1           0       -6.117264   -4.145485    1.038445
    111          1           0       -5.665126   -2.415827    1.215359
    112          1           0       -6.078648   -4.206408    3.652340
    113          1           0       -7.384139   -3.365952    2.831462
    114          1           0       -5.111123   -1.435372    3.100096
    115          1           0       -4.859225   -1.146699    5.284989
    116          1           0       -5.057937   -2.897073    5.456569
    117          1           0       -6.346508   -1.804320    5.860676
    118          1           0       -7.913675   -1.076419    4.204280
    119          1           0       -7.599880   -1.322873    2.491224
    120          1           0       -5.857142    0.851423    3.728918
    121          1           0       -7.532190    1.275896    3.461484
    122          1           0       -6.135096    0.020871    1.232362
    123          1           0       -5.896988    1.722725    1.586176
    124          1           0       -8.779288    0.873924    1.584823
    125          1           0       -7.886811    1.228593   -1.155418
    126          1           0       -9.146466    0.223210   -0.432910
    127          1           0       -7.507413   -0.275320   -0.300468
    128          1           0       -7.694523    3.239189    0.023419
    129          1           0       -7.623678    3.251224    1.695890
    130          1           0       -9.849094    3.737345    2.061907
    131          1           0      -10.315390    2.493805    0.877115
    132          1           0       -8.867486    4.886872   -0.138718
    133          1           0      -10.331250    5.247754    0.765975
    134          1           0      -10.546300    3.158473   -1.422132
    135          1           0      -10.975939    5.287717   -2.968771
    136          1           0       -9.465064    4.460978   -2.834448
    137          1           0       -9.735433    6.012927   -1.954550
    138          1           0      -12.561375    3.394508   -1.343980
    139          1           0      -12.557888    5.192661   -1.449039
    140          1           0      -12.461025    4.365740    0.160302
 ---------------------------------------------------------------------

 SCF Done:  E(RZINDO/S) =  -474.657021128     A.U. after   19 cycles

 Excitation energies and oscillator strengths:

 Excited State   1:      Singlet-A      1.3235 eV  936.81 nm  f=0.5937  <S**2>=0.000
     175 ->178        -0.18615
     176 ->177         0.66363
 This state for optimization and/or second-order correction.
 Total Energy, E(CIS/TDA) =  -474.608384463
 Copying the excited state density for this state as the 1-particle RhoCI density.

 Excited State   2:      Singlet-A      1.9329 eV  641.45 nm  f=0.0541  <S**2>=0.000
     175 ->177         0.55566
     176 ->178         0.40608

 Excited State   3:      Singlet-A      2.9973 eV  413.65 nm  f=0.0602  <S**2>=0.000
     169 ->177         0.10954
     169 ->179         0.16375
     169 ->181        -0.11989
     170 ->177         0.25088
     170 ->178         0.11937
     170 ->179         0.32732
     170 ->180         0.16063
     170 ->181        -0.24178
     170 ->185         0.16672
     170 ->186        -0.10623
     175 ->177         0.10022
     176 ->178        -0.14011

 Excited State   4:      Singlet-A      3.0384 eV  408.05 nm  f=1.0384  <S**2>=0.000
     175 ->177        -0.36816
     176 ->178         0.51004
     176 ->179         0.13522
     176 ->180         0.10030

 Excited State   5:      Singlet-A      3.0833 eV  402.12 nm  f=0.0473  <S**2>=0.000
     168 ->177        -0.10999
     168 ->179         0.15524
     168 ->181         0.12779
     176 ->179         0.54062
     176 ->180        -0.17752
     176 ->181        -0.19009

 The electronic state is 1-A.
 Alpha  occ. eigenvalues --   -1.85735  -1.82815  -1.81114  -1.76806  -1.73061
 Alpha  occ. eigenvalues --   -1.71050  -1.67380  -1.61743  -1.60777  -1.58411
 Alpha  occ. eigenvalues --   -1.56630  -1.50552  -1.48375  -1.48204  -1.46391
 Alpha  occ. eigenvalues --   -1.44450  -1.43985  -1.41233  -1.39079  -1.38329
 Alpha  occ. eigenvalues --   -1.36463  -1.34600  -1.33144  -1.32314  -1.30385
 Alpha  occ. eigenvalues --   -1.28234  -1.27293  -1.24529  -1.21101  -1.18161
 Alpha  occ. eigenvalues --   -1.16887  -1.16024  -1.15766  -1.14325  -1.13936
 Alpha  occ. eigenvalues --   -1.12656  -1.09386  -1.08838  -1.05465  -1.04060
 Alpha  occ. eigenvalues --   -1.02115  -1.01599  -0.98233  -0.97867  -0.96802
 Alpha  occ. eigenvalues --   -0.95694  -0.94767  -0.94059  -0.93502  -0.92919
 Alpha  occ. eigenvalues --   -0.91512  -0.91252  -0.89503  -0.88603  -0.87374
 Alpha  occ. eigenvalues --   -0.86910  -0.84698  -0.83730  -0.81614  -0.80897
 Alpha  occ. eigenvalues --   -0.79518  -0.79064  -0.77598  -0.77069  -0.76628
 Alpha  occ. eigenvalues --   -0.76273  -0.75049  -0.74410  -0.74196  -0.73751
 Alpha  occ. eigenvalues --   -0.73731  -0.72913  -0.72481  -0.71505  -0.70663
 Alpha  occ. eigenvalues --   -0.70448  -0.69510  -0.69353  -0.68518  -0.68356
 Alpha  occ. eigenvalues --   -0.67674  -0.66571  -0.66443  -0.65996  -0.65725
 Alpha  occ. eigenvalues --   -0.64998  -0.64537  -0.63895  -0.63500  -0.63385
 Alpha  occ. eigenvalues --   -0.63167  -0.63090  -0.62931  -0.62599  -0.62183
 Alpha  occ. eigenvalues --   -0.61781  -0.61342  -0.61080  -0.60554  -0.60488
 Alpha  occ. eigenvalues --   -0.59801  -0.59428  -0.58778  -0.58735  -0.57896
 Alpha  occ. eigenvalues --   -0.57625  -0.57200  -0.56823  -0.56470  -0.55663
 Alpha  occ. eigenvalues --   -0.55587  -0.55357  -0.55259  -0.54654  -0.54288
 Alpha  occ. eigenvalues --   -0.53611  -0.53222  -0.53133  -0.52680  -0.52394
 Alpha  occ. eigenvalues --   -0.52139  -0.52102  -0.51770  -0.51131  -0.50900
 Alpha  occ. eigenvalues --   -0.50614  -0.50565  -0.50451  -0.50137  -0.49815
 Alpha  occ. eigenvalues --   -0.49760  -0.49236  -0.48923  -0.48754  -0.48654
 Alpha  occ. eigenvalues --   -0.48542  -0.48230  -0.48057  -0.47721  -0.47389
 Alpha  occ. eigenvalues --   -0.47118  -0.46990  -0.46573  -0.46322  -0.46204
 Alpha  occ. eigenvalues --   -0.45979  -0.45789  -0.45644  -0.45632  -0.45354
 Alpha  occ. eigenvalues --   -0.45068  -0.44879  -0.44720  -0.44462  -0.44158
 Alpha  occ. eigenvalues --   -0.43755  -0.43271  -0.42872  -0.42629  -0.42350
 Alpha  occ. eigenvalues --   -0.41541  -0.41449  -0.40872  -0.39434  -0.38513
 Alpha  occ. eigenvalues --   -0.38410  -0.37330  -0.36306  -0.35285  -0.34749
 Alpha  occ. eigenvalues --   -0.34102  -0.33268  -0.32463  -0.32230  -0.26872
 Alpha  occ. eigenvalues --   -0.22252
 Alpha virt. eigenvalues --   -0.08701  -0.02319  -0.00733   0.00844   0.01110
 Alpha virt. eigenvalues --    0.02276   0.02991   0.03209   0.04599   0.06033
 Alpha virt. eigenvalues --    0.06096   0.06326   0.06965   0.07709   0.07903

 Mulliken charges:
               1
     1  Mg   0.440616
     2  C   -0.031496
     3  C   -0.068919
     4  C   -0.104674
     5  C   -0.081849
     6  N   -0.287920
     7  C    0.091516
     8  C    0.014374
     9  C    0.016748
    10  C    0.146517
    11  C   -0.048026
    12  C   -0.019834
    13  C    0.001663
    14  C    0.477500
    15  O   -0.533221
    16  O   -0.244782
    17  N   -0.291933
    18  C    0.120006
    19  C    0.055785
    20  C   -0.076199
    21  C    0.151617
    22  C   -0.046322
    23  C    0.348695
    24  O   -0.510263
    25  C   -0.029567
    26  N   -0.273977
    27  C    0.142453
    28  C   -0.004545
    29  C    0.007600
    30  C    0.122873
    31  C   -0.054910
    32  C   -0.029967
    33  C   -0.063888
    34  N   -0.310779
    35  C    0.090905
    36  C    0.001135
    37  C   -0.044922
    38  C    0.097647
    39  C   -0.033557
    40  C    0.336570
    41  O   -0.517091
    42  C    0.050257
    43  C    0.497270
    44  O   -0.517641
    45  O   -0.282029
    46  C    0.069841
    47  C    0.102089
    48  C   -0.071213
    49  C    0.000593
    50  C   -0.045678
    51  C   -0.020091
    52  C   -0.030407
    53  C   -0.039621
    54  C   -0.003600
    55  C   -0.064703
    56  C   -0.048525
    57  C   -0.044015
    58  C   -0.014975
    59  C    0.006993
    60  C   -0.058768
    61  C   -0.035004
    62  C   -0.042624
    63  C   -0.042971
    64  C   -0.009093
    65  C   -0.047788
    66  C   -0.063632
    67  H    0.027464
    68  H    0.019697
    69  H    0.013653
    70  H    0.025029
    71  H    0.031572
    72  H    0.028180
    73  H    0.015751
    74  H    0.011359
    75  H    0.021629
    76  H    0.039391
    77  H    0.035582
    78  H    0.030908
    79  H    0.033045
    80  H    0.041068
    81  H    0.029897
    82  H    0.043658
    83  H    0.035742
    84  H    0.040255
    85  H    0.035070
    86  H    0.032608
    87  H    0.014170
    88  H    0.026988
    89  H    0.027079
    90  H    0.027455
    91  H    0.022492
    92  H    0.014589
    93  H    0.017272
    94  H    0.016960
    95  H    0.031672
    96  H    0.025519
    97  H    0.030801
    98  H    0.049249
    99  H    0.035210
   100  H    0.048737
   101  H    0.050667
   102  H    0.017903
   103  H    0.062148
   104  H    0.026962
   105  H    0.022341
   106  H    0.023161
   107  H    0.029024
   108  H    0.013980
   109  H    0.015521
   110  H    0.014084
   111  H    0.024053
   112  H    0.028380
   113  H    0.014083
   114  H    0.031743
   115  H    0.009080
   116  H    0.019250
   117  H    0.018998
   118  H    0.027320
   119  H    0.013233
   120  H    0.020006
   121  H    0.011643
   122  H    0.019501
   123  H    0.013487
   124  H    0.021356
   125  H    0.019332
   126  H    0.013400
   127  H    0.008592
   128  H    0.028526
   129  H   -0.000761
   130  H    0.024014
   131  H    0.018921
   132  H    0.015207
   133  H    0.013962
   134  H    0.018250
   135  H    0.009313
   136  H    0.013949
   137  H    0.024178
   138  H    0.017549
   139  H    0.023023
   140  H    0.024629
 Sum of Mulliken charges =  -0.00000

 Dipole moment (field-independent basis, Debye):
    X=              3.7753    Y=              3.4707    Z=             -0.1569  Tot=              5.1306
 N-N= 4.476119266087D+03 E-N= 0.000000000000D+00  KE=-9.626859593022D+03
 Leave Link  601 at Sat Apr 30 05:57:49 2022, MaxMem=  6710886400 cpu:               0.8 elap:               0.0
 (Enter /sw/apps/gaussian-16.0/g16/l9999.exe)
 1\1\GINC-BP1-COMPUTE156\SP\RZINDO CIS\STO-3G\C55H74Mg1N4O6\OF15641\30-
 Apr-2022\0\\#p ZINDO=(nstates=5)\\step_601_chromophore_20 ZINDO\\0,1\M
 g,0,7.343,57.679,41.586\C,0,6.444,54.292,41.511\C,0,10.429,56.701,40.2
 03\C,0,8.043,60.862,41.042\C,0,4.184,58.468,42.575\N,0,8.376,55.65,40.
 866\C,0,7.771,54.426,41.035\C,0,8.696,53.359,40.54\C,0,10.08,54.083,40
 .425\C,0,9.675,55.558,40.513\C,0,11.1,53.695,41.445\C,0,8.287,52.647,3
 9.197\C,0,8.532,51.141,39.038\C,0,8.742,50.496,37.684\O,0,9.791,50.304

 Normal termination of Gaussian 16 at Sat Apr 30 05:57:49 2022.
