 Gaussian 16, Revision A.03,
 Gaussian 16:  ES64L-G16RevA.03 25-Dec-2016

 ------------------------------
 #p blyp/Def2SVP td=(nstates=5)
 ------------------------------

 ---------------------------------------------------
 step_1201_chromophore_22 TDDFT with blyp functional
 ---------------------------------------------------
 Symbolic Z-matrix:
 Charge =  0 Multiplicity = 1

                         Standard orientation:
 ---------------------------------------------------------------------
 Center     Atomic      Atomic             Coordinates (Angstroms)
 Number     Number       Type             X           Y           Z
 ---------------------------------------------------------------------
      1         12           0        6.280671    0.592260   -0.175272
      2          6           0        4.058042   -2.077090   -0.294239
      3          6           0        3.915753    2.476828   -1.705715
      4          6           0        8.316943    3.152606    0.231664
      5          6           0        8.776063   -1.539138    1.030399
      6          7           0        4.107085    0.155875   -0.824940
      7          6           0        3.479165   -0.997316   -0.858362
      8          6           0        2.118243   -0.889611   -1.524801
      9          6           0        2.295771    0.522077   -2.330385
     10          6           0        3.484858    1.137981   -1.512706
     11          6           0        2.491585    0.426584   -3.841725
     12          6           0        0.956980   -1.005063   -0.517031
     13          6           0       -0.425036   -0.389796   -0.844691
     14          6           0       -1.691557   -1.299788   -1.087438
     15          8           0       -2.184848   -1.711536   -2.174685
     16          8           0       -2.093977   -1.809443    0.153758
     17          7           0        6.132943    2.612400   -0.650841
     18          6           0        5.100863    3.206431   -1.341492
     19          6           0        5.441413    4.653399   -1.472801
     20          6           0        6.724209    4.832295   -0.826735
     21          6           0        7.138512    3.481429   -0.434085
     22          6           0        4.421138    5.635422   -1.928010
     23          6           0        7.439448    6.082573   -0.468901
     24          8           0        8.514001    6.255106    0.085321
     25          6           0        6.674311    7.347599   -0.694998
     26          7           0        8.350289    0.729766    0.523669
     27          6           0        8.939646    1.878126    0.698560
     28          6           0       10.222000    1.938991    1.570900
     29          6           0       10.371532    0.367048    1.745902
     30          6           0        9.087598   -0.208123    1.105133
     31          6           0       11.500594    2.530997    0.964157
     32          6           0       10.555190   -0.147112    3.196310
     33          6           0       11.223072   -1.502466    3.449262
     34          7           0        6.458234   -1.323890    0.236162
     35          6           0        7.533554   -2.083620    0.711394
     36          6           0        7.081310   -3.435207    0.829143
     37          6           0        5.740723   -3.457926    0.517085
     38          6           0        5.393305   -2.150558    0.162374
     39          6           0        8.005277   -4.637397    1.296682
     40          6           0        4.630977   -4.394834    0.301549
     41          8           0        4.493836   -5.618536    0.450691
     42          6           0        3.451196   -3.494950   -0.176943
     43          6           0        2.437191   -3.640837    0.909528
     44          8           0        2.467777   -2.905895    1.890875
     45          8           0        1.477538   -4.574128    0.600456
     46          6           0        0.326342   -4.520158    1.578685
     47          6           0       -3.226721   -2.801052    0.175919
     48          6           0       -4.520287   -2.019266   -0.057689
     49          6           0       -5.784696   -2.529036   -0.281047
     50          6           0       -6.040969   -4.044671   -0.140136
     51          6           0       -6.983583   -1.612032   -0.558223
     52          6           0       -7.507358   -2.086274   -1.968901
     53          6           0       -8.354825   -0.895234   -2.571096
     54          6           0       -9.850392   -1.321013   -2.759282
     55          6           0      -10.223267   -2.092861   -3.920823
     56          6           0      -10.783851   -0.105677   -2.566073
     57          6           0      -10.912745    0.367223   -1.076334
     58          6           0      -12.322484    0.019057   -0.385610
     59          6           0      -13.295658    1.271387   -0.313083
     60          6           0      -14.377184    1.308579   -1.432273
     61          6           0      -13.912085    1.219367    1.142197
     62          6           0      -14.227519    2.648345    1.682952
     63          6           0      -14.694904    2.449645    3.184283
     64          6           0      -16.184652    2.874931    3.501453
     65          6           0      -16.311255    4.353631    3.976597
     66          6           0      -16.895476    1.881240    4.515281
     67          1           0        3.286393    3.034168   -2.402269
     68          1           0        8.984003    4.014726    0.300224
     69          1           0        9.515547   -2.221441    1.455848
     70          1           0        2.139311   -1.715490   -2.235300
     71          1           0        1.574161    1.298291   -2.076061
     72          1           0        2.673098   -0.582944   -4.210002
     73          1           0        3.311621    1.079035   -4.139151
     74          1           0        1.615154    0.743288   -4.406848
     75          1           0        1.285816   -0.588161    0.434463
     76          1           0        0.745959   -2.074337   -0.476993
     77          1           0       -0.304940    0.224603   -1.736759
     78          1           0       -0.658608    0.207112    0.037599
     79          1           0        3.436643    5.210276   -2.119451
     80          1           0        4.819429    6.134248   -2.811386
     81          1           0        4.285221    6.380542   -1.144951
     82          1           0        5.791470    7.505525   -0.075697
     83          1           0        6.441231    7.254138   -1.755792
     84          1           0        7.326418    8.209447   -0.553786
     85          1           0       10.071669    2.417814    2.538617
     86          1           0       11.243309    0.056577    1.171347
     87          1           0       11.339997    2.498141   -0.113107
     88          1           0       12.403816    1.928748    1.068230
     89          1           0       11.587436    3.566609    1.293151
     90          1           0        9.523812   -0.315258    3.506149
     91          1           0       11.157663    0.605153    3.706072
     92          1           0       10.657006   -2.210884    4.053761
     93          1           0       12.249186   -1.398323    3.800710
     94          1           0       11.319650   -2.070998    2.524775
     95          1           0        8.657192   -4.420396    2.142888
     96          1           0        8.521707   -4.677018    0.337998
     97          1           0        7.487746   -5.549427    1.592576
     98          1           0        3.238630   -3.839731   -1.188815
     99          1           0       -0.519286   -5.046563    1.136899
    100          1           0       -0.072105   -3.521424    1.756604
    101          1           0        0.523359   -5.059279    2.505817
    102          1           0       -3.301528   -3.190998    1.191582
    103          1           0       -3.116643   -3.591257   -0.566228
    104          1           0       -4.528793   -0.942968   -0.223915
    105          1           0       -6.431586   -4.548304   -1.024743
    106          1           0       -6.827485   -4.092429    0.612104
    107          1           0       -5.254128   -4.517271    0.448369
    108          1           0       -6.789750   -0.540298   -0.608630
    109          1           0       -7.698484   -1.700281    0.259643
    110          1           0       -8.191709   -2.924831   -1.846401
    111          1           0       -6.627580   -2.368790   -2.547388
    112          1           0       -7.932497   -0.475818   -3.484124
    113          1           0       -8.251309   -0.039876   -1.904078
    114          1           0      -10.179629   -1.988590   -1.962599
    115          1           0       -9.481692   -2.097516   -4.718531
    116          1           0      -11.088885   -1.705050   -4.457879
    117          1           0      -10.401192   -3.129012   -3.633167
    118          1           0      -11.736724   -0.094793   -3.094576
    119          1           0      -10.337999    0.716036   -3.126509
    120          1           0      -10.886758    1.450618   -1.187534
    121          1           0      -10.147499    0.033040   -0.374744
    122          1           0      -12.252251   -0.403682    0.616783
    123          1           0      -12.754199   -0.729810   -1.048866
    124          1           0      -12.696439    2.176569   -0.415416
    125          1           0      -15.380351    1.232199   -1.014345
    126          1           0      -14.241854    0.405286   -2.026788
    127          1           0      -14.177641    2.173650   -2.064632
    128          1           0      -13.438670    0.651136    1.942673
    129          1           0      -14.902391    0.774170    1.050431
    130          1           0      -14.954352    3.121421    1.022094
    131          1           0      -13.314409    3.240432    1.622068
    132          1           0      -14.029583    3.115622    3.733635
    133          1           0      -14.554479    1.439219    3.567937
    134          1           0      -16.649843    2.732054    2.525910
    135          1           0      -16.909919    5.000644    3.336358
    136          1           0      -15.328356    4.825429    3.969294
    137          1           0      -16.600721    4.332656    5.027369
    138          1           0      -17.245262    2.479167    5.356779
    139          1           0      -16.182747    1.075215    4.688792
    140          1           0      -17.773702    1.505384    3.990807
 ---------------------------------------------------------------------

 SCF Done:  E(RB-LYP) =  -3007.33181083     A.U. after   21 cycles

 Excitation energies and oscillator strengths:

 Excited State   1:      Singlet-A      1.8706 eV  662.80 nm  f=0.2633  <S**2>=0.000
     244 -> 247        0.23236
     245 -> 248        0.19292
     246 -> 247        0.64248
     246 <- 247       -0.12322
 This state for optimization and/or second-order correction.
 Total Energy, E(TD-HF/TD-DFT) =  -3007.26306662
 Copying the excited state density for this state as the 1-particle RhoCI density.

 Excited State   2:      Singlet-A      1.9078 eV  649.87 nm  f=0.0401  <S**2>=0.000
     244 -> 247        0.66532
     246 -> 247       -0.22287

 Excited State   3:      Singlet-A      1.9969 eV  620.89 nm  f=0.0423  <S**2>=0.000
     243 -> 247        0.40073
     245 -> 247        0.54653
     246 -> 248       -0.17573

 Excited State   4:      Singlet-A      2.0816 eV  595.63 nm  f=0.0286  <S**2>=0.000
     243 -> 247        0.58051
     245 -> 247       -0.36091
     246 -> 248        0.16057

 Excited State   5:      Singlet-A      2.2015 eV  563.18 nm  f=0.0000  <S**2>=0.000
     242 -> 247        0.70710

 The electronic state is 1-A.
 Alpha  occ. eigenvalues --  -46.27310 -18.82736 -18.82362 -18.77339 -18.76604
 Alpha  occ. eigenvalues --  -18.75948 -18.75451 -14.03426 -14.02696 -14.01349
 Alpha  occ. eigenvalues --  -14.01024 -10.04976 -10.03993  -9.99886  -9.99513
 Alpha  occ. eigenvalues --   -9.98994  -9.97748  -9.97122  -9.96780  -9.96568
 Alpha  occ. eigenvalues --   -9.95726  -9.95662  -9.95536  -9.95279  -9.95106
 Alpha  occ. eigenvalues --   -9.94593  -9.94546  -9.94536  -9.94299  -9.94187
 Alpha  occ. eigenvalues --   -9.93714  -9.93688  -9.93649  -9.93444  -9.93431
 Alpha  occ. eigenvalues --   -9.93271  -9.93229  -9.93032  -9.92980  -9.92780
 Alpha  occ. eigenvalues --   -9.92673  -9.92601  -9.92490  -9.92407  -9.92356
 Alpha  occ. eigenvalues --   -9.92261  -9.92104  -9.91961  -9.91956  -9.91887
 Alpha  occ. eigenvalues --   -9.91881  -9.91631  -9.91563  -9.91372  -9.91292
 Alpha  occ. eigenvalues --   -9.91168  -9.91102  -9.91032  -9.90996  -9.90920
 Alpha  occ. eigenvalues --   -9.90897  -9.90882  -9.90869  -9.90842  -9.90747
 Alpha  occ. eigenvalues --   -9.90181  -2.92007  -1.72438  -1.71919  -1.71693
 Alpha  occ. eigenvalues --   -0.97097  -0.95941  -0.91670  -0.90539  -0.89541
 Alpha  occ. eigenvalues --   -0.88575  -0.88145  -0.87225  -0.85880  -0.85498
 Alpha  occ. eigenvalues --   -0.75479  -0.73361  -0.72663  -0.72593  -0.72070
 Alpha  occ. eigenvalues --   -0.71700  -0.71572  -0.71229  -0.70981  -0.69966
 Alpha  occ. eigenvalues --   -0.69652  -0.68937  -0.67924  -0.67678  -0.66931
 Alpha  occ. eigenvalues --   -0.66207  -0.65735  -0.65084  -0.64639  -0.64367
 Alpha  occ. eigenvalues --   -0.64044  -0.62725  -0.62535  -0.61914  -0.61108
 Alpha  occ. eigenvalues --   -0.60513  -0.60179  -0.59733  -0.59488  -0.58338
 Alpha  occ. eigenvalues --   -0.57949  -0.57549  -0.57190  -0.55803  -0.54941
 Alpha  occ. eigenvalues --   -0.53899  -0.53459  -0.52919  -0.52357  -0.51903
 Alpha  occ. eigenvalues --   -0.51706  -0.51055  -0.50910  -0.50445  -0.49895
 Alpha  occ. eigenvalues --   -0.49276  -0.48987  -0.48487  -0.48342  -0.46822
 Alpha  occ. eigenvalues --   -0.46156  -0.45991  -0.45783  -0.45236  -0.44877
 Alpha  occ. eigenvalues --   -0.44570  -0.43544  -0.43279  -0.42573  -0.42299
 Alpha  occ. eigenvalues --   -0.42051  -0.41760  -0.41317  -0.41068  -0.40719
 Alpha  occ. eigenvalues --   -0.40679  -0.40395  -0.40310  -0.40103  -0.39900
 Alpha  occ. eigenvalues --   -0.39704  -0.39564  -0.39475  -0.39430  -0.39123
 Alpha  occ. eigenvalues --   -0.38852  -0.38632  -0.38463  -0.38371  -0.38059
 Alpha  occ. eigenvalues --   -0.37856  -0.37759  -0.37595  -0.37544  -0.37387
 Alpha  occ. eigenvalues --   -0.37095  -0.36941  -0.36665  -0.36563  -0.36332
 Alpha  occ. eigenvalues --   -0.36240  -0.36182  -0.36109  -0.36027  -0.35885
 Alpha  occ. eigenvalues --   -0.35681  -0.35634  -0.35564  -0.35033  -0.34805
 Alpha  occ. eigenvalues --   -0.34651  -0.34345  -0.34267  -0.34173  -0.34045
 Alpha  occ. eigenvalues --   -0.33675  -0.33305  -0.33293  -0.33144  -0.33084
 Alpha  occ. eigenvalues --   -0.32896  -0.32816  -0.32580  -0.32354  -0.32106
 Alpha  occ. eigenvalues --   -0.31817  -0.31664  -0.31550  -0.31510  -0.31444
 Alpha  occ. eigenvalues --   -0.31213  -0.30984  -0.30877  -0.30808  -0.30585
 Alpha  occ. eigenvalues --   -0.30328  -0.30169  -0.30115  -0.29762  -0.29712
 Alpha  occ. eigenvalues --   -0.29619  -0.29535  -0.29415  -0.28912  -0.28609
 Alpha  occ. eigenvalues --   -0.28591  -0.28494  -0.28224  -0.28118  -0.27619
 Alpha  occ. eigenvalues --   -0.27466  -0.27440  -0.26812  -0.26665  -0.26517
 Alpha  occ. eigenvalues --   -0.26423  -0.26268  -0.25535  -0.25501  -0.25376
 Alpha  occ. eigenvalues --   -0.25270  -0.24816  -0.24493  -0.24237  -0.23652
 Alpha  occ. eigenvalues --   -0.22827  -0.22057  -0.21917  -0.21821  -0.21206
 Alpha  occ. eigenvalues --   -0.20932  -0.19490  -0.18841  -0.18299  -0.17154
 Alpha  occ. eigenvalues --   -0.16062
 Alpha virt. eigenvalues --   -0.11400  -0.07050  -0.06387  -0.04787  -0.04449
 Alpha virt. eigenvalues --   -0.02321  -0.01391  -0.01228  -0.01042  -0.00470
 Alpha virt. eigenvalues --    0.00784   0.01846   0.02478   0.02505   0.02836

 Mulliken charges:
               1
     1  Mg   0.697580
     2  C   -0.042241
     3  C   -0.044369
     4  C   -0.040809
     5  C   -0.087510
     6  N   -0.153432
     7  C   -0.156077
     8  C    0.050444
     9  C   -0.020805
    10  C   -0.022447
    11  C    0.150780
    12  C    0.121502
    13  C    0.149635
    14  C    0.099189
    15  O   -0.212810
    16  O   -0.303405
    17  N   -0.295202
    18  C    0.100527
    19  C   -0.133916
    20  C    0.040461
    21  C    0.092655
    22  C    0.171358
    23  C   -0.079629
    24  O   -0.153149
    25  C    0.114266
    26  N   -0.126027
    27  C   -0.017524
    28  C   -0.002116
    29  C    0.030506
    30  C    0.003785
    31  C    0.123379
    32  C    0.092108
    33  C    0.064114
    34  N   -0.316624
    35  C    0.130833
    36  C   -0.197254
    37  C    0.090845
    38  C    0.170377
    39  C    0.144867
    40  C   -0.066663
    41  O   -0.142807
    42  C    0.090850
    43  C    0.151356
    44  O   -0.191778
    45  O   -0.269166
    46  C    0.213143
    47  C    0.338677
    48  C   -0.112948
    49  C   -0.182149
    50  C    0.144213
    51  C    0.114637
    52  C    0.047758
    53  C    0.132217
    54  C   -0.056970
    55  C    0.140896
    56  C    0.073425
    57  C    0.066065
    58  C    0.101161
    59  C   -0.079240
    60  C    0.128809
    61  C    0.036352
    62  C    0.060545
    63  C    0.095863
    64  C   -0.128262
    65  C    0.120159
    66  C    0.114561
    67  H   -0.057236
    68  H   -0.045974
    69  H   -0.083367
    70  H   -0.035863
    71  H   -0.020129
    72  H   -0.007660
    73  H   -0.009181
    74  H   -0.005991
    75  H    0.000537
    76  H    0.011527
    77  H   -0.007722
    78  H   -0.007365
    79  H   -0.011605
    80  H    0.009785
    81  H    0.004313
    82  H    0.023662
    83  H   -0.011749
    84  H   -0.016176
    85  H   -0.005983
    86  H   -0.029730
    87  H   -0.016021
    88  H   -0.004075
    89  H    0.015195
    90  H   -0.010627
    91  H   -0.013359
    92  H   -0.002976
    93  H   -0.012520
    94  H   -0.015676
    95  H    0.004640
    96  H    0.013031
    97  H    0.012007
    98  H    0.000150
    99  H    0.000282
   100  H    0.025565
   101  H    0.023249
   102  H    0.011674
   103  H    0.025374
   104  H   -0.036057
   105  H    0.019571
   106  H   -0.023341
   107  H   -0.023147
   108  H   -0.027659
   109  H   -0.014461
   110  H   -0.012885
   111  H   -0.002465
   112  H   -0.036160
   113  H   -0.038101
   114  H   -0.043750
   115  H   -0.034249
   116  H   -0.028335
   117  H   -0.018360
   118  H   -0.044167
   119  H   -0.052499
   120  H   -0.035759
   121  H   -0.019300
   122  H   -0.035634
   123  H   -0.035040
   124  H   -0.029109
   125  H   -0.012431
   126  H   -0.023307
   127  H   -0.008753
   128  H   -0.017443
   129  H   -0.038015
   130  H   -0.027448
   131  H   -0.031658
   132  H   -0.036903
   133  H   -0.033131
   134  H   -0.034216
   135  H   -0.006693
   136  H   -0.028677
   137  H   -0.017524
   138  H   -0.011655
   139  H   -0.011566
   140  H   -0.014248
 Sum of Mulliken charges =  -0.00000

 Dipole moment (field-independent basis, Debye):
    X=             -1.6164    Y=              1.7050    Z=             -0.4521  Tot=              2.3925
 Quadrupole moment (field-independent basis, Debye-Ang):
   XX=           -378.4274   YY=           -428.5551   ZZ=           -405.3983
   XY=             -2.2306   XZ=              0.9158   YZ=            -10.2688

 Normal termination of Gaussian 16 at Wed Apr 27 14:55:14 2022.
