 Gaussian 16, Revision A.03,
 Gaussian 16:  ES64L-G16RevA.03 25-Dec-2016

 -----------------------------------
 #p cam-b3lyp/Def2SVP td=(nstates=5)
 -----------------------------------

 --------------------------------------------------------
 step_1201_chromophore_22 TDDFT with cam-b3lyp functional
 --------------------------------------------------------
 Symbolic Z-matrix:
 Charge =  0 Multiplicity = 1

                         Standard orientation:
 ---------------------------------------------------------------------
 Center     Atomic      Atomic             Coordinates (Angstroms)
 Number     Number       Type             X           Y           Z
 ---------------------------------------------------------------------
      1         12           0        6.280671    0.592260   -0.175272
      2          6           0        4.058042   -2.077090   -0.294239
      3          6           0        3.915753    2.476828   -1.705715
      4          6           0        8.316943    3.152606    0.231664
      5          6           0        8.776063   -1.539138    1.030399
      6          7           0        4.107085    0.155875   -0.824940
      7          6           0        3.479165   -0.997316   -0.858362
      8          6           0        2.118243   -0.889611   -1.524801
      9          6           0        2.295771    0.522077   -2.330385
     10          6           0        3.484858    1.137981   -1.512706
     11          6           0        2.491585    0.426584   -3.841725
     12          6           0        0.956980   -1.005063   -0.517031
     13          6           0       -0.425036   -0.389796   -0.844691
     14          6           0       -1.691557   -1.299788   -1.087438
     15          8           0       -2.184848   -1.711536   -2.174685
     16          8           0       -2.093977   -1.809443    0.153758
     17          7           0        6.132943    2.612400   -0.650841
     18          6           0        5.100863    3.206431   -1.341492
     19          6           0        5.441413    4.653399   -1.472801
     20          6           0        6.724209    4.832295   -0.826735
     21          6           0        7.138512    3.481429   -0.434085
     22          6           0        4.421138    5.635422   -1.928010
     23          6           0        7.439448    6.082573   -0.468901
     24          8           0        8.514001    6.255106    0.085321
     25          6           0        6.674311    7.347599   -0.694998
     26          7           0        8.350289    0.729766    0.523669
     27          6           0        8.939646    1.878126    0.698560
     28          6           0       10.222000    1.938991    1.570900
     29          6           0       10.371532    0.367048    1.745902
     30          6           0        9.087598   -0.208123    1.105133
     31          6           0       11.500594    2.530997    0.964157
     32          6           0       10.555190   -0.147112    3.196310
     33          6           0       11.223072   -1.502466    3.449262
     34          7           0        6.458234   -1.323890    0.236162
     35          6           0        7.533554   -2.083620    0.711394
     36          6           0        7.081310   -3.435207    0.829143
     37          6           0        5.740723   -3.457926    0.517085
     38          6           0        5.393305   -2.150558    0.162374
     39          6           0        8.005277   -4.637397    1.296682
     40          6           0        4.630977   -4.394834    0.301549
     41          8           0        4.493836   -5.618536    0.450691
     42          6           0        3.451196   -3.494950   -0.176943
     43          6           0        2.437191   -3.640837    0.909528
     44          8           0        2.467777   -2.905895    1.890875
     45          8           0        1.477538   -4.574128    0.600456
     46          6           0        0.326342   -4.520158    1.578685
     47          6           0       -3.226721   -2.801052    0.175919
     48          6           0       -4.520287   -2.019266   -0.057689
     49          6           0       -5.784696   -2.529036   -0.281047
     50          6           0       -6.040969   -4.044671   -0.140136
     51          6           0       -6.983583   -1.612032   -0.558223
     52          6           0       -7.507358   -2.086274   -1.968901
     53          6           0       -8.354825   -0.895234   -2.571096
     54          6           0       -9.850392   -1.321013   -2.759282
     55          6           0      -10.223267   -2.092861   -3.920823
     56          6           0      -10.783851   -0.105677   -2.566073
     57          6           0      -10.912745    0.367223   -1.076334
     58          6           0      -12.322484    0.019057   -0.385610
     59          6           0      -13.295658    1.271387   -0.313083
     60          6           0      -14.377184    1.308579   -1.432273
     61          6           0      -13.912085    1.219367    1.142197
     62          6           0      -14.227519    2.648345    1.682952
     63          6           0      -14.694904    2.449645    3.184283
     64          6           0      -16.184652    2.874931    3.501453
     65          6           0      -16.311255    4.353631    3.976597
     66          6           0      -16.895476    1.881240    4.515281
     67          1           0        3.286393    3.034168   -2.402269
     68          1           0        8.984003    4.014726    0.300224
     69          1           0        9.515547   -2.221441    1.455848
     70          1           0        2.139311   -1.715490   -2.235300
     71          1           0        1.574161    1.298291   -2.076061
     72          1           0        2.673098   -0.582944   -4.210002
     73          1           0        3.311621    1.079035   -4.139151
     74          1           0        1.615154    0.743288   -4.406848
     75          1           0        1.285816   -0.588161    0.434463
     76          1           0        0.745959   -2.074337   -0.476993
     77          1           0       -0.304940    0.224603   -1.736759
     78          1           0       -0.658608    0.207112    0.037599
     79          1           0        3.436643    5.210276   -2.119451
     80          1           0        4.819429    6.134248   -2.811386
     81          1           0        4.285221    6.380542   -1.144951
     82          1           0        5.791470    7.505525   -0.075697
     83          1           0        6.441231    7.254138   -1.755792
     84          1           0        7.326418    8.209447   -0.553786
     85          1           0       10.071669    2.417814    2.538617
     86          1           0       11.243309    0.056577    1.171347
     87          1           0       11.339997    2.498141   -0.113107
     88          1           0       12.403816    1.928748    1.068230
     89          1           0       11.587436    3.566609    1.293151
     90          1           0        9.523812   -0.315258    3.506149
     91          1           0       11.157663    0.605153    3.706072
     92          1           0       10.657006   -2.210884    4.053761
     93          1           0       12.249186   -1.398323    3.800710
     94          1           0       11.319650   -2.070998    2.524775
     95          1           0        8.657192   -4.420396    2.142888
     96          1           0        8.521707   -4.677018    0.337998
     97          1           0        7.487746   -5.549427    1.592576
     98          1           0        3.238630   -3.839731   -1.188815
     99          1           0       -0.519286   -5.046563    1.136899
    100          1           0       -0.072105   -3.521424    1.756604
    101          1           0        0.523359   -5.059279    2.505817
    102          1           0       -3.301528   -3.190998    1.191582
    103          1           0       -3.116643   -3.591257   -0.566228
    104          1           0       -4.528793   -0.942968   -0.223915
    105          1           0       -6.431586   -4.548304   -1.024743
    106          1           0       -6.827485   -4.092429    0.612104
    107          1           0       -5.254128   -4.517271    0.448369
    108          1           0       -6.789750   -0.540298   -0.608630
    109          1           0       -7.698484   -1.700281    0.259643
    110          1           0       -8.191709   -2.924831   -1.846401
    111          1           0       -6.627580   -2.368790   -2.547388
    112          1           0       -7.932497   -0.475818   -3.484124
    113          1           0       -8.251309   -0.039876   -1.904078
    114          1           0      -10.179629   -1.988590   -1.962599
    115          1           0       -9.481692   -2.097516   -4.718531
    116          1           0      -11.088885   -1.705050   -4.457879
    117          1           0      -10.401192   -3.129012   -3.633167
    118          1           0      -11.736724   -0.094793   -3.094576
    119          1           0      -10.337999    0.716036   -3.126509
    120          1           0      -10.886758    1.450618   -1.187534
    121          1           0      -10.147499    0.033040   -0.374744
    122          1           0      -12.252251   -0.403682    0.616783
    123          1           0      -12.754199   -0.729810   -1.048866
    124          1           0      -12.696439    2.176569   -0.415416
    125          1           0      -15.380351    1.232199   -1.014345
    126          1           0      -14.241854    0.405286   -2.026788
    127          1           0      -14.177641    2.173650   -2.064632
    128          1           0      -13.438670    0.651136    1.942673
    129          1           0      -14.902391    0.774170    1.050431
    130          1           0      -14.954352    3.121421    1.022094
    131          1           0      -13.314409    3.240432    1.622068
    132          1           0      -14.029583    3.115622    3.733635
    133          1           0      -14.554479    1.439219    3.567937
    134          1           0      -16.649843    2.732054    2.525910
    135          1           0      -16.909919    5.000644    3.336358
    136          1           0      -15.328356    4.825429    3.969294
    137          1           0      -16.600721    4.332656    5.027369
    138          1           0      -17.245262    2.479167    5.356779
    139          1           0      -16.182747    1.075215    4.688792
    140          1           0      -17.773702    1.505384    3.990807
 ---------------------------------------------------------------------

 SCF Done:  E(RCAM-B3LYP) =  -3007.11607920     A.U. after   19 cycles

 Excitation energies and oscillator strengths:

 Excited State   1:      Singlet-A      1.8155 eV  682.93 nm  f=0.3679  <S**2>=0.000
     245 -> 248        0.20138
     246 -> 247        0.67708
     245 <- 248        0.10724
 This state for optimization and/or second-order correction.
 Total Energy, E(TD-HF/TD-DFT) =  -3007.04936158
 Copying the excited state density for this state as the 1-particle RhoCI density.

 Excited State   2:      Singlet-A      2.2550 eV  549.82 nm  f=0.1033  <S**2>=0.000
     245 -> 247        0.63728
     246 -> 248       -0.29361

 Excited State   3:      Singlet-A      3.4719 eV  357.11 nm  f=0.0062  <S**2>=0.000
     240 -> 247        0.43663
     240 -> 248       -0.11770
     240 -> 249        0.25706
     240 -> 250        0.16586
     241 -> 247        0.29492
     241 -> 249        0.14744
     242 -> 247       -0.17332
     243 -> 247       -0.12705

 Excited State   4:      Singlet-A      3.5172 eV  352.51 nm  f=0.4734  <S**2>=0.000
     240 -> 247       -0.23048
     241 -> 247        0.14218
     242 -> 247       -0.12771
     243 -> 247       -0.18594
     245 -> 247        0.23665
     246 -> 248        0.55086

 Excited State   5:      Singlet-A      3.6341 eV  341.17 nm  f=0.0121  <S**2>=0.000
     241 -> 247        0.26910
     241 -> 249       -0.20631
     241 -> 250        0.18176
     242 -> 247        0.42580
     242 -> 249       -0.20648
     242 -> 250        0.17054
     243 -> 247        0.20862

 The electronic state is 1-A.
 Alpha  occ. eigenvalues --  -46.88824 -19.25609 -19.25221 -19.20350 -19.19565
 Alpha  occ. eigenvalues --  -19.18959 -19.18896 -14.42415 -14.41356 -14.39935
 Alpha  occ. eigenvalues --  -14.39269 -10.40453 -10.39333 -10.35034 -10.34980
 Alpha  occ. eigenvalues --  -10.33121 -10.31827 -10.31740 -10.31467 -10.31359
 Alpha  occ. eigenvalues --  -10.30250 -10.30206 -10.29767 -10.29695 -10.29048
 Alpha  occ. eigenvalues --  -10.28654 -10.28650 -10.28574 -10.28328 -10.28247
 Alpha  occ. eigenvalues --  -10.28009 -10.27873 -10.27600 -10.27550 -10.27531
 Alpha  occ. eigenvalues --  -10.27529 -10.27419 -10.27236 -10.26953 -10.26472
 Alpha  occ. eigenvalues --  -10.26466 -10.26406 -10.26389 -10.26180 -10.26175
 Alpha  occ. eigenvalues --  -10.26098 -10.25996 -10.25665 -10.25647 -10.25639
 Alpha  occ. eigenvalues --  -10.25637 -10.25536 -10.25366 -10.25254 -10.25021
 Alpha  occ. eigenvalues --  -10.25005 -10.24874 -10.24727 -10.24653 -10.24639
 Alpha  occ. eigenvalues --  -10.24580 -10.24579 -10.24555 -10.24505 -10.24347
 Alpha  occ. eigenvalues --  -10.23691  -3.17431  -1.92337  -1.91898  -1.91730
 Alpha  occ. eigenvalues --   -1.15512  -1.14288  -1.10378  -1.08669  -1.07346
 Alpha  occ. eigenvalues --   -1.06398  -1.05928  -1.04906  -1.03456  -1.03047
 Alpha  occ. eigenvalues --   -0.92416  -0.90198  -0.89358  -0.89303  -0.88819
 Alpha  occ. eigenvalues --   -0.88534  -0.88274  -0.87932  -0.87762  -0.86512
 Alpha  occ. eigenvalues --   -0.86049  -0.85263  -0.84126  -0.83795  -0.83083
 Alpha  occ. eigenvalues --   -0.82276  -0.81975  -0.81072  -0.80402  -0.80177
 Alpha  occ. eigenvalues --   -0.79832  -0.78667  -0.78089  -0.77414  -0.76452
 Alpha  occ. eigenvalues --   -0.75862  -0.75438  -0.75073  -0.74795  -0.73494
 Alpha  occ. eigenvalues --   -0.72988  -0.72504  -0.72114  -0.70637  -0.69518
 Alpha  occ. eigenvalues --   -0.68580  -0.68009  -0.67451  -0.66702  -0.66064
 Alpha  occ. eigenvalues --   -0.65797  -0.65153  -0.65112  -0.64416  -0.63912
 Alpha  occ. eigenvalues --   -0.63242  -0.62616  -0.62403  -0.61943  -0.60635
 Alpha  occ. eigenvalues --   -0.59592  -0.59466  -0.59304  -0.58766  -0.58270
 Alpha  occ. eigenvalues --   -0.57811  -0.56856  -0.56375  -0.55778  -0.55462
 Alpha  occ. eigenvalues --   -0.55015  -0.54806  -0.54315  -0.53998  -0.53735
 Alpha  occ. eigenvalues --   -0.53507  -0.53367  -0.52984  -0.52912  -0.52648
 Alpha  occ. eigenvalues --   -0.52394  -0.52218  -0.52026  -0.51932  -0.51776
 Alpha  occ. eigenvalues --   -0.51594  -0.51204  -0.50839  -0.50751  -0.50551
 Alpha  occ. eigenvalues --   -0.50483  -0.50189  -0.49872  -0.49736  -0.49637
 Alpha  occ. eigenvalues --   -0.49279  -0.49173  -0.49099  -0.48815  -0.48695
 Alpha  occ. eigenvalues --   -0.48545  -0.48439  -0.48311  -0.48219  -0.48153
 Alpha  occ. eigenvalues --   -0.47992  -0.47932  -0.47812  -0.47067  -0.46686
 Alpha  occ. eigenvalues --   -0.46668  -0.46164  -0.46083  -0.45986  -0.45922
 Alpha  occ. eigenvalues --   -0.45523  -0.45017  -0.44993  -0.44943  -0.44665
 Alpha  occ. eigenvalues --   -0.44512  -0.44460  -0.44256  -0.43842  -0.43758
 Alpha  occ. eigenvalues --   -0.43621  -0.43312  -0.43119  -0.43003  -0.42919
 Alpha  occ. eigenvalues --   -0.42869  -0.42675  -0.42441  -0.42254  -0.42011
 Alpha  occ. eigenvalues --   -0.41914  -0.41846  -0.41669  -0.41162  -0.40911
 Alpha  occ. eigenvalues --   -0.40858  -0.40654  -0.40626  -0.39984  -0.39673
 Alpha  occ. eigenvalues --   -0.39617  -0.39492  -0.39326  -0.39099  -0.38454
 Alpha  occ. eigenvalues --   -0.38348  -0.38310  -0.37919  -0.37628  -0.37290
 Alpha  occ. eigenvalues --   -0.37217  -0.37004  -0.36957  -0.36292  -0.36232
 Alpha  occ. eigenvalues --   -0.36017  -0.35689  -0.35101  -0.34544  -0.34200
 Alpha  occ. eigenvalues --   -0.33891  -0.33693  -0.33078  -0.31372  -0.30871
 Alpha  occ. eigenvalues --   -0.30672  -0.30441  -0.30228  -0.29068  -0.23817
 Alpha  occ. eigenvalues --   -0.21437
 Alpha virt. eigenvalues --   -0.08343  -0.01964   0.00060   0.02207   0.03349
 Alpha virt. eigenvalues --    0.03672   0.04936   0.05712   0.06093   0.06473
 Alpha virt. eigenvalues --    0.08022   0.08519   0.08817   0.09092   0.09351

 Mulliken charges:
               1
     1  Mg   0.833421
     2  C   -0.067213
     3  C   -0.069421
     4  C   -0.056842
     5  C   -0.085193
     6  N   -0.226499
     7  C   -0.110635
     8  C    0.005291
     9  C   -0.079691
    10  C    0.009046
    11  C    0.092354
    12  C    0.068415
    13  C    0.082273
    14  C    0.178960
    15  O   -0.253423
    16  O   -0.368967
    17  N   -0.384577
    18  C    0.114094
    19  C   -0.131270
    20  C   -0.029706
    21  C    0.118326
    22  C    0.106878
    23  C    0.004526
    24  O   -0.192704
    25  C    0.030459
    26  N   -0.195730
    27  C    0.003527
    28  C   -0.052782
    29  C   -0.018566
    30  C    0.012574
    31  C    0.063677
    32  C    0.034523
    33  C    0.001076
    34  N   -0.408982
    35  C    0.127736
    36  C   -0.192809
    37  C    0.004019
    38  C    0.207856
    39  C    0.098128
    40  C    0.032827
    41  O   -0.183044
    42  C    0.014598
    43  C    0.232803
    44  O   -0.227659
    45  O   -0.331332
    46  C    0.176533
    47  C    0.306930
    48  C   -0.131373
    49  C   -0.206398
    50  C    0.081520
    51  C    0.064191
    52  C   -0.008659
    53  C    0.078071
    54  C   -0.114457
    55  C    0.078291
    56  C    0.022109
    57  C    0.009458
    58  C    0.052594
    59  C   -0.133062
    60  C    0.070054
    61  C   -0.013142
    62  C    0.009775
    63  C    0.042291
    64  C   -0.184644
    65  C    0.059507
    66  C    0.058172
    67  H   -0.026586
    68  H   -0.006398
    69  H   -0.047082
    70  H    0.000503
    71  H    0.012587
    72  H    0.018018
    73  H    0.016356
    74  H    0.018946
    75  H    0.033672
    76  H    0.036167
    77  H    0.023310
    78  H    0.027001
    79  H    0.019465
    80  H    0.037329
    81  H    0.031606
    82  H    0.051534
    83  H    0.013685
    84  H    0.021155
    85  H    0.028459
    86  H    0.004035
    87  H    0.009959
    88  H    0.021890
    89  H    0.038625
    90  H    0.019066
    91  H    0.013499
    92  H    0.021681
    93  H    0.012893
    94  H    0.004789
    95  H    0.025565
    96  H    0.036676
    97  H    0.039020
    98  H    0.042739
    99  H    0.022800
   100  H    0.046910
   101  H    0.046758
   102  H    0.038271
   103  H    0.054385
   104  H   -0.004190
   105  H    0.043721
   106  H    0.002249
   107  H    0.002407
   108  H    0.002267
   109  H    0.012315
   110  H    0.011825
   111  H    0.027390
   112  H   -0.006061
   113  H   -0.010258
   114  H   -0.012558
   115  H   -0.008145
   116  H   -0.001558
   117  H    0.005874
   118  H   -0.015378
   119  H   -0.022637
   120  H   -0.006944
   121  H    0.006475
   122  H   -0.005821
   123  H   -0.008270
   124  H    0.000121
   125  H    0.011485
   126  H   -0.000537
   127  H    0.015045
   128  H    0.009323
   129  H   -0.011899
   130  H   -0.001467
   131  H   -0.003338
   132  H   -0.007932
   133  H   -0.006570
   134  H   -0.003741
   135  H    0.017351
   136  H   -0.004592
   137  H    0.005414
   138  H    0.010806
   139  H    0.010879
   140  H    0.009556
 Sum of Mulliken charges =  -0.00000

 Dipole moment (field-independent basis, Debye):
    X=             -1.6106    Y=              2.8244    Z=             -0.7023  Tot=              3.3263
 Quadrupole moment (field-independent basis, Debye-Ang):
   XX=           -376.9193   YY=           -423.6574   ZZ=           -405.2637
   XY=              3.8217   XZ=             -0.1008   YZ=            -11.9794

 Normal termination of Gaussian 16 at Wed Apr 27 13:54:58 2022.
