 Gaussian 16, Revision A.03,
 Gaussian 16:  ES64L-G16RevA.03 25-Dec-2016

 ---------------------------------
 #p PBE1PBE/Def2SVP td=(nstates=5)
 ---------------------------------

 ------------------------------------------------------
 step_1201_chromophore_22 TDDFT with PBE1PBE functional
 ------------------------------------------------------
 Symbolic Z-matrix:
 Charge =  0 Multiplicity = 1

                         Standard orientation:
 ---------------------------------------------------------------------
 Center     Atomic      Atomic             Coordinates (Angstroms)
 Number     Number       Type             X           Y           Z
 ---------------------------------------------------------------------
      1         12           0        6.280671    0.592260   -0.175272
      2          6           0        4.058042   -2.077090   -0.294239
      3          6           0        3.915753    2.476828   -1.705715
      4          6           0        8.316943    3.152606    0.231664
      5          6           0        8.776063   -1.539138    1.030399
      6          7           0        4.107085    0.155875   -0.824940
      7          6           0        3.479165   -0.997316   -0.858362
      8          6           0        2.118243   -0.889611   -1.524801
      9          6           0        2.295771    0.522077   -2.330385
     10          6           0        3.484858    1.137981   -1.512706
     11          6           0        2.491585    0.426584   -3.841725
     12          6           0        0.956980   -1.005063   -0.517031
     13          6           0       -0.425036   -0.389796   -0.844691
     14          6           0       -1.691557   -1.299788   -1.087438
     15          8           0       -2.184848   -1.711536   -2.174685
     16          8           0       -2.093977   -1.809443    0.153758
     17          7           0        6.132943    2.612400   -0.650841
     18          6           0        5.100863    3.206431   -1.341492
     19          6           0        5.441413    4.653399   -1.472801
     20          6           0        6.724209    4.832295   -0.826735
     21          6           0        7.138512    3.481429   -0.434085
     22          6           0        4.421138    5.635422   -1.928010
     23          6           0        7.439448    6.082573   -0.468901
     24          8           0        8.514001    6.255106    0.085321
     25          6           0        6.674311    7.347599   -0.694998
     26          7           0        8.350289    0.729766    0.523669
     27          6           0        8.939646    1.878126    0.698560
     28          6           0       10.222000    1.938991    1.570900
     29          6           0       10.371532    0.367048    1.745902
     30          6           0        9.087598   -0.208123    1.105133
     31          6           0       11.500594    2.530997    0.964157
     32          6           0       10.555190   -0.147112    3.196310
     33          6           0       11.223072   -1.502466    3.449262
     34          7           0        6.458234   -1.323890    0.236162
     35          6           0        7.533554   -2.083620    0.711394
     36          6           0        7.081310   -3.435207    0.829143
     37          6           0        5.740723   -3.457926    0.517085
     38          6           0        5.393305   -2.150558    0.162374
     39          6           0        8.005277   -4.637397    1.296682
     40          6           0        4.630977   -4.394834    0.301549
     41          8           0        4.493836   -5.618536    0.450691
     42          6           0        3.451196   -3.494950   -0.176943
     43          6           0        2.437191   -3.640837    0.909528
     44          8           0        2.467777   -2.905895    1.890875
     45          8           0        1.477538   -4.574128    0.600456
     46          6           0        0.326342   -4.520158    1.578685
     47          6           0       -3.226721   -2.801052    0.175919
     48          6           0       -4.520287   -2.019266   -0.057689
     49          6           0       -5.784696   -2.529036   -0.281047
     50          6           0       -6.040969   -4.044671   -0.140136
     51          6           0       -6.983583   -1.612032   -0.558223
     52          6           0       -7.507358   -2.086274   -1.968901
     53          6           0       -8.354825   -0.895234   -2.571096
     54          6           0       -9.850392   -1.321013   -2.759282
     55          6           0      -10.223267   -2.092861   -3.920823
     56          6           0      -10.783851   -0.105677   -2.566073
     57          6           0      -10.912745    0.367223   -1.076334
     58          6           0      -12.322484    0.019057   -0.385610
     59          6           0      -13.295658    1.271387   -0.313083
     60          6           0      -14.377184    1.308579   -1.432273
     61          6           0      -13.912085    1.219367    1.142197
     62          6           0      -14.227519    2.648345    1.682952
     63          6           0      -14.694904    2.449645    3.184283
     64          6           0      -16.184652    2.874931    3.501453
     65          6           0      -16.311255    4.353631    3.976597
     66          6           0      -16.895476    1.881240    4.515281
     67          1           0        3.286393    3.034168   -2.402269
     68          1           0        8.984003    4.014726    0.300224
     69          1           0        9.515547   -2.221441    1.455848
     70          1           0        2.139311   -1.715490   -2.235300
     71          1           0        1.574161    1.298291   -2.076061
     72          1           0        2.673098   -0.582944   -4.210002
     73          1           0        3.311621    1.079035   -4.139151
     74          1           0        1.615154    0.743288   -4.406848
     75          1           0        1.285816   -0.588161    0.434463
     76          1           0        0.745959   -2.074337   -0.476993
     77          1           0       -0.304940    0.224603   -1.736759
     78          1           0       -0.658608    0.207112    0.037599
     79          1           0        3.436643    5.210276   -2.119451
     80          1           0        4.819429    6.134248   -2.811386
     81          1           0        4.285221    6.380542   -1.144951
     82          1           0        5.791470    7.505525   -0.075697
     83          1           0        6.441231    7.254138   -1.755792
     84          1           0        7.326418    8.209447   -0.553786
     85          1           0       10.071669    2.417814    2.538617
     86          1           0       11.243309    0.056577    1.171347
     87          1           0       11.339997    2.498141   -0.113107
     88          1           0       12.403816    1.928748    1.068230
     89          1           0       11.587436    3.566609    1.293151
     90          1           0        9.523812   -0.315258    3.506149
     91          1           0       11.157663    0.605153    3.706072
     92          1           0       10.657006   -2.210884    4.053761
     93          1           0       12.249186   -1.398323    3.800710
     94          1           0       11.319650   -2.070998    2.524775
     95          1           0        8.657192   -4.420396    2.142888
     96          1           0        8.521707   -4.677018    0.337998
     97          1           0        7.487746   -5.549427    1.592576
     98          1           0        3.238630   -3.839731   -1.188815
     99          1           0       -0.519286   -5.046563    1.136899
    100          1           0       -0.072105   -3.521424    1.756604
    101          1           0        0.523359   -5.059279    2.505817
    102          1           0       -3.301528   -3.190998    1.191582
    103          1           0       -3.116643   -3.591257   -0.566228
    104          1           0       -4.528793   -0.942968   -0.223915
    105          1           0       -6.431586   -4.548304   -1.024743
    106          1           0       -6.827485   -4.092429    0.612104
    107          1           0       -5.254128   -4.517271    0.448369
    108          1           0       -6.789750   -0.540298   -0.608630
    109          1           0       -7.698484   -1.700281    0.259643
    110          1           0       -8.191709   -2.924831   -1.846401
    111          1           0       -6.627580   -2.368790   -2.547388
    112          1           0       -7.932497   -0.475818   -3.484124
    113          1           0       -8.251309   -0.039876   -1.904078
    114          1           0      -10.179629   -1.988590   -1.962599
    115          1           0       -9.481692   -2.097516   -4.718531
    116          1           0      -11.088885   -1.705050   -4.457879
    117          1           0      -10.401192   -3.129012   -3.633167
    118          1           0      -11.736724   -0.094793   -3.094576
    119          1           0      -10.337999    0.716036   -3.126509
    120          1           0      -10.886758    1.450618   -1.187534
    121          1           0      -10.147499    0.033040   -0.374744
    122          1           0      -12.252251   -0.403682    0.616783
    123          1           0      -12.754199   -0.729810   -1.048866
    124          1           0      -12.696439    2.176569   -0.415416
    125          1           0      -15.380351    1.232199   -1.014345
    126          1           0      -14.241854    0.405286   -2.026788
    127          1           0      -14.177641    2.173650   -2.064632
    128          1           0      -13.438670    0.651136    1.942673
    129          1           0      -14.902391    0.774170    1.050431
    130          1           0      -14.954352    3.121421    1.022094
    131          1           0      -13.314409    3.240432    1.622068
    132          1           0      -14.029583    3.115622    3.733635
    133          1           0      -14.554479    1.439219    3.567937
    134          1           0      -16.649843    2.732054    2.525910
    135          1           0      -16.909919    5.000644    3.336358
    136          1           0      -15.328356    4.825429    3.969294
    137          1           0      -16.600721    4.332656    5.027369
    138          1           0      -17.245262    2.479167    5.356779
    139          1           0      -16.182747    1.075215    4.688792
    140          1           0      -17.773702    1.505384    3.990807
 ---------------------------------------------------------------------

 SCF Done:  E(RPBE1PBE) =  -3005.30441630     A.U. after   15 cycles

 Excitation energies and oscillator strengths:

 Excited State   1:      Singlet-A      1.9455 eV  637.29 nm  f=0.3622  <S**2>=0.000
     245 -> 248        0.19418
     246 -> 247        0.68395
 This state for optimization and/or second-order correction.
 Total Energy, E(TD-HF/TD-DFT) =  -3005.23292067
 Copying the excited state density for this state as the 1-particle RhoCI density.

 Excited State   2:      Singlet-A      2.2523 eV  550.47 nm  f=0.1005  <S**2>=0.000
     245 -> 247        0.65209
     246 -> 248       -0.26371

 Excited State   3:      Singlet-A      2.9772 eV  416.44 nm  f=0.0002  <S**2>=0.000
     243 -> 247        0.66646
     243 -> 249       -0.16267
     243 -> 250       -0.10108

 Excited State   4:      Singlet-A      3.1257 eV  396.66 nm  f=0.0007  <S**2>=0.000
     242 -> 247        0.66045
     242 -> 249        0.18175
     242 -> 250       -0.11005

 Excited State   5:      Singlet-A      3.2953 eV  376.25 nm  f=0.0660  <S**2>=0.000
     240 -> 247       -0.10975
     241 -> 247        0.61768
     246 -> 248       -0.28545

 The electronic state is 1-A.
 Alpha  occ. eigenvalues --  -46.92239 -19.26313 -19.25959 -19.20669 -19.19884
 Alpha  occ. eigenvalues --  -19.19335 -19.18989 -14.41797 -14.40936 -14.39501
 Alpha  occ. eigenvalues --  -14.39084 -10.37561 -10.36437 -10.32387 -10.31898
 Alpha  occ. eigenvalues --  -10.30547 -10.29453 -10.29081 -10.29020 -10.28836
 Alpha  occ. eigenvalues --  -10.27755 -10.27686 -10.27651 -10.27512 -10.27087
 Alpha  occ. eigenvalues --  -10.26522 -10.26465 -10.26426 -10.26119 -10.25768
 Alpha  occ. eigenvalues --  -10.25644 -10.25486 -10.25483 -10.25426 -10.25258
 Alpha  occ. eigenvalues --  -10.25221 -10.24943 -10.24922 -10.24698 -10.24097
 Alpha  occ. eigenvalues --  -10.24084 -10.24044 -10.23818 -10.23775 -10.23678
 Alpha  occ. eigenvalues --  -10.23582 -10.23448 -10.23410 -10.23354 -10.23232
 Alpha  occ. eigenvalues --  -10.23221 -10.23032 -10.22863 -10.22690 -10.22612
 Alpha  occ. eigenvalues --  -10.22530 -10.22515 -10.22442 -10.22344 -10.22269
 Alpha  occ. eigenvalues --  -10.22190 -10.22179 -10.22043 -10.21928 -10.21743
 Alpha  occ. eigenvalues --  -10.21040  -3.14426  -1.87274  -1.86812  -1.86650
 Alpha  occ. eigenvalues --   -1.10325  -1.09103  -1.04925  -1.03579  -1.02236
 Alpha  occ. eigenvalues --   -1.01056  -1.00806  -0.99592  -0.98132  -0.97782
 Alpha  occ. eigenvalues --   -0.86924  -0.84303  -0.83623  -0.83534  -0.82954
 Alpha  occ. eigenvalues --   -0.82753  -0.82382  -0.82185  -0.82047  -0.80615
 Alpha  occ. eigenvalues --   -0.80488  -0.79543  -0.78376  -0.78112  -0.77337
 Alpha  occ. eigenvalues --   -0.76435  -0.76121  -0.75315  -0.74716  -0.74468
 Alpha  occ. eigenvalues --   -0.74007  -0.72824  -0.72397  -0.71747  -0.70823
 Alpha  occ. eigenvalues --   -0.70032  -0.69831  -0.69169  -0.68934  -0.67728
 Alpha  occ. eigenvalues --   -0.67368  -0.66911  -0.66549  -0.64968  -0.63926
 Alpha  occ. eigenvalues --   -0.63017  -0.62261  -0.61890  -0.60983  -0.60482
 Alpha  occ. eigenvalues --   -0.60233  -0.59698  -0.59350  -0.59033  -0.58071
 Alpha  occ. eigenvalues --   -0.57413  -0.57176  -0.56601  -0.56585  -0.55078
 Alpha  occ. eigenvalues --   -0.54243  -0.53927  -0.53822  -0.53260  -0.52852
 Alpha  occ. eigenvalues --   -0.52458  -0.51262  -0.50917  -0.50333  -0.50064
 Alpha  occ. eigenvalues --   -0.49614  -0.49341  -0.48840  -0.48547  -0.48366
 Alpha  occ. eigenvalues --   -0.47852  -0.47776  -0.47583  -0.47341  -0.47080
 Alpha  occ. eigenvalues --   -0.46930  -0.46735  -0.46589  -0.46554  -0.46284
 Alpha  occ. eigenvalues --   -0.46216  -0.45739  -0.45409  -0.45369  -0.45076
 Alpha  occ. eigenvalues --   -0.44992  -0.44895  -0.44483  -0.44365  -0.44231
 Alpha  occ. eigenvalues --   -0.43840  -0.43810  -0.43675  -0.43327  -0.43233
 Alpha  occ. eigenvalues --   -0.43193  -0.43023  -0.42959  -0.42885  -0.42750
 Alpha  occ. eigenvalues --   -0.42595  -0.42515  -0.42391  -0.41832  -0.41391
 Alpha  occ. eigenvalues --   -0.41350  -0.40881  -0.40864  -0.40736  -0.40644
 Alpha  occ. eigenvalues --   -0.40272  -0.39825  -0.39784  -0.39522  -0.39401
 Alpha  occ. eigenvalues --   -0.39328  -0.39161  -0.39055  -0.38595  -0.38496
 Alpha  occ. eigenvalues --   -0.38261  -0.38073  -0.37869  -0.37808  -0.37743
 Alpha  occ. eigenvalues --   -0.37669  -0.37514  -0.37306  -0.37053  -0.36801
 Alpha  occ. eigenvalues --   -0.36729  -0.36631  -0.36482  -0.36020  -0.35892
 Alpha  occ. eigenvalues --   -0.35674  -0.35566  -0.35416  -0.34789  -0.34626
 Alpha  occ. eigenvalues --   -0.34367  -0.34302  -0.34280  -0.33855  -0.33411
 Alpha  occ. eigenvalues --   -0.33344  -0.33116  -0.32937  -0.32521  -0.32317
 Alpha  occ. eigenvalues --   -0.32172  -0.31960  -0.31815  -0.31337  -0.31212
 Alpha  occ. eigenvalues --   -0.30863  -0.30607  -0.29965  -0.29762  -0.29318
 Alpha  occ. eigenvalues --   -0.29006  -0.28743  -0.28133  -0.27003  -0.26229
 Alpha  occ. eigenvalues --   -0.25963  -0.25608  -0.25365  -0.24381  -0.20807
 Alpha  occ. eigenvalues --   -0.19046
 Alpha virt. eigenvalues --   -0.10922  -0.05448  -0.04154  -0.02230  -0.01313
 Alpha virt. eigenvalues --    0.00737   0.01244   0.01552   0.01657   0.02171
 Alpha virt. eigenvalues --    0.03729   0.04909   0.05472   0.05551   0.05820

 Mulliken charges:
               1
     1  Mg   0.986244
     2  C   -0.073605
     3  C   -0.070817
     4  C   -0.046187
     5  C   -0.076570
     6  N   -0.329202
     7  C   -0.028451
     8  C   -0.063610
     9  C   -0.157220
    10  C    0.047228
    11  C    0.037069
    12  C    0.014806
    13  C    0.009659
    14  C    0.237493
    15  O   -0.283669
    16  O   -0.395412
    17  N   -0.499457
    18  C    0.140740
    19  C   -0.157236
    20  C   -0.079704
    21  C    0.149768
    22  C    0.043979
    23  C    0.055185
    24  O   -0.233914
    25  C   -0.046850
    26  N   -0.305768
    27  C    0.039924
    28  C   -0.125393
    29  C   -0.090587
    30  C    0.050289
    31  C    0.006398
    32  C   -0.030629
    33  C   -0.068418
    34  N   -0.543607
    35  C    0.149120
    36  C   -0.206159
    37  C   -0.041377
    38  C    0.256522
    39  C    0.046410
    40  C    0.119984
    41  O   -0.226467
    42  C   -0.093475
    43  C    0.318675
    44  O   -0.259366
    45  O   -0.361608
    46  C    0.117502
    47  C    0.260915
    48  C   -0.135321
    49  C   -0.258084
    50  C    0.020641
    51  C    0.008471
    52  C   -0.074574
    53  C    0.026855
    54  C   -0.208231
    55  C    0.026860
    56  C   -0.032994
    57  C   -0.056148
    58  C    0.000838
    59  C   -0.214685
    60  C    0.011221
    61  C   -0.070671
    62  C   -0.052103
    63  C   -0.012418
    64  C   -0.271751
    65  C   -0.001318
    66  C   -0.004730
    67  H    0.005949
    68  H    0.025228
    69  H   -0.010391
    70  H    0.038127
    71  H    0.048093
    72  H    0.044504
    73  H    0.044066
    74  H    0.046085
    75  H    0.064233
    76  H    0.075542
    77  H    0.056818
    78  H    0.059309
    79  H    0.045336
    80  H    0.064622
    81  H    0.059461
    82  H    0.076705
    83  H    0.042342
    84  H    0.049117
    85  H    0.063622
    86  H    0.042612
    87  H    0.038895
    88  H    0.048535
    89  H    0.065268
    90  H    0.053239
    91  H    0.047255
    92  H    0.049074
    93  H    0.041632
    94  H    0.030442
    95  H    0.051593
    96  H    0.065755
    97  H    0.066181
    98  H    0.078828
    99  H    0.045259
   100  H    0.069494
   101  H    0.069094
   102  H    0.064339
   103  H    0.079780
   104  H    0.026474
   105  H    0.069112
   106  H    0.031322
   107  H    0.030017
   108  H    0.032810
   109  H    0.044353
   110  H    0.044234
   111  H    0.060792
   112  H    0.026041
   113  H    0.021719
   114  H    0.027740
   115  H    0.019686
   116  H    0.025262
   117  H    0.032056
   118  H    0.016306
   119  H    0.011544
   120  H    0.026237
   121  H    0.038468
   122  H    0.026281
   123  H    0.025199
   124  H    0.036907
   125  H    0.037591
   126  H    0.026262
   127  H    0.042011
   128  H    0.040056
   129  H    0.023843
   130  H    0.030437
   131  H    0.029791
   132  H    0.025569
   133  H    0.023734
   134  H    0.035017
   135  H    0.044352
   136  H    0.023050
   137  H    0.031915
   138  H    0.037494
   139  H    0.037695
   140  H    0.037564
 Sum of Mulliken charges =  -0.00000

 Dipole moment (field-independent basis, Debye):
    X=             -1.5944    Y=              2.3479    Z=             -0.6010  Tot=              2.9011
 Quadrupole moment (field-independent basis, Debye-Ang):
   XX=           -371.1468   YY=           -421.7170   ZZ=           -402.5146
   XY=              0.4562   XZ=              1.9383   YZ=            -12.0870

 Normal termination of Gaussian 16 at Wed Apr 27 14:15:37 2022.
