 Gaussian 16, Revision A.03,
 Gaussian 16:  ES64L-G16RevA.03 25-Dec-2016

 --------------------------------
 #p wB97XD/Def2SVP td=(nstates=5)
 --------------------------------

 -----------------------------------------------------
 step_1201_chromophore_22 TDDFT with wB97XD functional
 -----------------------------------------------------
 Symbolic Z-matrix:
 Charge =  0 Multiplicity = 1

                         Standard orientation:
 ---------------------------------------------------------------------
 Center     Atomic      Atomic             Coordinates (Angstroms)
 Number     Number       Type             X           Y           Z
 ---------------------------------------------------------------------
      1         12           0        6.280671    0.592260   -0.175272
      2          6           0        4.058042   -2.077090   -0.294239
      3          6           0        3.915753    2.476828   -1.705715
      4          6           0        8.316943    3.152606    0.231664
      5          6           0        8.776063   -1.539138    1.030399
      6          7           0        4.107085    0.155875   -0.824940
      7          6           0        3.479165   -0.997316   -0.858362
      8          6           0        2.118243   -0.889611   -1.524801
      9          6           0        2.295771    0.522077   -2.330385
     10          6           0        3.484858    1.137981   -1.512706
     11          6           0        2.491585    0.426584   -3.841725
     12          6           0        0.956980   -1.005063   -0.517031
     13          6           0       -0.425036   -0.389796   -0.844691
     14          6           0       -1.691557   -1.299788   -1.087438
     15          8           0       -2.184848   -1.711536   -2.174685
     16          8           0       -2.093977   -1.809443    0.153758
     17          7           0        6.132943    2.612400   -0.650841
     18          6           0        5.100863    3.206431   -1.341492
     19          6           0        5.441413    4.653399   -1.472801
     20          6           0        6.724209    4.832295   -0.826735
     21          6           0        7.138512    3.481429   -0.434085
     22          6           0        4.421138    5.635422   -1.928010
     23          6           0        7.439448    6.082573   -0.468901
     24          8           0        8.514001    6.255106    0.085321
     25          6           0        6.674311    7.347599   -0.694998
     26          7           0        8.350289    0.729766    0.523669
     27          6           0        8.939646    1.878126    0.698560
     28          6           0       10.222000    1.938991    1.570900
     29          6           0       10.371532    0.367048    1.745902
     30          6           0        9.087598   -0.208123    1.105133
     31          6           0       11.500594    2.530997    0.964157
     32          6           0       10.555190   -0.147112    3.196310
     33          6           0       11.223072   -1.502466    3.449262
     34          7           0        6.458234   -1.323890    0.236162
     35          6           0        7.533554   -2.083620    0.711394
     36          6           0        7.081310   -3.435207    0.829143
     37          6           0        5.740723   -3.457926    0.517085
     38          6           0        5.393305   -2.150558    0.162374
     39          6           0        8.005277   -4.637397    1.296682
     40          6           0        4.630977   -4.394834    0.301549
     41          8           0        4.493836   -5.618536    0.450691
     42          6           0        3.451196   -3.494950   -0.176943
     43          6           0        2.437191   -3.640837    0.909528
     44          8           0        2.467777   -2.905895    1.890875
     45          8           0        1.477538   -4.574128    0.600456
     46          6           0        0.326342   -4.520158    1.578685
     47          6           0       -3.226721   -2.801052    0.175919
     48          6           0       -4.520287   -2.019266   -0.057689
     49          6           0       -5.784696   -2.529036   -0.281047
     50          6           0       -6.040969   -4.044671   -0.140136
     51          6           0       -6.983583   -1.612032   -0.558223
     52          6           0       -7.507358   -2.086274   -1.968901
     53          6           0       -8.354825   -0.895234   -2.571096
     54          6           0       -9.850392   -1.321013   -2.759282
     55          6           0      -10.223267   -2.092861   -3.920823
     56          6           0      -10.783851   -0.105677   -2.566073
     57          6           0      -10.912745    0.367223   -1.076334
     58          6           0      -12.322484    0.019057   -0.385610
     59          6           0      -13.295658    1.271387   -0.313083
     60          6           0      -14.377184    1.308579   -1.432273
     61          6           0      -13.912085    1.219367    1.142197
     62          6           0      -14.227519    2.648345    1.682952
     63          6           0      -14.694904    2.449645    3.184283
     64          6           0      -16.184652    2.874931    3.501453
     65          6           0      -16.311255    4.353631    3.976597
     66          6           0      -16.895476    1.881240    4.515281
     67          1           0        3.286393    3.034168   -2.402269
     68          1           0        8.984003    4.014726    0.300224
     69          1           0        9.515547   -2.221441    1.455848
     70          1           0        2.139311   -1.715490   -2.235300
     71          1           0        1.574161    1.298291   -2.076061
     72          1           0        2.673098   -0.582944   -4.210002
     73          1           0        3.311621    1.079035   -4.139151
     74          1           0        1.615154    0.743288   -4.406848
     75          1           0        1.285816   -0.588161    0.434463
     76          1           0        0.745959   -2.074337   -0.476993
     77          1           0       -0.304940    0.224603   -1.736759
     78          1           0       -0.658608    0.207112    0.037599
     79          1           0        3.436643    5.210276   -2.119451
     80          1           0        4.819429    6.134248   -2.811386
     81          1           0        4.285221    6.380542   -1.144951
     82          1           0        5.791470    7.505525   -0.075697
     83          1           0        6.441231    7.254138   -1.755792
     84          1           0        7.326418    8.209447   -0.553786
     85          1           0       10.071669    2.417814    2.538617
     86          1           0       11.243309    0.056577    1.171347
     87          1           0       11.339997    2.498141   -0.113107
     88          1           0       12.403816    1.928748    1.068230
     89          1           0       11.587436    3.566609    1.293151
     90          1           0        9.523812   -0.315258    3.506149
     91          1           0       11.157663    0.605153    3.706072
     92          1           0       10.657006   -2.210884    4.053761
     93          1           0       12.249186   -1.398323    3.800710
     94          1           0       11.319650   -2.070998    2.524775
     95          1           0        8.657192   -4.420396    2.142888
     96          1           0        8.521707   -4.677018    0.337998
     97          1           0        7.487746   -5.549427    1.592576
     98          1           0        3.238630   -3.839731   -1.188815
     99          1           0       -0.519286   -5.046563    1.136899
    100          1           0       -0.072105   -3.521424    1.756604
    101          1           0        0.523359   -5.059279    2.505817
    102          1           0       -3.301528   -3.190998    1.191582
    103          1           0       -3.116643   -3.591257   -0.566228
    104          1           0       -4.528793   -0.942968   -0.223915
    105          1           0       -6.431586   -4.548304   -1.024743
    106          1           0       -6.827485   -4.092429    0.612104
    107          1           0       -5.254128   -4.517271    0.448369
    108          1           0       -6.789750   -0.540298   -0.608630
    109          1           0       -7.698484   -1.700281    0.259643
    110          1           0       -8.191709   -2.924831   -1.846401
    111          1           0       -6.627580   -2.368790   -2.547388
    112          1           0       -7.932497   -0.475818   -3.484124
    113          1           0       -8.251309   -0.039876   -1.904078
    114          1           0      -10.179629   -1.988590   -1.962599
    115          1           0       -9.481692   -2.097516   -4.718531
    116          1           0      -11.088885   -1.705050   -4.457879
    117          1           0      -10.401192   -3.129012   -3.633167
    118          1           0      -11.736724   -0.094793   -3.094576
    119          1           0      -10.337999    0.716036   -3.126509
    120          1           0      -10.886758    1.450618   -1.187534
    121          1           0      -10.147499    0.033040   -0.374744
    122          1           0      -12.252251   -0.403682    0.616783
    123          1           0      -12.754199   -0.729810   -1.048866
    124          1           0      -12.696439    2.176569   -0.415416
    125          1           0      -15.380351    1.232199   -1.014345
    126          1           0      -14.241854    0.405286   -2.026788
    127          1           0      -14.177641    2.173650   -2.064632
    128          1           0      -13.438670    0.651136    1.942673
    129          1           0      -14.902391    0.774170    1.050431
    130          1           0      -14.954352    3.121421    1.022094
    131          1           0      -13.314409    3.240432    1.622068
    132          1           0      -14.029583    3.115622    3.733635
    133          1           0      -14.554479    1.439219    3.567937
    134          1           0      -16.649843    2.732054    2.525910
    135          1           0      -16.909919    5.000644    3.336358
    136          1           0      -15.328356    4.825429    3.969294
    137          1           0      -16.600721    4.332656    5.027369
    138          1           0      -17.245262    2.479167    5.356779
    139          1           0      -16.182747    1.075215    4.688792
    140          1           0      -17.773702    1.505384    3.990807
 ---------------------------------------------------------------------

 SCF Done:  E(RwB97XD) =  -3007.81359881     A.U. after   19 cycles

 Excitation energies and oscillator strengths:

 Excited State   1:      Singlet-A      1.7706 eV  700.25 nm  f=0.3645  <S**2>=0.000
     245 -> 248        0.20631
     246 -> 247        0.67501
     245 <- 248        0.11598
 This state for optimization and/or second-order correction.
 Total Energy, E(TD-HF/TD-DFT) =  -3007.74853147
 Copying the excited state density for this state as the 1-particle RhoCI density.

 Excited State   2:      Singlet-A      2.2053 eV  562.21 nm  f=0.1011  <S**2>=0.000
     245 -> 247        0.63506
     246 -> 248       -0.29597

 Excited State   3:      Singlet-A      3.4676 eV  357.55 nm  f=0.0036  <S**2>=0.000
     240 -> 247        0.24026
     240 -> 249        0.17298
     240 -> 250        0.11054
     241 -> 247        0.48068
     241 -> 248       -0.11254
     241 -> 249        0.27414
     241 -> 250        0.15559
     242 -> 247       -0.10431
     243 -> 247       -0.11051

 Excited State   4:      Singlet-A      3.5233 eV  351.89 nm  f=0.4576  <S**2>=0.000
     240 -> 247       -0.31198
     243 -> 247       -0.16022
     245 -> 247        0.22963
     246 -> 248        0.54158
     245 <- 247       -0.10063

 Excited State   5:      Singlet-A      3.6755 eV  337.33 nm  f=0.0348  <S**2>=0.000
     242 -> 247        0.46856
     242 -> 249       -0.28211
     242 -> 250        0.23984
     243 -> 247        0.22564
     246 -> 248        0.12545

 The electronic state is 1-A.
 Alpha  occ. eigenvalues --  -46.95166 -19.30811 -19.30481 -19.25325 -19.24488
 Alpha  occ. eigenvalues --  -19.24042 -19.23915 -14.47010 -14.45912 -14.44558
 Alpha  occ. eigenvalues --  -14.43865 -10.44321 -10.43175 -10.39034 -10.38987
 Alpha  occ. eigenvalues --  -10.37037 -10.35901 -10.35560 -10.35510 -10.35490
 Alpha  occ. eigenvalues --  -10.34451 -10.34346 -10.33720 -10.33656 -10.33011
 Alpha  occ. eigenvalues --  -10.32741 -10.32639 -10.32612 -10.32387 -10.32192
 Alpha  occ. eigenvalues --  -10.32185 -10.31897 -10.31621 -10.31618 -10.31579
 Alpha  occ. eigenvalues --  -10.31575 -10.31413 -10.31267 -10.31020 -10.30613
 Alpha  occ. eigenvalues --  -10.30480 -10.30332 -10.30249 -10.30040 -10.30031
 Alpha  occ. eigenvalues --  -10.30026 -10.29872 -10.29669 -10.29606 -10.29593
 Alpha  occ. eigenvalues --  -10.29578 -10.29370 -10.29278 -10.29210 -10.28969
 Alpha  occ. eigenvalues --  -10.28965 -10.28797 -10.28673 -10.28602 -10.28533
 Alpha  occ. eigenvalues --  -10.28528 -10.28524 -10.28465 -10.28327 -10.28159
 Alpha  occ. eigenvalues --  -10.27476  -3.21206  -1.94806  -1.94343  -1.94174
 Alpha  occ. eigenvalues --   -1.17653  -1.16481  -1.12646  -1.10866  -1.09522
 Alpha  occ. eigenvalues --   -1.08421  -1.08149  -1.06901  -1.05538  -1.05081
 Alpha  occ. eigenvalues --   -0.94368  -0.91968  -0.91200  -0.91147  -0.90620
 Alpha  occ. eigenvalues --   -0.90501  -0.90047  -0.89922  -0.89692  -0.88281
 Alpha  occ. eigenvalues --   -0.88000  -0.87157  -0.86014  -0.85672  -0.84976
 Alpha  occ. eigenvalues --   -0.84097  -0.83942  -0.82988  -0.82341  -0.82086
 Alpha  occ. eigenvalues --   -0.81663  -0.80658  -0.79987  -0.79335  -0.78361
 Alpha  occ. eigenvalues --   -0.77700  -0.77390  -0.76868  -0.76614  -0.75359
 Alpha  occ. eigenvalues --   -0.74918  -0.74463  -0.74088  -0.72584  -0.71443
 Alpha  occ. eigenvalues --   -0.70600  -0.69885  -0.69476  -0.68589  -0.68003
 Alpha  occ. eigenvalues --   -0.67718  -0.67126  -0.66997  -0.66422  -0.65728
 Alpha  occ. eigenvalues --   -0.65063  -0.64621  -0.64230  -0.63932  -0.62680
 Alpha  occ. eigenvalues --   -0.61564  -0.61364  -0.61288  -0.60694  -0.60238
 Alpha  occ. eigenvalues --   -0.59794  -0.58753  -0.58353  -0.57742  -0.57431
 Alpha  occ. eigenvalues --   -0.56965  -0.56736  -0.56251  -0.55896  -0.55688
 Alpha  occ. eigenvalues --   -0.55481  -0.55242  -0.54911  -0.54776  -0.54504
 Alpha  occ. eigenvalues --   -0.54353  -0.54108  -0.53937  -0.53866  -0.53656
 Alpha  occ. eigenvalues --   -0.53514  -0.53107  -0.52732  -0.52694  -0.52520
 Alpha  occ. eigenvalues --   -0.52396  -0.52128  -0.51755  -0.51653  -0.51576
 Alpha  occ. eigenvalues --   -0.51183  -0.51100  -0.51020  -0.50779  -0.50583
 Alpha  occ. eigenvalues --   -0.50457  -0.50384  -0.50232  -0.50130  -0.50041
 Alpha  occ. eigenvalues --   -0.49869  -0.49818  -0.49790  -0.48991  -0.48608
 Alpha  occ. eigenvalues --   -0.48573  -0.48113  -0.48018  -0.47876  -0.47832
 Alpha  occ. eigenvalues --   -0.47456  -0.46970  -0.46916  -0.46777  -0.46540
 Alpha  occ. eigenvalues --   -0.46451  -0.46337  -0.46149  -0.45748  -0.45649
 Alpha  occ. eigenvalues --   -0.45555  -0.45204  -0.45003  -0.44969  -0.44824
 Alpha  occ. eigenvalues --   -0.44779  -0.44628  -0.44401  -0.44240  -0.43949
 Alpha  occ. eigenvalues --   -0.43898  -0.43782  -0.43549  -0.43048  -0.42801
 Alpha  occ. eigenvalues --   -0.42730  -0.42527  -0.42484  -0.41838  -0.41556
 Alpha  occ. eigenvalues --   -0.41463  -0.41346  -0.41264  -0.40952  -0.40401
 Alpha  occ. eigenvalues --   -0.40257  -0.40160  -0.39849  -0.39505  -0.39320
 Alpha  occ. eigenvalues --   -0.39187  -0.38960  -0.38842  -0.38212  -0.38163
 Alpha  occ. eigenvalues --   -0.37885  -0.37569  -0.36961  -0.36534  -0.36091
 Alpha  occ. eigenvalues --   -0.35985  -0.35808  -0.34926  -0.33616  -0.32951
 Alpha  occ. eigenvalues --   -0.32731  -0.32467  -0.32369  -0.31099  -0.25765
 Alpha  occ. eigenvalues --   -0.23279
 Alpha virt. eigenvalues --   -0.06688  -0.00063   0.02092   0.04302   0.05568
 Alpha virt. eigenvalues --    0.06714   0.07811   0.08007   0.08351   0.08778
 Alpha virt. eigenvalues --    0.10391   0.11759   0.12329   0.12366   0.12667

 Mulliken charges:
               1
     1  Mg   0.976480
     2  C   -0.074020
     3  C   -0.088305
     4  C   -0.060520
     5  C   -0.085008
     6  N   -0.294315
     7  C   -0.068020
     8  C   -0.036930
     9  C   -0.130555
    10  C    0.036581
    11  C    0.046206
    12  C    0.027904
    13  C    0.026973
    14  C    0.227998
    15  O   -0.281333
    16  O   -0.396099
    17  N   -0.468830
    18  C    0.134890
    19  C   -0.146921
    20  C   -0.072802
    21  C    0.142211
    22  C    0.057177
    23  C    0.052678
    24  O   -0.225601
    25  C   -0.031065
    26  N   -0.268004
    27  C    0.024767
    28  C   -0.103785
    29  C   -0.065298
    30  C    0.035992
    31  C    0.015050
    32  C   -0.012742
    33  C   -0.055136
    34  N   -0.505939
    35  C    0.136570
    36  C   -0.202883
    37  C   -0.040692
    38  C    0.238278
    39  C    0.056213
    40  C    0.103848
    41  O   -0.218536
    42  C   -0.055268
    43  C    0.294874
    44  O   -0.254592
    45  O   -0.361041
    46  C    0.134321
    47  C    0.277128
    48  C   -0.147289
    49  C   -0.238078
    50  C    0.031917
    51  C    0.021654
    52  C   -0.055100
    53  C    0.039380
    54  C   -0.171512
    55  C    0.031657
    56  C   -0.013769
    57  C   -0.039268
    58  C    0.017498
    59  C   -0.188014
    60  C    0.022996
    61  C   -0.047560
    62  C   -0.037101
    63  C    0.005548
    64  C   -0.246408
    65  C    0.012396
    66  C    0.011561
    67  H   -0.002732
    68  H    0.018851
    69  H   -0.024810
    70  H    0.027381
    71  H    0.036593
    72  H    0.039867
    73  H    0.037086
    74  H    0.041254
    75  H    0.059539
    76  H    0.058527
    77  H    0.048328
    78  H    0.054442
    79  H    0.043347
    80  H    0.060690
    81  H    0.053336
    82  H    0.072981
    83  H    0.032837
    84  H    0.048522
    85  H    0.055825
    86  H    0.029723
    87  H    0.031832
    88  H    0.043932
    89  H    0.061003
    90  H    0.043091
    91  H    0.038586
    92  H    0.044245
    93  H    0.036931
    94  H    0.023261
    95  H    0.045733
    96  H    0.058480
    97  H    0.063359
    98  H    0.073186
    99  H    0.041493
   100  H    0.064420
   101  H    0.065655
   102  H    0.060095
   103  H    0.075551
   104  H    0.021597
   105  H    0.065378
   106  H    0.024360
   107  H    0.024522
   108  H    0.024954
   109  H    0.036701
   110  H    0.032765
   111  H    0.052038
   112  H    0.019664
   113  H    0.009090
   114  H    0.011495
   115  H    0.013830
   116  H    0.019790
   117  H    0.027598
   118  H    0.006051
   119  H    0.001391
   120  H    0.016671
   121  H    0.029831
   122  H    0.018408
   123  H    0.012738
   124  H    0.022317
   125  H    0.031861
   126  H    0.018735
   127  H    0.037491
   128  H    0.029359
   129  H    0.010005
   130  H    0.020909
   131  H    0.021665
   132  H    0.016087
   133  H    0.012329
   134  H    0.021812
   135  H    0.039670
   136  H    0.015527
   137  H    0.024905
   138  H    0.030576
   139  H    0.031274
   140  H    0.031755
 Sum of Mulliken charges =  -0.00000

 Dipole moment (field-independent basis, Debye):
    X=             -1.6128    Y=              3.0227    Z=             -0.7301  Tot=              3.5030
 Quadrupole moment (field-independent basis, Debye-Ang):
   XX=           -371.8403   YY=           -419.0068   ZZ=           -402.1963
   XY=              4.8537   XZ=              0.4798   YZ=            -12.5397

 Normal termination of Gaussian 16 at Wed Apr 27 14:41:25 2022.
