 Gaussian 16, Revision A.03,
 Gaussian 16:  ES64L-G16RevA.03 25-Dec-2016

 --------------------
 #p ZINDO=(nstates=5)
 --------------------

 ------------------------------
 step_1201_chromophore_22 ZINDO
 ------------------------------
 Symbolic Z-matrix:
 Charge =  0 Multiplicity = 1

                         Standard orientation:
 ---------------------------------------------------------------------
 Center     Atomic      Atomic             Coordinates (Angstroms)
 Number     Number       Type             X           Y           Z
 ---------------------------------------------------------------------
      1         12           0        6.280671    0.592260   -0.175272
      2          6           0        4.058042   -2.077090   -0.294239
      3          6           0        3.915753    2.476828   -1.705715
      4          6           0        8.316943    3.152606    0.231664
      5          6           0        8.776063   -1.539138    1.030399
      6          7           0        4.107085    0.155875   -0.824940
      7          6           0        3.479165   -0.997316   -0.858362
      8          6           0        2.118243   -0.889611   -1.524801
      9          6           0        2.295771    0.522077   -2.330385
     10          6           0        3.484858    1.137981   -1.512706
     11          6           0        2.491585    0.426584   -3.841725
     12          6           0        0.956980   -1.005063   -0.517031
     13          6           0       -0.425036   -0.389796   -0.844691
     14          6           0       -1.691557   -1.299788   -1.087438
     15          8           0       -2.184848   -1.711536   -2.174685
     16          8           0       -2.093977   -1.809443    0.153758
     17          7           0        6.132943    2.612400   -0.650841
     18          6           0        5.100863    3.206431   -1.341492
     19          6           0        5.441413    4.653399   -1.472801
     20          6           0        6.724209    4.832295   -0.826735
     21          6           0        7.138512    3.481429   -0.434085
     22          6           0        4.421138    5.635422   -1.928010
     23          6           0        7.439448    6.082573   -0.468901
     24          8           0        8.514001    6.255106    0.085321
     25          6           0        6.674311    7.347599   -0.694998
     26          7           0        8.350289    0.729766    0.523669
     27          6           0        8.939646    1.878126    0.698560
     28          6           0       10.222000    1.938991    1.570900
     29          6           0       10.371532    0.367048    1.745902
     30          6           0        9.087598   -0.208123    1.105133
     31          6           0       11.500594    2.530997    0.964157
     32          6           0       10.555190   -0.147112    3.196310
     33          6           0       11.223072   -1.502466    3.449262
     34          7           0        6.458234   -1.323890    0.236162
     35          6           0        7.533554   -2.083620    0.711394
     36          6           0        7.081310   -3.435207    0.829143
     37          6           0        5.740723   -3.457926    0.517085
     38          6           0        5.393305   -2.150558    0.162374
     39          6           0        8.005277   -4.637397    1.296682
     40          6           0        4.630977   -4.394834    0.301549
     41          8           0        4.493836   -5.618536    0.450691
     42          6           0        3.451196   -3.494950   -0.176943
     43          6           0        2.437191   -3.640837    0.909528
     44          8           0        2.467777   -2.905895    1.890875
     45          8           0        1.477538   -4.574128    0.600456
     46          6           0        0.326342   -4.520158    1.578685
     47          6           0       -3.226721   -2.801052    0.175919
     48          6           0       -4.520287   -2.019266   -0.057689
     49          6           0       -5.784696   -2.529036   -0.281047
     50          6           0       -6.040969   -4.044671   -0.140136
     51          6           0       -6.983583   -1.612032   -0.558223
     52          6           0       -7.507358   -2.086274   -1.968901
     53          6           0       -8.354825   -0.895234   -2.571096
     54          6           0       -9.850392   -1.321013   -2.759282
     55          6           0      -10.223267   -2.092861   -3.920823
     56          6           0      -10.783851   -0.105677   -2.566073
     57          6           0      -10.912745    0.367223   -1.076334
     58          6           0      -12.322484    0.019057   -0.385610
     59          6           0      -13.295658    1.271387   -0.313083
     60          6           0      -14.377184    1.308579   -1.432273
     61          6           0      -13.912085    1.219367    1.142197
     62          6           0      -14.227519    2.648345    1.682952
     63          6           0      -14.694904    2.449645    3.184283
     64          6           0      -16.184652    2.874931    3.501453
     65          6           0      -16.311255    4.353631    3.976597
     66          6           0      -16.895476    1.881240    4.515281
     67          1           0        3.286393    3.034168   -2.402269
     68          1           0        8.984003    4.014726    0.300224
     69          1           0        9.515547   -2.221441    1.455848
     70          1           0        2.139311   -1.715490   -2.235300
     71          1           0        1.574161    1.298291   -2.076061
     72          1           0        2.673098   -0.582944   -4.210002
     73          1           0        3.311621    1.079035   -4.139151
     74          1           0        1.615154    0.743288   -4.406848
     75          1           0        1.285816   -0.588161    0.434463
     76          1           0        0.745959   -2.074337   -0.476993
     77          1           0       -0.304940    0.224603   -1.736759
     78          1           0       -0.658608    0.207112    0.037599
     79          1           0        3.436643    5.210276   -2.119451
     80          1           0        4.819429    6.134248   -2.811386
     81          1           0        4.285221    6.380542   -1.144951
     82          1           0        5.791470    7.505525   -0.075697
     83          1           0        6.441231    7.254138   -1.755792
     84          1           0        7.326418    8.209447   -0.553786
     85          1           0       10.071669    2.417814    2.538617
     86          1           0       11.243309    0.056577    1.171347
     87          1           0       11.339997    2.498141   -0.113107
     88          1           0       12.403816    1.928748    1.068230
     89          1           0       11.587436    3.566609    1.293151
     90          1           0        9.523812   -0.315258    3.506149
     91          1           0       11.157663    0.605153    3.706072
     92          1           0       10.657006   -2.210884    4.053761
     93          1           0       12.249186   -1.398323    3.800710
     94          1           0       11.319650   -2.070998    2.524775
     95          1           0        8.657192   -4.420396    2.142888
     96          1           0        8.521707   -4.677018    0.337998
     97          1           0        7.487746   -5.549427    1.592576
     98          1           0        3.238630   -3.839731   -1.188815
     99          1           0       -0.519286   -5.046563    1.136899
    100          1           0       -0.072105   -3.521424    1.756604
    101          1           0        0.523359   -5.059279    2.505817
    102          1           0       -3.301528   -3.190998    1.191582
    103          1           0       -3.116643   -3.591257   -0.566228
    104          1           0       -4.528793   -0.942968   -0.223915
    105          1           0       -6.431586   -4.548304   -1.024743
    106          1           0       -6.827485   -4.092429    0.612104
    107          1           0       -5.254128   -4.517271    0.448369
    108          1           0       -6.789750   -0.540298   -0.608630
    109          1           0       -7.698484   -1.700281    0.259643
    110          1           0       -8.191709   -2.924831   -1.846401
    111          1           0       -6.627580   -2.368790   -2.547388
    112          1           0       -7.932497   -0.475818   -3.484124
    113          1           0       -8.251309   -0.039876   -1.904078
    114          1           0      -10.179629   -1.988590   -1.962599
    115          1           0       -9.481692   -2.097516   -4.718531
    116          1           0      -11.088885   -1.705050   -4.457879
    117          1           0      -10.401192   -3.129012   -3.633167
    118          1           0      -11.736724   -0.094793   -3.094576
    119          1           0      -10.337999    0.716036   -3.126509
    120          1           0      -10.886758    1.450618   -1.187534
    121          1           0      -10.147499    0.033040   -0.374744
    122          1           0      -12.252251   -0.403682    0.616783
    123          1           0      -12.754199   -0.729810   -1.048866
    124          1           0      -12.696439    2.176569   -0.415416
    125          1           0      -15.380351    1.232199   -1.014345
    126          1           0      -14.241854    0.405286   -2.026788
    127          1           0      -14.177641    2.173650   -2.064632
    128          1           0      -13.438670    0.651136    1.942673
    129          1           0      -14.902391    0.774170    1.050431
    130          1           0      -14.954352    3.121421    1.022094
    131          1           0      -13.314409    3.240432    1.622068
    132          1           0      -14.029583    3.115622    3.733635
    133          1           0      -14.554479    1.439219    3.567937
    134          1           0      -16.649843    2.732054    2.525910
    135          1           0      -16.909919    5.000644    3.336358
    136          1           0      -15.328356    4.825429    3.969294
    137          1           0      -16.600721    4.332656    5.027369
    138          1           0      -17.245262    2.479167    5.356779
    139          1           0      -16.182747    1.075215    4.688792
    140          1           0      -17.773702    1.505384    3.990807
 ---------------------------------------------------------------------

 SCF Done:  E(RZINDO/S) =  -474.010000460     A.U. after   20 cycles

 Excitation energies and oscillator strengths:

 Excited State   1:      Singlet-A      1.3361 eV  927.93 nm  f=0.5447  <S**2>=0.000
     175 ->178         0.20246
     176 ->177         0.65936
 This state for optimization and/or second-order correction.
 Total Energy, E(CIS/TDA) =  -473.960898315
 Copying the excited state density for this state as the 1-particle RhoCI density.

 Excited State   2:      Singlet-A      1.9307 eV  642.17 nm  f=0.0388  <S**2>=0.000
     175 ->177         0.53848
     176 ->178        -0.43174

 Excited State   3:      Singlet-A      2.8201 eV  439.64 nm  f=0.0019  <S**2>=0.000
     168 ->177         0.23096
     168 ->179        -0.24461
     168 ->181         0.16646
     168 ->185        -0.15335
     169 ->177         0.27505
     169 ->179        -0.28514
     169 ->181         0.19347
     169 ->184         0.10951
     169 ->185        -0.17478

 Excited State   4:      Singlet-A      3.0212 eV  410.38 nm  f=1.0041  <S**2>=0.000
     170 ->177         0.10819
     170 ->179         0.14314
     170 ->181         0.14345
     171 ->177         0.12731
     175 ->177         0.37021
     176 ->178         0.48022
     176 ->181        -0.10427

 Excited State   5:      Singlet-A      3.0361 eV  408.36 nm  f=0.1831  <S**2>=0.000
     170 ->177        -0.10760
     170 ->179        -0.14481
     170 ->181        -0.15429
     175 ->177         0.11233
     176 ->178         0.13672
     176 ->179         0.57860

 The electronic state is 1-A.
 Alpha  occ. eigenvalues --   -1.85973  -1.82532  -1.80520  -1.72386  -1.71128
 Alpha  occ. eigenvalues --   -1.68334  -1.64035  -1.60614  -1.59695  -1.57490
 Alpha  occ. eigenvalues --   -1.53091  -1.50049  -1.48475  -1.48419  -1.45954
 Alpha  occ. eigenvalues --   -1.43258  -1.42491  -1.41102  -1.40328  -1.37121
 Alpha  occ. eigenvalues --   -1.36865  -1.32987  -1.31621  -1.31424  -1.28618
 Alpha  occ. eigenvalues --   -1.27021  -1.24319  -1.22345  -1.20050  -1.18371
 Alpha  occ. eigenvalues --   -1.16361  -1.14992  -1.14511  -1.14125  -1.13331
 Alpha  occ. eigenvalues --   -1.12674  -1.11602  -1.08906  -1.04709  -1.04241
 Alpha  occ. eigenvalues --   -1.02110  -1.01337  -0.98992  -0.97552  -0.97059
 Alpha  occ. eigenvalues --   -0.96049  -0.93964  -0.92968  -0.92609  -0.92161
 Alpha  occ. eigenvalues --   -0.90843  -0.90015  -0.89492  -0.88508  -0.88211
 Alpha  occ. eigenvalues --   -0.86272  -0.84211  -0.83039  -0.81542  -0.80533
 Alpha  occ. eigenvalues --   -0.79908  -0.78661  -0.76961  -0.76525  -0.75976
 Alpha  occ. eigenvalues --   -0.75514  -0.74736  -0.74176  -0.73952  -0.73711
 Alpha  occ. eigenvalues --   -0.73265  -0.72543  -0.72396  -0.71026  -0.70908
 Alpha  occ. eigenvalues --   -0.69879  -0.69104  -0.68933  -0.67977  -0.67772
 Alpha  occ. eigenvalues --   -0.67010  -0.66723  -0.66166  -0.65764  -0.65399
 Alpha  occ. eigenvalues --   -0.64970  -0.64925  -0.64095  -0.63697  -0.63640
 Alpha  occ. eigenvalues --   -0.63403  -0.62810  -0.62624  -0.62146  -0.62054
 Alpha  occ. eigenvalues --   -0.61815  -0.61231  -0.60924  -0.60526  -0.60064
 Alpha  occ. eigenvalues --   -0.59153  -0.58898  -0.58772  -0.58253  -0.58153
 Alpha  occ. eigenvalues --   -0.57844  -0.57457  -0.57350  -0.56642  -0.56068
 Alpha  occ. eigenvalues --   -0.55855  -0.55768  -0.55103  -0.54744  -0.54432
 Alpha  occ. eigenvalues --   -0.54111  -0.53861  -0.53537  -0.53360  -0.53031
 Alpha  occ. eigenvalues --   -0.52969  -0.52513  -0.51859  -0.51673  -0.51438
 Alpha  occ. eigenvalues --   -0.50942  -0.50832  -0.50677  -0.50233  -0.50078
 Alpha  occ. eigenvalues --   -0.49879  -0.49611  -0.49431  -0.49243  -0.48880
 Alpha  occ. eigenvalues --   -0.48788  -0.48334  -0.48088  -0.47899  -0.47386
 Alpha  occ. eigenvalues --   -0.47315  -0.46995  -0.46829  -0.46572  -0.46396
 Alpha  occ. eigenvalues --   -0.45965  -0.45915  -0.45803  -0.45432  -0.45189
 Alpha  occ. eigenvalues --   -0.45128  -0.44912  -0.44669  -0.44371  -0.43986
 Alpha  occ. eigenvalues --   -0.43587  -0.43476  -0.42451  -0.42340  -0.41893
 Alpha  occ. eigenvalues --   -0.41617  -0.41363  -0.41011  -0.39550  -0.39001
 Alpha  occ. eigenvalues --   -0.38302  -0.37009  -0.35223  -0.35083  -0.34604
 Alpha  occ. eigenvalues --   -0.33583  -0.32800  -0.32272  -0.31111  -0.26397
 Alpha  occ. eigenvalues --   -0.21970
 Alpha virt. eigenvalues --   -0.08105  -0.02270  -0.00846   0.00358   0.00810
 Alpha virt. eigenvalues --    0.02986   0.03305   0.03400   0.04715   0.05023
 Alpha virt. eigenvalues --    0.05997   0.06405   0.07129   0.07442   0.08083

 Mulliken charges:
               1
     1  Mg   0.432543
     2  C   -0.044460
     3  C   -0.101839
     4  C   -0.080449
     5  C   -0.046600
     6  N   -0.287750
     7  C    0.128064
     8  C    0.003953
     9  C   -0.003306
    10  C    0.143683
    11  C   -0.042022
    12  C   -0.010708
    13  C    0.004812
    14  C    0.459431
    15  O   -0.513375
    16  O   -0.281096
    17  N   -0.323504
    18  C    0.121319
    19  C    0.020989
    20  C   -0.038284
    21  C    0.138876
    22  C   -0.036405
    23  C    0.335070
    24  O   -0.520655
    25  C   -0.035259
    26  N   -0.224242
    27  C    0.154687
    28  C    0.003655
    29  C   -0.007707
    30  C    0.091894
    31  C   -0.051121
    32  C   -0.032461
    33  C   -0.060798
    34  N   -0.321109
    35  C    0.062987
    36  C    0.023180
    37  C   -0.056116
    38  C    0.119795
    39  C   -0.055384
    40  C    0.330314
    41  O   -0.533482
    42  C    0.045910
    43  C    0.503087
    44  O   -0.535013
    45  O   -0.255173
    46  C    0.073127
    47  C    0.113938
    48  C   -0.105758
    49  C   -0.016280
    50  C   -0.052891
    51  C   -0.020891
    52  C   -0.036640
    53  C   -0.035865
    54  C    0.002009
    55  C   -0.045166
    56  C   -0.040163
    57  C   -0.046807
    58  C   -0.050403
    59  C   -0.018616
    60  C   -0.058275
    61  C   -0.046381
    62  C   -0.043249
    63  C   -0.042774
    64  C   -0.025061
    65  C   -0.059408
    66  C   -0.067223
    67  H    0.014612
    68  H    0.038607
    69  H    0.025756
    70  H    0.030389
    71  H    0.031174
    72  H    0.025532
    73  H    0.023440
    74  H    0.019759
    75  H    0.042181
    76  H    0.031903
    77  H    0.035444
    78  H    0.038501
    79  H    0.028628
    80  H    0.034115
    81  H    0.031203
    82  H    0.043771
    83  H    0.028646
    84  H    0.032518
    85  H    0.041382
    86  H    0.028400
    87  H    0.016410
    88  H    0.028934
    89  H    0.029104
    90  H    0.029438
    91  H    0.023567
    92  H    0.025017
    93  H    0.018725
    94  H    0.011486
    95  H    0.026583
    96  H    0.036223
    97  H    0.037232
    98  H    0.057296
    99  H    0.022322
   100  H    0.047405
   101  H    0.051361
   102  H    0.043315
   103  H    0.062266
   104  H    0.034526
   105  H    0.043641
   106  H    0.012933
   107  H    0.027490
   108  H    0.027077
   109  H    0.025202
   110  H    0.025399
   111  H    0.035039
   112  H    0.021644
   113  H    0.019288
   114  H    0.013636
   115  H    0.009779
   116  H    0.015801
   117  H    0.014753
   118  H    0.025419
   119  H    0.002041
   120  H    0.015489
   121  H    0.027057
   122  H    0.024856
   123  H    0.017018
   124  H    0.023360
   125  H    0.027082
   126  H    0.016411
   127  H    0.024261
   128  H    0.030953
   129  H    0.009834
   130  H    0.024983
   131  H    0.016945
   132  H    0.011751
   133  H    0.026046
   134  H    0.017739
   135  H    0.024997
   136  H    0.011521
   137  H    0.023594
   138  H    0.029695
   139  H    0.030744
   140  H    0.016197
 Sum of Mulliken charges =  -0.00000

 Dipole moment (field-independent basis, Debye):
    X=             -2.4434    Y=              5.4517    Z=             -2.8916  Tot=              6.6372
 N-N= 4.177338158747D+03 E-N= 0.000000000000D+00  KE=-9.028962144895D+03
 Leave Link  601 at Wed Apr 27 14:55:23 2022, MaxMem=  6710886400 cpu:               2.0 elap:               0.1
 (Enter /sw/apps/gaussian-16.0/g16/l9999.exe)
 1\1\GINC-BP1-COMPUTE196\SP\RZINDO CIS\STO-3G\C55H74Mg1N4O6\OF15641\27-
 Apr-2022\0\\#p ZINDO=(nstates=5)\\step_1201_chromophore_22 ZINDO\\0,1\
 Mg,0,9.204,48.443,25.275\C,0,7.071,48.208,28.009\C,0,11.683,49.278,27.
 43\C,0,11.238,48.362,22.682\C,0,6.493,47.968,23.119\N,0,9.291,48.603,2
 7.578\C,0,8.3,48.56,28.439\C,0,8.753,48.89,29.851\C,0,10.177,49.63,29.
 538\C,0,10.447,49.071,28.097\C,0,10.206,51.149,29.691\C,0,8.769,47.652
 ,30.77\C,0,9.684,47.618,32.018\C,0,9.082,47.618,33.477\O,0,8.898,48.58

 Normal termination of Gaussian 16 at Wed Apr 27 14:55:23 2022.
