 Gaussian 16, Revision A.03,
 Gaussian 16:  ES64L-G16RevA.03 25-Dec-2016

 ------------------------------
 #p blyp/Def2SVP td=(nstates=5)
 ------------------------------

 ---------------------------------------------------
 step_1751_chromophore_26 TDDFT with blyp functional
 ---------------------------------------------------
 Symbolic Z-matrix:
 Charge =  0 Multiplicity = 1

                         Standard orientation:
 ---------------------------------------------------------------------
 Center     Atomic      Atomic             Coordinates (Angstroms)
 Number     Number       Type             X           Y           Z
 ---------------------------------------------------------------------
      1         12           0       -4.094516    1.207408    0.547214
      2          6           0       -4.939176   -2.025097   -0.289674
      3          6           0       -2.159416   -0.155816    3.104853
      4          6           0       -2.915015    4.201796    1.314408
      5          6           0       -5.271478    2.358405   -2.511756
      6          7           0       -3.692129   -0.874494    1.313276
      7          6           0       -4.110728   -2.058727    0.809152
      8          6           0       -3.593948   -3.290869    1.573666
      9          6           0       -2.661229   -2.668800    2.647049
     10          6           0       -2.855760   -1.138258    2.368353
     11          6           0       -3.070716   -3.154506    4.042743
     12          6           0       -2.909995   -4.378025    0.719426
     13          6           0       -1.974902   -4.008256   -0.509600
     14          6           0       -0.542326   -4.600620   -0.578233
     15          8           0       -0.272802   -5.752909   -0.834697
     16          8           0        0.393432   -3.596356   -0.411590
     17          7           0       -2.811519    1.932334    2.030182
     18          6           0       -2.106143    1.242109    2.977716
     19          6           0       -1.352842    2.041606    3.804018
     20          6           0       -1.566396    3.369009    3.318290
     21          6           0       -2.476568    3.243024    2.179678
     22          6           0       -0.643776    1.605288    5.008201
     23          6           0       -0.926590    4.618092    3.893186
     24          8           0       -0.225164    4.511387    4.883723
     25          6           0       -1.158793    5.976849    3.297176
     26          7           0       -3.840693    2.970096   -0.635157
     27          6           0       -3.494347    4.156781    0.008976
     28          6           0       -3.868672    5.415526   -0.909567
     29          6           0       -4.362451    4.682766   -2.184008
     30          6           0       -4.489179    3.234018   -1.792708
     31          6           0       -4.845487    6.319673   -0.173630
     32          6           0       -3.378928    4.780898   -3.352521
     33          6           0       -4.074383    4.922622   -4.740071
     34          7           0       -4.949308    0.390631   -1.075985
     35          6           0       -5.487880    0.949641   -2.206652
     36          6           0       -6.260440    0.000503   -2.928022
     37          6           0       -6.112071   -1.227974   -2.177448
     38          6           0       -5.277665   -0.902822   -1.103181
     39          6           0       -7.064387    0.252237   -4.223346
     40          6           0       -6.436384   -2.558601   -2.148388
     41          8           0       -7.098995   -3.285418   -2.934868
     42          6           0       -5.752938   -3.181461   -0.863786
     43          6           0       -6.841957   -3.755929    0.101245
     44          8           0       -7.134828   -4.892992    0.201222
     45          8           0       -7.337395   -2.720964    0.888408
     46          6           0       -8.291914   -3.048206    1.984336
     47          6           0        1.813255   -3.956141   -0.523427
     48          6           0        2.373847   -2.852347   -1.424038
     49          6           0        3.634707   -2.422221   -1.682556
     50          6           0        4.794452   -2.961191   -0.771965
     51          6           0        3.854499   -1.201906   -2.525475
     52          6           0        4.343441    0.124862   -1.865683
     53          6           0        5.603726    0.784864   -2.508023
     54          6           0        6.623810    1.229456   -1.521401
     55          6           0        7.461072    2.418572   -2.143158
     56          6           0        7.464306    0.014409   -1.070142
     57          6           0        7.733643   -0.005483    0.478297
     58          6           0        8.334033   -1.371776    0.763214
     59          6           0        9.699607   -1.262554    1.450185
     60          6           0        9.661764   -2.265354    2.695220
     61          6           0       10.834654   -1.632883    0.478887
     62          6           0       12.150471   -0.823730    0.694933
     63          6           0       12.706433   -0.334277   -0.628393
     64          6           0       12.371333    1.159730   -0.820837
     65          6           0       11.827602    1.459470   -2.270555
     66          6           0       13.570275    2.109010   -0.472508
     67          1           0       -1.498839   -0.608045    3.847475
     68          1           0       -2.707664    5.256886    1.507404
     69          1           0       -5.688101    2.885839   -3.372635
     70          1           0       -4.455676   -3.751957    2.056859
     71          1           0       -1.589339   -2.731961    2.457898
     72          1           0       -2.374857   -3.843891    4.520560
     73          1           0       -4.005869   -3.716011    4.033575
     74          1           0       -3.250260   -2.306422    4.703547
     75          1           0       -3.667959   -4.983700    0.222230
     76          1           0       -2.319266   -5.004740    1.387798
     77          1           0       -1.822499   -2.929795   -0.532601
     78          1           0       -2.514324   -4.087771   -1.453468
     79          1           0        0.192942    2.270224    5.220992
     80          1           0       -0.144218    0.645774    4.879107
     81          1           0       -1.305969    1.529470    5.870742
     82          1           0       -2.185133    6.343652    3.277701
     83          1           0       -0.751567    6.139345    2.299788
     84          1           0       -0.654845    6.791698    3.816289
     85          1           0       -2.949848    5.993059   -1.020764
     86          1           0       -5.341982    5.118891   -2.376643
     87          1           0       -5.696136    6.678001   -0.753891
     88          1           0       -4.415834    7.221161    0.261227
     89          1           0       -5.447469    5.873627    0.617869
     90          1           0       -2.749831    3.891287   -3.324780
     91          1           0       -2.563522    5.489035   -3.205552
     92          1           0       -3.438534    5.565783   -5.348855
     93          1           0       -4.991439    5.505089   -4.648066
     94          1           0       -4.172835    3.927448   -5.173735
     95          1           0       -6.381434   -0.096837   -4.997222
     96          1           0       -7.450508    1.256682   -4.399169
     97          1           0       -7.914596   -0.427633   -4.272235
     98          1           0       -5.189584   -4.052866   -1.197829
     99          1           0       -9.261217   -2.747087    1.584822
    100          1           0       -8.067946   -2.545042    2.924122
    101          1           0       -8.432401   -4.123505    2.092455
    102          1           0        1.883583   -4.930732   -1.006050
    103          1           0        2.365895   -3.949803    0.415716
    104          1           0        1.533088   -2.250388   -1.769285
    105          1           0        5.183066   -2.094044   -0.237521
    106          1           0        5.575750   -3.202211   -1.493167
    107          1           0        4.602068   -3.757769   -0.052173
    108          1           0        2.962589   -0.966555   -3.106213
    109          1           0        4.522872   -1.545140   -3.315456
    110          1           0        4.533846   -0.015292   -0.802129
    111          1           0        3.532116    0.833157   -2.028993
    112          1           0        5.194312    1.624111   -3.068856
    113          1           0        6.070403    0.097138   -3.214382
    114          1           0        6.078736    1.536549   -0.628445
    115          1           0        8.524137    2.239582   -1.978535
    116          1           0        7.159601    3.274292   -1.539594
    117          1           0        7.253868    2.758681   -3.158109
    118          1           0        8.472624    0.058974   -1.483524
    119          1           0        6.949844   -0.914117   -1.315014
    120          1           0        6.749528    0.044413    0.944077
    121          1           0        8.322027    0.870427    0.753533
    122          1           0        8.240832   -2.088034   -0.052503
    123          1           0        7.538330   -1.639760    1.459285
    124          1           0        9.870791   -0.251864    1.820774
    125          1           0        8.637398   -2.377106    3.051137
    126          1           0       10.448095   -1.908369    3.359516
    127          1           0        9.942183   -3.296355    2.480331
    128          1           0       10.560828   -1.602808   -0.576078
    129          1           0       11.206386   -2.647444    0.616193
    130          1           0       12.977258   -1.478173    0.972444
    131          1           0       12.045957   -0.065843    1.471755
    132          1           0       12.358746   -0.893549   -1.497387
    133          1           0       13.778576   -0.519384   -0.691606
    134          1           0       11.520347    1.374945   -0.173451
    135          1           0       11.145644    2.308053   -2.320399
    136          1           0       11.278870    0.552425   -2.523246
    137          1           0       12.767353    1.420666   -2.821434
    138          1           0       13.256550    3.034654    0.008542
    139          1           0       14.146370    2.299264   -1.378294
    140          1           0       14.121556    1.556542    0.288434
 ---------------------------------------------------------------------

 SCF Done:  E(RB-LYP) =  -3007.36000920     A.U. after   22 cycles

 Excitation energies and oscillator strengths:

 Excited State   1:      Singlet-A      1.5911 eV  779.26 nm  f=0.0045  <S**2>=0.000
     244 -> 247        0.63309
     245 -> 247       -0.30415
 This state for optimization and/or second-order correction.
 Total Energy, E(TD-HF/TD-DFT) =  -3007.30153882
 Copying the excited state density for this state as the 1-particle RhoCI density.

 Excited State   2:      Singlet-A      1.8450 eV  671.99 nm  f=0.2573  <S**2>=0.000
     243 -> 247       -0.21393
     245 -> 247       -0.14191
     245 -> 248        0.17439
     246 -> 247        0.63983
     246 <- 247       -0.13477

 Excited State   3:      Singlet-A      1.8700 eV  663.02 nm  f=0.0381  <S**2>=0.000
     243 -> 247        0.66422
     246 -> 247        0.22089

 Excited State   4:      Singlet-A      1.9926 eV  622.21 nm  f=0.1211  <S**2>=0.000
     243 -> 247       -0.11055
     244 -> 247        0.29502
     245 -> 247        0.57962
     246 -> 248       -0.18911

 Excited State   5:      Singlet-A      2.0517 eV  604.29 nm  f=0.0009  <S**2>=0.000
     242 -> 247        0.70532

 The electronic state is 1-A.
 Alpha  occ. eigenvalues --  -46.27501 -18.82188 -18.81732 -18.77282 -18.76994
 Alpha  occ. eigenvalues --  -18.75676 -18.74622 -14.03842 -14.03171 -14.01226
 Alpha  occ. eigenvalues --  -14.01149 -10.04380 -10.04046 -10.00229  -9.98563
 Alpha  occ. eigenvalues --   -9.98076  -9.97941  -9.97611  -9.96908  -9.96499
 Alpha  occ. eigenvalues --   -9.96117  -9.96030  -9.95955  -9.95090  -9.95051
 Alpha  occ. eigenvalues --   -9.94833  -9.94825  -9.94735  -9.94101  -9.93929
 Alpha  occ. eigenvalues --   -9.93880  -9.93824  -9.93578  -9.93563  -9.93064
 Alpha  occ. eigenvalues --   -9.93037  -9.93030  -9.92998  -9.92953  -9.92904
 Alpha  occ. eigenvalues --   -9.92888  -9.92885  -9.92712  -9.92673  -9.92670
 Alpha  occ. eigenvalues --   -9.92615  -9.92250  -9.92191  -9.91989  -9.91790
 Alpha  occ. eigenvalues --   -9.91667  -9.91529  -9.91503  -9.91233  -9.91055
 Alpha  occ. eigenvalues --   -9.91047  -9.90988  -9.90957  -9.90957  -9.90952
 Alpha  occ. eigenvalues --   -9.90906  -9.90844  -9.90716  -9.90693  -9.90660
 Alpha  occ. eigenvalues --   -9.90511  -2.92218  -1.72618  -1.72113  -1.71929
 Alpha  occ. eigenvalues --   -0.97895  -0.97695  -0.92090  -0.90680  -0.90298
 Alpha  occ. eigenvalues --   -0.88790  -0.87246  -0.86587  -0.86209  -0.85428
 Alpha  occ. eigenvalues --   -0.75628  -0.73749  -0.73197  -0.73132  -0.72874
 Alpha  occ. eigenvalues --   -0.72478  -0.71999  -0.71211  -0.70905  -0.70578
 Alpha  occ. eigenvalues --   -0.69680  -0.69123  -0.68151  -0.67745  -0.67312
 Alpha  occ. eigenvalues --   -0.66472  -0.66081  -0.65357  -0.64969  -0.64626
 Alpha  occ. eigenvalues --   -0.64007  -0.62647  -0.62467  -0.62071  -0.61060
 Alpha  occ. eigenvalues --   -0.60745  -0.60522  -0.59851  -0.59093  -0.59049
 Alpha  occ. eigenvalues --   -0.58636  -0.57988  -0.57160  -0.56164  -0.55065
 Alpha  occ. eigenvalues --   -0.54788  -0.53767  -0.53401  -0.52452  -0.52155
 Alpha  occ. eigenvalues --   -0.51686  -0.51278  -0.50733  -0.50543  -0.50396
 Alpha  occ. eigenvalues --   -0.49809  -0.49315  -0.49307  -0.48744  -0.46897
 Alpha  occ. eigenvalues --   -0.46428  -0.46171  -0.45779  -0.45300  -0.44802
 Alpha  occ. eigenvalues --   -0.44256  -0.43811  -0.43416  -0.42836  -0.42594
 Alpha  occ. eigenvalues --   -0.42303  -0.42186  -0.41694  -0.41526  -0.41096
 Alpha  occ. eigenvalues --   -0.40917  -0.40514  -0.40243  -0.40043  -0.39878
 Alpha  occ. eigenvalues --   -0.39823  -0.39624  -0.39570  -0.39297  -0.39071
 Alpha  occ. eigenvalues --   -0.38943  -0.38755  -0.38503  -0.38317  -0.38261
 Alpha  occ. eigenvalues --   -0.37941  -0.37906  -0.37778  -0.37703  -0.37437
 Alpha  occ. eigenvalues --   -0.37130  -0.37015  -0.36766  -0.36732  -0.36573
 Alpha  occ. eigenvalues --   -0.36529  -0.36327  -0.36104  -0.35970  -0.35513
 Alpha  occ. eigenvalues --   -0.35336  -0.35124  -0.35070  -0.34899  -0.34720
 Alpha  occ. eigenvalues --   -0.34648  -0.34345  -0.34254  -0.34211  -0.34072
 Alpha  occ. eigenvalues --   -0.33904  -0.33743  -0.33693  -0.33493  -0.33221
 Alpha  occ. eigenvalues --   -0.33221  -0.33181  -0.32911  -0.32861  -0.32628
 Alpha  occ. eigenvalues --   -0.32402  -0.32041  -0.31917  -0.31775  -0.31535
 Alpha  occ. eigenvalues --   -0.31478  -0.31380  -0.31293  -0.31024  -0.30995
 Alpha  occ. eigenvalues --   -0.30866  -0.30806  -0.30497  -0.30438  -0.30013
 Alpha  occ. eigenvalues --   -0.29911  -0.29752  -0.29497  -0.29392  -0.29293
 Alpha  occ. eigenvalues --   -0.29092  -0.28888  -0.28172  -0.28113  -0.27864
 Alpha  occ. eigenvalues --   -0.27758  -0.27487  -0.27134  -0.27109  -0.26947
 Alpha  occ. eigenvalues --   -0.26416  -0.26248  -0.26078  -0.25681  -0.25104
 Alpha  occ. eigenvalues --   -0.25079  -0.24907  -0.24351  -0.24080  -0.23830
 Alpha  occ. eigenvalues --   -0.23021  -0.22627  -0.22075  -0.21989  -0.20773
 Alpha  occ. eigenvalues --   -0.20674  -0.19662  -0.18910  -0.17943  -0.17397
 Alpha  occ. eigenvalues --   -0.16545
 Alpha virt. eigenvalues --   -0.12124  -0.07073  -0.06346  -0.04613  -0.03509
 Alpha virt. eigenvalues --   -0.02918  -0.01667  -0.01610  -0.01510   0.00018
 Alpha virt. eigenvalues --    0.01228   0.01345   0.01485   0.02082   0.02415

 Mulliken charges:
               1
     1  Mg   0.708130
     2  C    0.045615
     3  C   -0.091639
     4  C   -0.048157
     5  C   -0.068014
     6  N   -0.190293
     7  C   -0.128318
     8  C    0.111743
     9  C   -0.001388
    10  C   -0.021414
    11  C    0.130601
    12  C    0.101679
    13  C    0.078571
    14  C    0.088979
    15  O   -0.169969
    16  O   -0.281920
    17  N   -0.269487
    18  C    0.174346
    19  C   -0.143554
    20  C    0.033588
    21  C    0.188774
    22  C    0.194900
    23  C   -0.057592
    24  O   -0.153001
    25  C    0.116429
    26  N   -0.230839
    27  C   -0.069286
    28  C    0.034307
    29  C    0.059848
    30  C   -0.006911
    31  C    0.114943
    32  C    0.091021
    33  C    0.086177
    34  N   -0.263973
    35  C    0.138902
    36  C   -0.177775
    37  C    0.185185
    38  C    0.077473
    39  C    0.174971
    40  C   -0.132547
    41  O   -0.172168
    42  C    0.008083
    43  C    0.103474
    44  O   -0.111991
    45  O   -0.306720
    46  C    0.205646
    47  C    0.314165
    48  C   -0.146896
    49  C   -0.135861
    50  C    0.119727
    51  C    0.145284
    52  C    0.066819
    53  C    0.091193
    54  C   -0.045797
    55  C    0.113124
    56  C    0.032861
    57  C    0.024605
    58  C    0.120213
    59  C   -0.036468
    60  C    0.096976
    61  C    0.117674
    62  C    0.068277
    63  C    0.084885
    64  C   -0.115921
    65  C    0.080089
    66  C    0.116638
    67  H   -0.073864
    68  H   -0.089919
    69  H   -0.069781
    70  H   -0.013922
    71  H   -0.004488
    72  H   -0.004806
    73  H   -0.016417
    74  H   -0.008477
    75  H    0.004710
    76  H   -0.009496
    77  H   -0.011640
    78  H    0.007337
    79  H    0.004108
    80  H   -0.022853
    81  H    0.008520
    82  H    0.016829
    83  H    0.006044
    84  H   -0.026963
    85  H   -0.021167
    86  H   -0.034852
    87  H   -0.021650
    88  H   -0.005618
    89  H   -0.017170
    90  H   -0.025071
    91  H   -0.033530
    92  H   -0.013096
    93  H   -0.008750
    94  H    0.016808
    95  H    0.007119
    96  H   -0.000713
    97  H    0.003754
    98  H   -0.005646
    99  H    0.011765
   100  H    0.028091
   101  H    0.018143
   102  H    0.015567
   103  H    0.004630
   104  H   -0.024767
   105  H    0.000413
   106  H   -0.003200
   107  H   -0.002439
   108  H   -0.038467
   109  H   -0.029411
   110  H   -0.012549
   111  H   -0.024924
   112  H   -0.044318
   113  H   -0.028642
   114  H   -0.038446
   115  H   -0.016429
   116  H   -0.024217
   117  H   -0.008514
   118  H   -0.021317
   119  H   -0.030975
   120  H   -0.034328
   121  H   -0.019749
   122  H   -0.020328
   123  H   -0.047397
   124  H   -0.030052
   125  H   -0.013351
   126  H   -0.018063
   127  H   -0.023780
   128  H   -0.026377
   129  H   -0.036473
   130  H   -0.041194
   131  H   -0.020228
   132  H   -0.046718
   133  H   -0.049026
   134  H   -0.037381
   135  H    0.012327
   136  H   -0.019946
   137  H   -0.016253
   138  H   -0.016225
   139  H   -0.009032
   140  H   -0.019778
 Sum of Mulliken charges =  -0.00000

 Dipole moment (field-independent basis, Debye):
    X=              0.7816    Y=              6.6139    Z=              1.7969  Tot=              6.8981
 Quadrupole moment (field-independent basis, Debye-Ang):
   XX=           -403.2798   YY=           -422.1733   ZZ=           -414.9244
   XY=            -50.2429   XZ=            -26.6531   YZ=            -41.1810

 Normal termination of Gaussian 16 at Wed May  4 14:06:42 2022.
