 Gaussian 16, Revision A.03,
 Gaussian 16:  ES64L-G16RevA.03 25-Dec-2016

 -----------------------------------
 #p cam-b3lyp/Def2SVP td=(nstates=5)
 -----------------------------------

 --------------------------------------------------------
 step_1751_chromophore_26 TDDFT with cam-b3lyp functional
 --------------------------------------------------------
 Symbolic Z-matrix:
 Charge =  0 Multiplicity = 1

                         Standard orientation:
 ---------------------------------------------------------------------
 Center     Atomic      Atomic             Coordinates (Angstroms)
 Number     Number       Type             X           Y           Z
 ---------------------------------------------------------------------
      1         12           0       -4.094516    1.207408    0.547214
      2          6           0       -4.939176   -2.025097   -0.289674
      3          6           0       -2.159416   -0.155816    3.104853
      4          6           0       -2.915015    4.201796    1.314408
      5          6           0       -5.271478    2.358405   -2.511756
      6          7           0       -3.692129   -0.874494    1.313276
      7          6           0       -4.110728   -2.058727    0.809152
      8          6           0       -3.593948   -3.290869    1.573666
      9          6           0       -2.661229   -2.668800    2.647049
     10          6           0       -2.855760   -1.138258    2.368353
     11          6           0       -3.070716   -3.154506    4.042743
     12          6           0       -2.909995   -4.378025    0.719426
     13          6           0       -1.974902   -4.008256   -0.509600
     14          6           0       -0.542326   -4.600620   -0.578233
     15          8           0       -0.272802   -5.752909   -0.834697
     16          8           0        0.393432   -3.596356   -0.411590
     17          7           0       -2.811519    1.932334    2.030182
     18          6           0       -2.106143    1.242109    2.977716
     19          6           0       -1.352842    2.041606    3.804018
     20          6           0       -1.566396    3.369009    3.318290
     21          6           0       -2.476568    3.243024    2.179678
     22          6           0       -0.643776    1.605288    5.008201
     23          6           0       -0.926590    4.618092    3.893186
     24          8           0       -0.225164    4.511387    4.883723
     25          6           0       -1.158793    5.976849    3.297176
     26          7           0       -3.840693    2.970096   -0.635157
     27          6           0       -3.494347    4.156781    0.008976
     28          6           0       -3.868672    5.415526   -0.909567
     29          6           0       -4.362451    4.682766   -2.184008
     30          6           0       -4.489179    3.234018   -1.792708
     31          6           0       -4.845487    6.319673   -0.173630
     32          6           0       -3.378928    4.780898   -3.352521
     33          6           0       -4.074383    4.922622   -4.740071
     34          7           0       -4.949308    0.390631   -1.075985
     35          6           0       -5.487880    0.949641   -2.206652
     36          6           0       -6.260440    0.000503   -2.928022
     37          6           0       -6.112071   -1.227974   -2.177448
     38          6           0       -5.277665   -0.902822   -1.103181
     39          6           0       -7.064387    0.252237   -4.223346
     40          6           0       -6.436384   -2.558601   -2.148388
     41          8           0       -7.098995   -3.285418   -2.934868
     42          6           0       -5.752938   -3.181461   -0.863786
     43          6           0       -6.841957   -3.755929    0.101245
     44          8           0       -7.134828   -4.892992    0.201222
     45          8           0       -7.337395   -2.720964    0.888408
     46          6           0       -8.291914   -3.048206    1.984336
     47          6           0        1.813255   -3.956141   -0.523427
     48          6           0        2.373847   -2.852347   -1.424038
     49          6           0        3.634707   -2.422221   -1.682556
     50          6           0        4.794452   -2.961191   -0.771965
     51          6           0        3.854499   -1.201906   -2.525475
     52          6           0        4.343441    0.124862   -1.865683
     53          6           0        5.603726    0.784864   -2.508023
     54          6           0        6.623810    1.229456   -1.521401
     55          6           0        7.461072    2.418572   -2.143158
     56          6           0        7.464306    0.014409   -1.070142
     57          6           0        7.733643   -0.005483    0.478297
     58          6           0        8.334033   -1.371776    0.763214
     59          6           0        9.699607   -1.262554    1.450185
     60          6           0        9.661764   -2.265354    2.695220
     61          6           0       10.834654   -1.632883    0.478887
     62          6           0       12.150471   -0.823730    0.694933
     63          6           0       12.706433   -0.334277   -0.628393
     64          6           0       12.371333    1.159730   -0.820837
     65          6           0       11.827602    1.459470   -2.270555
     66          6           0       13.570275    2.109010   -0.472508
     67          1           0       -1.498839   -0.608045    3.847475
     68          1           0       -2.707664    5.256886    1.507404
     69          1           0       -5.688101    2.885839   -3.372635
     70          1           0       -4.455676   -3.751957    2.056859
     71          1           0       -1.589339   -2.731961    2.457898
     72          1           0       -2.374857   -3.843891    4.520560
     73          1           0       -4.005869   -3.716011    4.033575
     74          1           0       -3.250260   -2.306422    4.703547
     75          1           0       -3.667959   -4.983700    0.222230
     76          1           0       -2.319266   -5.004740    1.387798
     77          1           0       -1.822499   -2.929795   -0.532601
     78          1           0       -2.514324   -4.087771   -1.453468
     79          1           0        0.192942    2.270224    5.220992
     80          1           0       -0.144218    0.645774    4.879107
     81          1           0       -1.305969    1.529470    5.870742
     82          1           0       -2.185133    6.343652    3.277701
     83          1           0       -0.751567    6.139345    2.299788
     84          1           0       -0.654845    6.791698    3.816289
     85          1           0       -2.949848    5.993059   -1.020764
     86          1           0       -5.341982    5.118891   -2.376643
     87          1           0       -5.696136    6.678001   -0.753891
     88          1           0       -4.415834    7.221161    0.261227
     89          1           0       -5.447469    5.873627    0.617869
     90          1           0       -2.749831    3.891287   -3.324780
     91          1           0       -2.563522    5.489035   -3.205552
     92          1           0       -3.438534    5.565783   -5.348855
     93          1           0       -4.991439    5.505089   -4.648066
     94          1           0       -4.172835    3.927448   -5.173735
     95          1           0       -6.381434   -0.096837   -4.997222
     96          1           0       -7.450508    1.256682   -4.399169
     97          1           0       -7.914596   -0.427633   -4.272235
     98          1           0       -5.189584   -4.052866   -1.197829
     99          1           0       -9.261217   -2.747087    1.584822
    100          1           0       -8.067946   -2.545042    2.924122
    101          1           0       -8.432401   -4.123505    2.092455
    102          1           0        1.883583   -4.930732   -1.006050
    103          1           0        2.365895   -3.949803    0.415716
    104          1           0        1.533088   -2.250388   -1.769285
    105          1           0        5.183066   -2.094044   -0.237521
    106          1           0        5.575750   -3.202211   -1.493167
    107          1           0        4.602068   -3.757769   -0.052173
    108          1           0        2.962589   -0.966555   -3.106213
    109          1           0        4.522872   -1.545140   -3.315456
    110          1           0        4.533846   -0.015292   -0.802129
    111          1           0        3.532116    0.833157   -2.028993
    112          1           0        5.194312    1.624111   -3.068856
    113          1           0        6.070403    0.097138   -3.214382
    114          1           0        6.078736    1.536549   -0.628445
    115          1           0        8.524137    2.239582   -1.978535
    116          1           0        7.159601    3.274292   -1.539594
    117          1           0        7.253868    2.758681   -3.158109
    118          1           0        8.472624    0.058974   -1.483524
    119          1           0        6.949844   -0.914117   -1.315014
    120          1           0        6.749528    0.044413    0.944077
    121          1           0        8.322027    0.870427    0.753533
    122          1           0        8.240832   -2.088034   -0.052503
    123          1           0        7.538330   -1.639760    1.459285
    124          1           0        9.870791   -0.251864    1.820774
    125          1           0        8.637398   -2.377106    3.051137
    126          1           0       10.448095   -1.908369    3.359516
    127          1           0        9.942183   -3.296355    2.480331
    128          1           0       10.560828   -1.602808   -0.576078
    129          1           0       11.206386   -2.647444    0.616193
    130          1           0       12.977258   -1.478173    0.972444
    131          1           0       12.045957   -0.065843    1.471755
    132          1           0       12.358746   -0.893549   -1.497387
    133          1           0       13.778576   -0.519384   -0.691606
    134          1           0       11.520347    1.374945   -0.173451
    135          1           0       11.145644    2.308053   -2.320399
    136          1           0       11.278870    0.552425   -2.523246
    137          1           0       12.767353    1.420666   -2.821434
    138          1           0       13.256550    3.034654    0.008542
    139          1           0       14.146370    2.299264   -1.378294
    140          1           0       14.121556    1.556542    0.288434
 ---------------------------------------------------------------------

 SCF Done:  E(RCAM-B3LYP) =  -3007.15686245     A.U. after   17 cycles

 Excitation energies and oscillator strengths:

 Excited State   1:      Singlet-A      1.7676 eV  701.42 nm  f=0.3794  <S**2>=0.000
     245 -> 248       -0.17351
     246 -> 247        0.68600
     245 <- 248       -0.10217
 This state for optimization and/or second-order correction.
 Total Energy, E(TD-HF/TD-DFT) =  -3007.09190354
 Copying the excited state density for this state as the 1-particle RhoCI density.

 Excited State   2:      Singlet-A      2.1865 eV  567.03 nm  f=0.1705  <S**2>=0.000
     245 -> 247        0.66211
     246 -> 248        0.22928

 Excited State   3:      Singlet-A      3.2195 eV  385.10 nm  f=0.0004  <S**2>=0.000
     242 -> 247        0.38586
     242 -> 249       -0.22579
     242 -> 251       -0.15839
     243 -> 247        0.45333
     243 -> 249       -0.16918

 Excited State   4:      Singlet-A      3.3052 eV  375.11 nm  f=0.0050  <S**2>=0.000
     241 -> 247        0.64258
     242 -> 247       -0.20720
     243 -> 247        0.11803

 Excited State   5:      Singlet-A      3.4289 eV  361.58 nm  f=0.0173  <S**2>=0.000
     241 -> 247       -0.22863
     242 -> 247       -0.42618
     243 -> 247        0.47525

 The electronic state is 1-A.
 Alpha  occ. eigenvalues --  -46.89053 -19.25001 -19.24426 -19.20257 -19.19940
 Alpha  occ. eigenvalues --  -19.19247 -19.17280 -14.42905 -14.42016 -14.39801
 Alpha  occ. eigenvalues --  -14.39418 -10.39649 -10.39330 -10.35721 -10.33537
 Alpha  occ. eigenvalues --  -10.32615 -10.31991 -10.31961 -10.31774 -10.30924
 Alpha  occ. eigenvalues --  -10.30767 -10.30181 -10.29779 -10.29700 -10.29242
 Alpha  occ. eigenvalues --  -10.28875 -10.28862 -10.28822 -10.28095 -10.28075
 Alpha  occ. eigenvalues --  -10.28054 -10.27817 -10.27776 -10.27764 -10.27525
 Alpha  occ. eigenvalues --  -10.27482 -10.27316 -10.27100 -10.27094 -10.26891
 Alpha  occ. eigenvalues --  -10.26819 -10.26722 -10.26647 -10.26536 -10.26396
 Alpha  occ. eigenvalues --  -10.26164 -10.26065 -10.25946 -10.25688 -10.25619
 Alpha  occ. eigenvalues --  -10.25493 -10.25431 -10.25234 -10.25225 -10.24743
 Alpha  occ. eigenvalues --  -10.24688 -10.24679 -10.24658 -10.24606 -10.24528
 Alpha  occ. eigenvalues --  -10.24521 -10.24480 -10.24369 -10.24346 -10.24333
 Alpha  occ. eigenvalues --  -10.24163  -3.17674  -1.92549  -1.92132  -1.91984
 Alpha  occ. eigenvalues --   -1.16359  -1.16114  -1.10840  -1.08416  -1.08130
 Alpha  occ. eigenvalues --   -1.06659  -1.04984  -1.04320  -1.03905  -1.02991
 Alpha  occ. eigenvalues --   -0.92565  -0.90640  -0.90034  -0.89973  -0.89682
 Alpha  occ. eigenvalues --   -0.89270  -0.88730  -0.87841  -0.87514  -0.87368
 Alpha  occ. eigenvalues --   -0.86120  -0.85452  -0.84399  -0.83925  -0.83432
 Alpha  occ. eigenvalues --   -0.82554  -0.82367  -0.81355  -0.80741  -0.80358
 Alpha  occ. eigenvalues --   -0.79743  -0.78223  -0.77983  -0.77913  -0.76461
 Alpha  occ. eigenvalues --   -0.76138  -0.75877  -0.75223  -0.74356  -0.74301
 Alpha  occ. eigenvalues --   -0.73675  -0.73038  -0.72125  -0.71087  -0.69532
 Alpha  occ. eigenvalues --   -0.69418  -0.68349  -0.68058  -0.66833  -0.66276
 Alpha  occ. eigenvalues --   -0.65875  -0.65469  -0.64945  -0.64487  -0.64414
 Alpha  occ. eigenvalues --   -0.63597  -0.63303  -0.62830  -0.62678  -0.60777
 Alpha  occ. eigenvalues --   -0.60038  -0.59677  -0.59324  -0.58683  -0.58092
 Alpha  occ. eigenvalues --   -0.57772  -0.57174  -0.56805  -0.56054  -0.55591
 Alpha  occ. eigenvalues --   -0.55226  -0.55078  -0.54721  -0.54379  -0.54127
 Alpha  occ. eigenvalues --   -0.53968  -0.53266  -0.53113  -0.52912  -0.52823
 Alpha  occ. eigenvalues --   -0.52642  -0.52280  -0.52075  -0.51882  -0.51525
 Alpha  occ. eigenvalues --   -0.51466  -0.51270  -0.51084  -0.50813  -0.50696
 Alpha  occ. eigenvalues --   -0.50565  -0.50317  -0.50173  -0.50096  -0.50005
 Alpha  occ. eigenvalues --   -0.49697  -0.49392  -0.49237  -0.48815  -0.48623
 Alpha  occ. eigenvalues --   -0.48547  -0.48360  -0.48254  -0.48089  -0.47815
 Alpha  occ. eigenvalues --   -0.47683  -0.47351  -0.47080  -0.46778  -0.46678
 Alpha  occ. eigenvalues --   -0.46595  -0.46284  -0.46059  -0.45977  -0.45884
 Alpha  occ. eigenvalues --   -0.45553  -0.45488  -0.45469  -0.45349  -0.45034
 Alpha  occ. eigenvalues --   -0.44800  -0.44787  -0.44648  -0.44597  -0.44225
 Alpha  occ. eigenvalues --   -0.43998  -0.43627  -0.43422  -0.43306  -0.43141
 Alpha  occ. eigenvalues --   -0.43092  -0.42885  -0.42722  -0.42656  -0.42495
 Alpha  occ. eigenvalues --   -0.42363  -0.42252  -0.42061  -0.41954  -0.41469
 Alpha  occ. eigenvalues --   -0.41227  -0.41118  -0.40961  -0.40591  -0.40568
 Alpha  occ. eigenvalues --   -0.40234  -0.39987  -0.39099  -0.39070  -0.38932
 Alpha  occ. eigenvalues --   -0.38720  -0.38359  -0.38282  -0.37998  -0.37719
 Alpha  occ. eigenvalues --   -0.37168  -0.37081  -0.37025  -0.36958  -0.36589
 Alpha  occ. eigenvalues --   -0.35709  -0.35576  -0.35116  -0.34906  -0.34374
 Alpha  occ. eigenvalues --   -0.34095  -0.33212  -0.32975  -0.31701  -0.31475
 Alpha  occ. eigenvalues --   -0.30446  -0.29796  -0.29544  -0.29247  -0.24168
 Alpha  occ. eigenvalues --   -0.22083
 Alpha virt. eigenvalues --   -0.09385  -0.01763   0.00069   0.01468   0.02307
 Alpha virt. eigenvalues --    0.04945   0.05506   0.05830   0.06393   0.06833
 Alpha virt. eigenvalues --    0.07392   0.07550   0.08256   0.08582   0.08693

 Mulliken charges:
               1
     1  Mg   0.840416
     2  C    0.019213
     3  C   -0.101420
     4  C   -0.083780
     5  C   -0.069265
     6  N   -0.256583
     7  C   -0.096164
     8  C    0.068293
     9  C   -0.060294
    10  C    0.004954
    11  C    0.069969
    12  C    0.051696
    13  C    0.013094
    14  C    0.170950
    15  O   -0.211758
    16  O   -0.348889
    17  N   -0.360552
    18  C    0.181323
    19  C   -0.143775
    20  C   -0.035156
    21  C    0.219311
    22  C    0.134331
    23  C    0.021782
    24  O   -0.192733
    25  C    0.029511
    26  N   -0.302288
    27  C   -0.029897
    28  C   -0.017670
    29  C   -0.004542
    30  C    0.010098
    31  C    0.051066
    32  C    0.036598
    33  C    0.021560
    34  N   -0.355914
    35  C    0.134359
    36  C   -0.170492
    37  C    0.095754
    38  C    0.115937
    39  C    0.126492
    40  C   -0.037737
    41  O   -0.216538
    42  C   -0.057570
    43  C    0.189983
    44  O   -0.152687
    45  O   -0.369862
    46  C    0.168865
    47  C    0.282570
    48  C   -0.163262
    49  C   -0.157518
    50  C    0.064524
    51  C    0.087253
    52  C    0.008867
    53  C    0.039523
    54  C   -0.104924
    55  C    0.059220
    56  C   -0.006795
    57  C   -0.019336
    58  C    0.060669
    59  C   -0.098889
    60  C    0.043790
    61  C    0.067350
    62  C    0.011680
    63  C    0.026327
    64  C   -0.170166
    65  C    0.028340
    66  C    0.059067
    67  H   -0.036122
    68  H   -0.053874
    69  H   -0.034777
    70  H    0.020881
    71  H    0.029715
    72  H    0.021404
    73  H    0.010318
    74  H    0.017256
    75  H    0.032606
    76  H    0.020271
    77  H    0.022418
    78  H    0.038395
    79  H    0.037590
    80  H    0.005116
    81  H    0.038279
    82  H    0.044722
    83  H    0.036086
    84  H    0.011751
    85  H    0.014110
    86  H    0.000885
    87  H    0.006164
    88  H    0.018479
    89  H    0.010692
    90  H    0.006734
    91  H   -0.004733
    92  H    0.011921
    93  H    0.013577
    94  H    0.038887
    95  H    0.031756
    96  H    0.021642
    97  H    0.029910
    98  H    0.032537
    99  H    0.034151
   100  H    0.047448
   101  H    0.043622
   102  H    0.049558
   103  H    0.028309
   104  H    0.008717
   105  H    0.016222
   106  H    0.018788
   107  H    0.022303
   108  H   -0.005133
   109  H   -0.000531
   110  H    0.011078
   111  H    0.005590
   112  H   -0.013076
   113  H   -0.000565
   114  H   -0.006309
   115  H    0.001730
   116  H    0.000204
   117  H    0.016500
   118  H    0.001431
   119  H   -0.008568
   120  H   -0.008793
   121  H    0.005869
   122  H    0.007797
   123  H   -0.016886
   124  H    0.000593
   125  H    0.010206
   126  H    0.006061
   127  H   -0.000001
   128  H   -0.000796
   129  H   -0.006407
   130  H   -0.010178
   131  H    0.006017
   132  H   -0.015398
   133  H   -0.017355
   134  H   -0.009836
   135  H    0.033362
   136  H    0.000412
   137  H    0.006122
   138  H    0.008728
   139  H    0.013121
   140  H    0.003016
 Sum of Mulliken charges =  -0.00000

 Dipole moment (field-independent basis, Debye):
    X=              1.3581    Y=              7.4427    Z=              2.7785  Tot=              8.0597
 Quadrupole moment (field-independent basis, Debye-Ang):
   XX=           -407.1147   YY=           -418.2682   ZZ=           -413.2733
   XY=            -53.2052   XZ=            -30.3099   YZ=            -41.5902

 Normal termination of Gaussian 16 at Wed May  4 12:59:42 2022.
