 Gaussian 16, Revision A.03,
 Gaussian 16:  ES64L-G16RevA.03 25-Dec-2016

 ---------------------------------
 #p PBE1PBE/Def2SVP td=(nstates=5)
 ---------------------------------

 ------------------------------------------------------
 step_1751_chromophore_26 TDDFT with PBE1PBE functional
 ------------------------------------------------------
 Symbolic Z-matrix:
 Charge =  0 Multiplicity = 1

                         Standard orientation:
 ---------------------------------------------------------------------
 Center     Atomic      Atomic             Coordinates (Angstroms)
 Number     Number       Type             X           Y           Z
 ---------------------------------------------------------------------
      1         12           0       -4.094516    1.207408    0.547214
      2          6           0       -4.939176   -2.025097   -0.289674
      3          6           0       -2.159416   -0.155816    3.104853
      4          6           0       -2.915015    4.201796    1.314408
      5          6           0       -5.271478    2.358405   -2.511756
      6          7           0       -3.692129   -0.874494    1.313276
      7          6           0       -4.110728   -2.058727    0.809152
      8          6           0       -3.593948   -3.290869    1.573666
      9          6           0       -2.661229   -2.668800    2.647049
     10          6           0       -2.855760   -1.138258    2.368353
     11          6           0       -3.070716   -3.154506    4.042743
     12          6           0       -2.909995   -4.378025    0.719426
     13          6           0       -1.974902   -4.008256   -0.509600
     14          6           0       -0.542326   -4.600620   -0.578233
     15          8           0       -0.272802   -5.752909   -0.834697
     16          8           0        0.393432   -3.596356   -0.411590
     17          7           0       -2.811519    1.932334    2.030182
     18          6           0       -2.106143    1.242109    2.977716
     19          6           0       -1.352842    2.041606    3.804018
     20          6           0       -1.566396    3.369009    3.318290
     21          6           0       -2.476568    3.243024    2.179678
     22          6           0       -0.643776    1.605288    5.008201
     23          6           0       -0.926590    4.618092    3.893186
     24          8           0       -0.225164    4.511387    4.883723
     25          6           0       -1.158793    5.976849    3.297176
     26          7           0       -3.840693    2.970096   -0.635157
     27          6           0       -3.494347    4.156781    0.008976
     28          6           0       -3.868672    5.415526   -0.909567
     29          6           0       -4.362451    4.682766   -2.184008
     30          6           0       -4.489179    3.234018   -1.792708
     31          6           0       -4.845487    6.319673   -0.173630
     32          6           0       -3.378928    4.780898   -3.352521
     33          6           0       -4.074383    4.922622   -4.740071
     34          7           0       -4.949308    0.390631   -1.075985
     35          6           0       -5.487880    0.949641   -2.206652
     36          6           0       -6.260440    0.000503   -2.928022
     37          6           0       -6.112071   -1.227974   -2.177448
     38          6           0       -5.277665   -0.902822   -1.103181
     39          6           0       -7.064387    0.252237   -4.223346
     40          6           0       -6.436384   -2.558601   -2.148388
     41          8           0       -7.098995   -3.285418   -2.934868
     42          6           0       -5.752938   -3.181461   -0.863786
     43          6           0       -6.841957   -3.755929    0.101245
     44          8           0       -7.134828   -4.892992    0.201222
     45          8           0       -7.337395   -2.720964    0.888408
     46          6           0       -8.291914   -3.048206    1.984336
     47          6           0        1.813255   -3.956141   -0.523427
     48          6           0        2.373847   -2.852347   -1.424038
     49          6           0        3.634707   -2.422221   -1.682556
     50          6           0        4.794452   -2.961191   -0.771965
     51          6           0        3.854499   -1.201906   -2.525475
     52          6           0        4.343441    0.124862   -1.865683
     53          6           0        5.603726    0.784864   -2.508023
     54          6           0        6.623810    1.229456   -1.521401
     55          6           0        7.461072    2.418572   -2.143158
     56          6           0        7.464306    0.014409   -1.070142
     57          6           0        7.733643   -0.005483    0.478297
     58          6           0        8.334033   -1.371776    0.763214
     59          6           0        9.699607   -1.262554    1.450185
     60          6           0        9.661764   -2.265354    2.695220
     61          6           0       10.834654   -1.632883    0.478887
     62          6           0       12.150471   -0.823730    0.694933
     63          6           0       12.706433   -0.334277   -0.628393
     64          6           0       12.371333    1.159730   -0.820837
     65          6           0       11.827602    1.459470   -2.270555
     66          6           0       13.570275    2.109010   -0.472508
     67          1           0       -1.498839   -0.608045    3.847475
     68          1           0       -2.707664    5.256886    1.507404
     69          1           0       -5.688101    2.885839   -3.372635
     70          1           0       -4.455676   -3.751957    2.056859
     71          1           0       -1.589339   -2.731961    2.457898
     72          1           0       -2.374857   -3.843891    4.520560
     73          1           0       -4.005869   -3.716011    4.033575
     74          1           0       -3.250260   -2.306422    4.703547
     75          1           0       -3.667959   -4.983700    0.222230
     76          1           0       -2.319266   -5.004740    1.387798
     77          1           0       -1.822499   -2.929795   -0.532601
     78          1           0       -2.514324   -4.087771   -1.453468
     79          1           0        0.192942    2.270224    5.220992
     80          1           0       -0.144218    0.645774    4.879107
     81          1           0       -1.305969    1.529470    5.870742
     82          1           0       -2.185133    6.343652    3.277701
     83          1           0       -0.751567    6.139345    2.299788
     84          1           0       -0.654845    6.791698    3.816289
     85          1           0       -2.949848    5.993059   -1.020764
     86          1           0       -5.341982    5.118891   -2.376643
     87          1           0       -5.696136    6.678001   -0.753891
     88          1           0       -4.415834    7.221161    0.261227
     89          1           0       -5.447469    5.873627    0.617869
     90          1           0       -2.749831    3.891287   -3.324780
     91          1           0       -2.563522    5.489035   -3.205552
     92          1           0       -3.438534    5.565783   -5.348855
     93          1           0       -4.991439    5.505089   -4.648066
     94          1           0       -4.172835    3.927448   -5.173735
     95          1           0       -6.381434   -0.096837   -4.997222
     96          1           0       -7.450508    1.256682   -4.399169
     97          1           0       -7.914596   -0.427633   -4.272235
     98          1           0       -5.189584   -4.052866   -1.197829
     99          1           0       -9.261217   -2.747087    1.584822
    100          1           0       -8.067946   -2.545042    2.924122
    101          1           0       -8.432401   -4.123505    2.092455
    102          1           0        1.883583   -4.930732   -1.006050
    103          1           0        2.365895   -3.949803    0.415716
    104          1           0        1.533088   -2.250388   -1.769285
    105          1           0        5.183066   -2.094044   -0.237521
    106          1           0        5.575750   -3.202211   -1.493167
    107          1           0        4.602068   -3.757769   -0.052173
    108          1           0        2.962589   -0.966555   -3.106213
    109          1           0        4.522872   -1.545140   -3.315456
    110          1           0        4.533846   -0.015292   -0.802129
    111          1           0        3.532116    0.833157   -2.028993
    112          1           0        5.194312    1.624111   -3.068856
    113          1           0        6.070403    0.097138   -3.214382
    114          1           0        6.078736    1.536549   -0.628445
    115          1           0        8.524137    2.239582   -1.978535
    116          1           0        7.159601    3.274292   -1.539594
    117          1           0        7.253868    2.758681   -3.158109
    118          1           0        8.472624    0.058974   -1.483524
    119          1           0        6.949844   -0.914117   -1.315014
    120          1           0        6.749528    0.044413    0.944077
    121          1           0        8.322027    0.870427    0.753533
    122          1           0        8.240832   -2.088034   -0.052503
    123          1           0        7.538330   -1.639760    1.459285
    124          1           0        9.870791   -0.251864    1.820774
    125          1           0        8.637398   -2.377106    3.051137
    126          1           0       10.448095   -1.908369    3.359516
    127          1           0        9.942183   -3.296355    2.480331
    128          1           0       10.560828   -1.602808   -0.576078
    129          1           0       11.206386   -2.647444    0.616193
    130          1           0       12.977258   -1.478173    0.972444
    131          1           0       12.045957   -0.065843    1.471755
    132          1           0       12.358746   -0.893549   -1.497387
    133          1           0       13.778576   -0.519384   -0.691606
    134          1           0       11.520347    1.374945   -0.173451
    135          1           0       11.145644    2.308053   -2.320399
    136          1           0       11.278870    0.552425   -2.523246
    137          1           0       12.767353    1.420666   -2.821434
    138          1           0       13.256550    3.034654    0.008542
    139          1           0       14.146370    2.299264   -1.378294
    140          1           0       14.121556    1.556542    0.288434
 ---------------------------------------------------------------------

 SCF Done:  E(RPBE1PBE) =  -3005.34631595     A.U. after   15 cycles

 Excitation energies and oscillator strengths:

 Excited State   1:      Singlet-A      1.8997 eV  652.64 nm  f=0.3627  <S**2>=0.000
     245 -> 248       -0.17185
     246 -> 247        0.69110
     246 <- 247       -0.10335
 This state for optimization and/or second-order correction.
 Total Energy, E(TD-HF/TD-DFT) =  -3005.27650203
 Copying the excited state density for this state as the 1-particle RhoCI density.

 Excited State   2:      Singlet-A      2.1885 eV  566.53 nm  f=0.1562  <S**2>=0.000
     245 -> 247        0.66922
     246 -> 248        0.20728

 Excited State   3:      Singlet-A      2.6531 eV  467.32 nm  f=0.0019  <S**2>=0.000
     243 -> 247        0.67843
     243 -> 249       -0.16302

 Excited State   4:      Singlet-A      2.9790 eV  416.20 nm  f=0.0018  <S**2>=0.000
     240 -> 247       -0.25693
     241 -> 247        0.53215
     242 -> 247       -0.35721

 Excited State   5:      Singlet-A      3.0217 eV  410.31 nm  f=0.0000  <S**2>=0.000
     240 -> 247        0.58000
     242 -> 247       -0.35874

 The electronic state is 1-A.
 Alpha  occ. eigenvalues --  -46.92455 -19.25732 -19.25182 -19.20554 -19.20225
 Alpha  occ. eigenvalues --  -19.19242 -19.17856 -14.42320 -14.41558 -14.39306
 Alpha  occ. eigenvalues --  -14.39226 -10.36700 -10.36442 -10.32642 -10.30900
 Alpha  occ. eigenvalues --  -10.30153 -10.29388 -10.29280 -10.29235 -10.28639
 Alpha  occ. eigenvalues --  -10.28228 -10.28081 -10.27772 -10.27084 -10.26989
 Alpha  occ. eigenvalues --  -10.26740 -10.26669 -10.26574 -10.26134 -10.25843
 Alpha  occ. eigenvalues --  -10.25634 -10.25621 -10.25454 -10.25343 -10.25046
 Alpha  occ. eigenvalues --  -10.24934 -10.24769 -10.24754 -10.24694 -10.24686
 Alpha  occ. eigenvalues --  -10.24345 -10.24242 -10.24114 -10.23776 -10.23733
 Alpha  occ. eigenvalues --  -10.23698 -10.23662 -10.23653 -10.23230 -10.23098
 Alpha  occ. eigenvalues --  -10.23042 -10.22903 -10.22837 -10.22768 -10.22552
 Alpha  occ. eigenvalues --  -10.22281 -10.22235 -10.22210 -10.22153 -10.22083
 Alpha  occ. eigenvalues --  -10.21899 -10.21891 -10.21882 -10.21875 -10.21760
 Alpha  occ. eigenvalues --  -10.21745  -3.14653  -1.87467  -1.87029  -1.86886
 Alpha  occ. eigenvalues --   -1.11210  -1.10934  -1.05364  -1.03351  -1.03019
 Alpha  occ. eigenvalues --   -1.01627  -0.99623  -0.98958  -0.98514  -0.97639
 Alpha  occ. eigenvalues --   -0.87074  -0.84713  -0.84257  -0.84191  -0.83780
 Alpha  occ. eigenvalues --   -0.83528  -0.82850  -0.82129  -0.81637  -0.81559
 Alpha  occ. eigenvalues --   -0.80514  -0.79703  -0.78593  -0.78124  -0.77728
 Alpha  occ. eigenvalues --   -0.76737  -0.76485  -0.75588  -0.74990  -0.74661
 Alpha  occ. eigenvalues --   -0.73941  -0.72523  -0.72274  -0.72061  -0.70811
 Alpha  occ. eigenvalues --   -0.70280  -0.70188  -0.69285  -0.68516  -0.68431
 Alpha  occ. eigenvalues --   -0.68134  -0.67357  -0.66491  -0.65368  -0.63994
 Alpha  occ. eigenvalues --   -0.63866  -0.62653  -0.62360  -0.61097  -0.60713
 Alpha  occ. eigenvalues --   -0.60296  -0.59988  -0.59121  -0.59000  -0.58585
 Alpha  occ. eigenvalues --   -0.58088  -0.57459  -0.57429  -0.56855  -0.55218
 Alpha  occ. eigenvalues --   -0.54567  -0.54197  -0.53829  -0.53335  -0.52729
 Alpha  occ. eigenvalues --   -0.52172  -0.51636  -0.51314  -0.50482  -0.50116
 Alpha  occ. eigenvalues --   -0.49748  -0.49643  -0.49189  -0.48878  -0.48782
 Alpha  occ. eigenvalues --   -0.48432  -0.47742  -0.47598  -0.47489  -0.47363
 Alpha  occ. eigenvalues --   -0.46932  -0.46899  -0.46522  -0.46457  -0.46075
 Alpha  occ. eigenvalues --   -0.46027  -0.45851  -0.45599  -0.45334  -0.45204
 Alpha  occ. eigenvalues --   -0.45047  -0.44890  -0.44681  -0.44645  -0.44561
 Alpha  occ. eigenvalues --   -0.44315  -0.43969  -0.43858  -0.43395  -0.43287
 Alpha  occ. eigenvalues --   -0.43238  -0.42980  -0.42895  -0.42672  -0.42461
 Alpha  occ. eigenvalues --   -0.42234  -0.41943  -0.41773  -0.41462  -0.41362
 Alpha  occ. eigenvalues --   -0.41255  -0.40948  -0.40794  -0.40727  -0.40553
 Alpha  occ. eigenvalues --   -0.40312  -0.40213  -0.40152  -0.39930  -0.39866
 Alpha  occ. eigenvalues --   -0.39615  -0.39467  -0.39452  -0.39303  -0.39001
 Alpha  occ. eigenvalues --   -0.38703  -0.38396  -0.38107  -0.38078  -0.38019
 Alpha  occ. eigenvalues --   -0.37877  -0.37586  -0.37481  -0.37405  -0.37227
 Alpha  occ. eigenvalues --   -0.37178  -0.37050  -0.36962  -0.36809  -0.36177
 Alpha  occ. eigenvalues --   -0.36062  -0.35920  -0.35858  -0.35500  -0.35352
 Alpha  occ. eigenvalues --   -0.34962  -0.34855  -0.34078  -0.33865  -0.33784
 Alpha  occ. eigenvalues --   -0.33538  -0.33287  -0.33175  -0.32764  -0.32755
 Alpha  occ. eigenvalues --   -0.32096  -0.32039  -0.31882  -0.31776  -0.31565
 Alpha  occ. eigenvalues --   -0.30604  -0.30469  -0.30253  -0.30082  -0.29242
 Alpha  occ. eigenvalues --   -0.28938  -0.28787  -0.27915  -0.27234  -0.26128
 Alpha  occ. eigenvalues --   -0.25804  -0.25563  -0.24764  -0.24529  -0.21115
 Alpha  occ. eigenvalues --   -0.19603
 Alpha virt. eigenvalues --   -0.11803  -0.05331  -0.04110  -0.02084  -0.01267
 Alpha virt. eigenvalues --    0.00367   0.01293   0.01423   0.01628   0.03005
 Alpha virt. eigenvalues --    0.03876   0.04121   0.04499   0.04822   0.05354

 Mulliken charges:
               1
     1  Mg   0.987469
     2  C    0.004821
     3  C   -0.084563
     4  C   -0.088403
     5  C   -0.053498
     6  N   -0.361120
     7  C   -0.020206
     8  C   -0.000331
     9  C   -0.140787
    10  C    0.047958
    11  C    0.015813
    12  C   -0.000803
    13  C   -0.061317
    14  C    0.238852
    15  O   -0.245461
    16  O   -0.379585
    17  N   -0.479396
    18  C    0.194139
    19  C   -0.166663
    20  C   -0.080031
    21  C    0.236399
    22  C    0.075584
    23  C    0.071666
    24  O   -0.230155
    25  C   -0.041599
    26  N   -0.399500
    27  C    0.013561
    28  C   -0.095133
    29  C   -0.091055
    30  C    0.044039
    31  C   -0.001466
    32  C   -0.012244
    33  C   -0.054471
    34  N   -0.488605
    35  C    0.154119
    36  C   -0.174724
    37  C    0.043635
    38  C    0.168118
    39  C    0.074476
    40  C    0.048372
    41  O   -0.259153
    42  C   -0.159225
    43  C    0.281354
    44  O   -0.191001
    45  O   -0.398994
    46  C    0.114498
    47  C    0.243060
    48  C   -0.169733
    49  C   -0.205608
    50  C   -0.002802
    51  C    0.028745
    52  C   -0.057836
    53  C   -0.014366
    54  C   -0.192964
    55  C   -0.004691
    56  C   -0.068794
    57  C   -0.078130
    58  C    0.005554
    59  C   -0.191362
    60  C   -0.015122
    61  C    0.024570
    62  C   -0.055073
    63  C   -0.027458
    64  C   -0.259148
    65  C   -0.037265
    66  C   -0.002573
    67  H   -0.005468
    68  H   -0.017788
    69  H   -0.000335
    70  H    0.059978
    71  H    0.065636
    72  H    0.048296
    73  H    0.036033
    74  H    0.044533
    75  H    0.064773
    76  H    0.053789
    77  H    0.057270
    78  H    0.069530
    79  H    0.064189
    80  H    0.031364
    81  H    0.065028
    82  H    0.069089
    83  H    0.061767
    84  H    0.039583
    85  H    0.049540
    86  H    0.037154
    87  H    0.032719
    88  H    0.045079
    89  H    0.037912
    90  H    0.040122
    91  H    0.027634
    92  H    0.041121
    93  H    0.041281
    94  H    0.064942
    95  H    0.061562
    96  H    0.048298
    97  H    0.058372
    98  H    0.070686
    99  H    0.056820
   100  H    0.068979
   101  H    0.064163
   102  H    0.075820
   103  H    0.054342
   104  H    0.038775
   105  H    0.047876
   106  H    0.046700
   107  H    0.048229
   108  H    0.026274
   109  H    0.032494
   110  H    0.043862
   111  H    0.039530
   112  H    0.020562
   113  H    0.031442
   114  H    0.031863
   115  H    0.033418
   116  H    0.028681
   117  H    0.042284
   118  H    0.039321
   119  H    0.029801
   120  H    0.024155
   121  H    0.037597
   122  H    0.037437
   123  H    0.016408
   124  H    0.036832
   125  H    0.037251
   126  H    0.034439
   127  H    0.027104
   128  H    0.029711
   129  H    0.026131
   130  H    0.023692
   131  H    0.036385
   132  H    0.015747
   133  H    0.015080
   134  H    0.030592
   135  H    0.060701
   136  H    0.029390
   137  H    0.034585
   138  H    0.036717
   139  H    0.039430
   140  H    0.031311
 Sum of Mulliken charges =  -0.00000

 Dipole moment (field-independent basis, Debye):
    X=              1.0034    Y=              7.2867    Z=              2.2855  Tot=              7.7024
 Quadrupole moment (field-independent basis, Debye-Ang):
   XX=           -400.9276   YY=           -415.0881   ZZ=           -410.2180
   XY=            -53.1767   XZ=            -27.8348   YZ=            -43.3656

 Normal termination of Gaussian 16 at Wed May  4 13:24:05 2022.
