 Gaussian 16, Revision A.03,
 Gaussian 16:  ES64L-G16RevA.03 25-Dec-2016

 --------------------------------
 #p wB97XD/Def2SVP td=(nstates=5)
 --------------------------------

 -----------------------------------------------------
 step_1751_chromophore_26 TDDFT with wB97XD functional
 -----------------------------------------------------
 Symbolic Z-matrix:
 Charge =  0 Multiplicity = 1

                         Standard orientation:
 ---------------------------------------------------------------------
 Center     Atomic      Atomic             Coordinates (Angstroms)
 Number     Number       Type             X           Y           Z
 ---------------------------------------------------------------------
      1         12           0       -4.094516    1.207408    0.547214
      2          6           0       -4.939176   -2.025097   -0.289674
      3          6           0       -2.159416   -0.155816    3.104853
      4          6           0       -2.915015    4.201796    1.314408
      5          6           0       -5.271478    2.358405   -2.511756
      6          7           0       -3.692129   -0.874494    1.313276
      7          6           0       -4.110728   -2.058727    0.809152
      8          6           0       -3.593948   -3.290869    1.573666
      9          6           0       -2.661229   -2.668800    2.647049
     10          6           0       -2.855760   -1.138258    2.368353
     11          6           0       -3.070716   -3.154506    4.042743
     12          6           0       -2.909995   -4.378025    0.719426
     13          6           0       -1.974902   -4.008256   -0.509600
     14          6           0       -0.542326   -4.600620   -0.578233
     15          8           0       -0.272802   -5.752909   -0.834697
     16          8           0        0.393432   -3.596356   -0.411590
     17          7           0       -2.811519    1.932334    2.030182
     18          6           0       -2.106143    1.242109    2.977716
     19          6           0       -1.352842    2.041606    3.804018
     20          6           0       -1.566396    3.369009    3.318290
     21          6           0       -2.476568    3.243024    2.179678
     22          6           0       -0.643776    1.605288    5.008201
     23          6           0       -0.926590    4.618092    3.893186
     24          8           0       -0.225164    4.511387    4.883723
     25          6           0       -1.158793    5.976849    3.297176
     26          7           0       -3.840693    2.970096   -0.635157
     27          6           0       -3.494347    4.156781    0.008976
     28          6           0       -3.868672    5.415526   -0.909567
     29          6           0       -4.362451    4.682766   -2.184008
     30          6           0       -4.489179    3.234018   -1.792708
     31          6           0       -4.845487    6.319673   -0.173630
     32          6           0       -3.378928    4.780898   -3.352521
     33          6           0       -4.074383    4.922622   -4.740071
     34          7           0       -4.949308    0.390631   -1.075985
     35          6           0       -5.487880    0.949641   -2.206652
     36          6           0       -6.260440    0.000503   -2.928022
     37          6           0       -6.112071   -1.227974   -2.177448
     38          6           0       -5.277665   -0.902822   -1.103181
     39          6           0       -7.064387    0.252237   -4.223346
     40          6           0       -6.436384   -2.558601   -2.148388
     41          8           0       -7.098995   -3.285418   -2.934868
     42          6           0       -5.752938   -3.181461   -0.863786
     43          6           0       -6.841957   -3.755929    0.101245
     44          8           0       -7.134828   -4.892992    0.201222
     45          8           0       -7.337395   -2.720964    0.888408
     46          6           0       -8.291914   -3.048206    1.984336
     47          6           0        1.813255   -3.956141   -0.523427
     48          6           0        2.373847   -2.852347   -1.424038
     49          6           0        3.634707   -2.422221   -1.682556
     50          6           0        4.794452   -2.961191   -0.771965
     51          6           0        3.854499   -1.201906   -2.525475
     52          6           0        4.343441    0.124862   -1.865683
     53          6           0        5.603726    0.784864   -2.508023
     54          6           0        6.623810    1.229456   -1.521401
     55          6           0        7.461072    2.418572   -2.143158
     56          6           0        7.464306    0.014409   -1.070142
     57          6           0        7.733643   -0.005483    0.478297
     58          6           0        8.334033   -1.371776    0.763214
     59          6           0        9.699607   -1.262554    1.450185
     60          6           0        9.661764   -2.265354    2.695220
     61          6           0       10.834654   -1.632883    0.478887
     62          6           0       12.150471   -0.823730    0.694933
     63          6           0       12.706433   -0.334277   -0.628393
     64          6           0       12.371333    1.159730   -0.820837
     65          6           0       11.827602    1.459470   -2.270555
     66          6           0       13.570275    2.109010   -0.472508
     67          1           0       -1.498839   -0.608045    3.847475
     68          1           0       -2.707664    5.256886    1.507404
     69          1           0       -5.688101    2.885839   -3.372635
     70          1           0       -4.455676   -3.751957    2.056859
     71          1           0       -1.589339   -2.731961    2.457898
     72          1           0       -2.374857   -3.843891    4.520560
     73          1           0       -4.005869   -3.716011    4.033575
     74          1           0       -3.250260   -2.306422    4.703547
     75          1           0       -3.667959   -4.983700    0.222230
     76          1           0       -2.319266   -5.004740    1.387798
     77          1           0       -1.822499   -2.929795   -0.532601
     78          1           0       -2.514324   -4.087771   -1.453468
     79          1           0        0.192942    2.270224    5.220992
     80          1           0       -0.144218    0.645774    4.879107
     81          1           0       -1.305969    1.529470    5.870742
     82          1           0       -2.185133    6.343652    3.277701
     83          1           0       -0.751567    6.139345    2.299788
     84          1           0       -0.654845    6.791698    3.816289
     85          1           0       -2.949848    5.993059   -1.020764
     86          1           0       -5.341982    5.118891   -2.376643
     87          1           0       -5.696136    6.678001   -0.753891
     88          1           0       -4.415834    7.221161    0.261227
     89          1           0       -5.447469    5.873627    0.617869
     90          1           0       -2.749831    3.891287   -3.324780
     91          1           0       -2.563522    5.489035   -3.205552
     92          1           0       -3.438534    5.565783   -5.348855
     93          1           0       -4.991439    5.505089   -4.648066
     94          1           0       -4.172835    3.927448   -5.173735
     95          1           0       -6.381434   -0.096837   -4.997222
     96          1           0       -7.450508    1.256682   -4.399169
     97          1           0       -7.914596   -0.427633   -4.272235
     98          1           0       -5.189584   -4.052866   -1.197829
     99          1           0       -9.261217   -2.747087    1.584822
    100          1           0       -8.067946   -2.545042    2.924122
    101          1           0       -8.432401   -4.123505    2.092455
    102          1           0        1.883583   -4.930732   -1.006050
    103          1           0        2.365895   -3.949803    0.415716
    104          1           0        1.533088   -2.250388   -1.769285
    105          1           0        5.183066   -2.094044   -0.237521
    106          1           0        5.575750   -3.202211   -1.493167
    107          1           0        4.602068   -3.757769   -0.052173
    108          1           0        2.962589   -0.966555   -3.106213
    109          1           0        4.522872   -1.545140   -3.315456
    110          1           0        4.533846   -0.015292   -0.802129
    111          1           0        3.532116    0.833157   -2.028993
    112          1           0        5.194312    1.624111   -3.068856
    113          1           0        6.070403    0.097138   -3.214382
    114          1           0        6.078736    1.536549   -0.628445
    115          1           0        8.524137    2.239582   -1.978535
    116          1           0        7.159601    3.274292   -1.539594
    117          1           0        7.253868    2.758681   -3.158109
    118          1           0        8.472624    0.058974   -1.483524
    119          1           0        6.949844   -0.914117   -1.315014
    120          1           0        6.749528    0.044413    0.944077
    121          1           0        8.322027    0.870427    0.753533
    122          1           0        8.240832   -2.088034   -0.052503
    123          1           0        7.538330   -1.639760    1.459285
    124          1           0        9.870791   -0.251864    1.820774
    125          1           0        8.637398   -2.377106    3.051137
    126          1           0       10.448095   -1.908369    3.359516
    127          1           0        9.942183   -3.296355    2.480331
    128          1           0       10.560828   -1.602808   -0.576078
    129          1           0       11.206386   -2.647444    0.616193
    130          1           0       12.977258   -1.478173    0.972444
    131          1           0       12.045957   -0.065843    1.471755
    132          1           0       12.358746   -0.893549   -1.497387
    133          1           0       13.778576   -0.519384   -0.691606
    134          1           0       11.520347    1.374945   -0.173451
    135          1           0       11.145644    2.308053   -2.320399
    136          1           0       11.278870    0.552425   -2.523246
    137          1           0       12.767353    1.420666   -2.821434
    138          1           0       13.256550    3.034654    0.008542
    139          1           0       14.146370    2.299264   -1.378294
    140          1           0       14.121556    1.556542    0.288434
 ---------------------------------------------------------------------

 SCF Done:  E(RwB97XD) =  -3007.85774243     A.U. after   18 cycles

 Excitation energies and oscillator strengths:

 Excited State   1:      Singlet-A      1.7256 eV  718.48 nm  f=0.3797  <S**2>=0.000
     245 -> 248       -0.17697
     246 -> 247        0.68420
     245 <- 248       -0.10978
 This state for optimization and/or second-order correction.
 Total Energy, E(TD-HF/TD-DFT) =  -3007.79432655
 Copying the excited state density for this state as the 1-particle RhoCI density.

 Excited State   2:      Singlet-A      2.1369 eV  580.21 nm  f=0.1650  <S**2>=0.000
     245 -> 247        0.65899
     246 -> 248        0.23294

 Excited State   3:      Singlet-A      3.2761 eV  378.45 nm  f=0.0004  <S**2>=0.000
     241 -> 247        0.26298
     242 -> 247        0.10880
     242 -> 249        0.13334
     242 -> 250       -0.10772
     243 -> 247        0.53332
     243 -> 249        0.24886
     243 -> 250       -0.15358

 Excited State   4:      Singlet-A      3.3242 eV  372.97 nm  f=0.0056  <S**2>=0.000
     241 -> 247        0.60284
     242 -> 247       -0.23404
     243 -> 247       -0.12958
     243 -> 249       -0.13074

 Excited State   5:      Singlet-A      3.4871 eV  355.55 nm  f=0.0132  <S**2>=0.000
     239 -> 247        0.11956
     241 -> 247        0.18031
     242 -> 247        0.58098
     242 -> 249        0.10948
     243 -> 247       -0.26888

 The electronic state is 1-A.
 Alpha  occ. eigenvalues --  -46.95409 -19.30250 -19.29642 -19.25161 -19.24879
 Alpha  occ. eigenvalues --  -19.24316 -19.22308 -14.47528 -14.46600 -14.44447
 Alpha  occ. eigenvalues --  -14.43983 -10.43464 -10.43165 -10.39735 -10.37504
 Alpha  occ. eigenvalues --  -10.36735 -10.35873 -10.35869 -10.35682 -10.35032
 Alpha  occ. eigenvalues --  -10.34741 -10.34131 -10.33879 -10.33652 -10.33305
 Alpha  occ. eigenvalues --  -10.32940 -10.32915 -10.32760 -10.32296 -10.32117
 Alpha  occ. eigenvalues --  -10.32113 -10.31879 -10.31796 -10.31795 -10.31657
 Alpha  occ. eigenvalues --  -10.31432 -10.31418 -10.31155 -10.31102 -10.30881
 Alpha  occ. eigenvalues --  -10.30697 -10.30611 -10.30559 -10.30441 -10.30248
 Alpha  occ. eigenvalues --  -10.29985 -10.29953 -10.29893 -10.29618 -10.29599
 Alpha  occ. eigenvalues --  -10.29427 -10.29372 -10.29211 -10.29160 -10.28661
 Alpha  occ. eigenvalues --  -10.28622 -10.28592 -10.28522 -10.28517 -10.28485
 Alpha  occ. eigenvalues --  -10.28338 -10.28331 -10.28261 -10.28245 -10.28191
 Alpha  occ. eigenvalues --  -10.28108  -3.21467  -1.95032  -1.94595  -1.94444
 Alpha  occ. eigenvalues --   -1.18497  -1.18289  -1.13100  -1.10608  -1.10335
 Alpha  occ. eigenvalues --   -1.08822  -1.07030  -1.06391  -1.05909  -1.05009
 Alpha  occ. eigenvalues --   -0.94525  -0.92400  -0.91970  -0.91841  -0.91458
 Alpha  occ. eigenvalues --   -0.91176  -0.90525  -0.89759  -0.89391  -0.89281
 Alpha  occ. eigenvalues --   -0.88053  -0.87321  -0.86256  -0.85758  -0.85331
 Alpha  occ. eigenvalues --   -0.84423  -0.84313  -0.83249  -0.82608  -0.82280
 Alpha  occ. eigenvalues --   -0.81596  -0.80169  -0.79870  -0.79851  -0.78387
 Alpha  occ. eigenvalues --   -0.77964  -0.77830  -0.77007  -0.76191  -0.76129
 Alpha  occ. eigenvalues --   -0.75621  -0.74975  -0.74088  -0.73026  -0.71418
 Alpha  occ. eigenvalues --   -0.71400  -0.70289  -0.70020  -0.68718  -0.68201
 Alpha  occ. eigenvalues --   -0.67839  -0.67478  -0.66788  -0.66422  -0.66291
 Alpha  occ. eigenvalues --   -0.65553  -0.65117  -0.64809  -0.64504  -0.62817
 Alpha  occ. eigenvalues --   -0.61987  -0.61657  -0.61302  -0.60654  -0.60059
 Alpha  occ. eigenvalues --   -0.59725  -0.59105  -0.58704  -0.57965  -0.57509
 Alpha  occ. eigenvalues --   -0.57165  -0.57002  -0.56589  -0.56283  -0.56069
 Alpha  occ. eigenvalues --   -0.55858  -0.55148  -0.54989  -0.54837  -0.54790
 Alpha  occ. eigenvalues --   -0.54613  -0.54177  -0.53929  -0.53770  -0.53419
 Alpha  occ. eigenvalues --   -0.53388  -0.53204  -0.52990  -0.52795  -0.52575
 Alpha  occ. eigenvalues --   -0.52556  -0.52233  -0.52135  -0.51970  -0.51906
 Alpha  occ. eigenvalues --   -0.51597  -0.51300  -0.51139  -0.50695  -0.50512
 Alpha  occ. eigenvalues --   -0.50440  -0.50234  -0.50188  -0.49970  -0.49737
 Alpha  occ. eigenvalues --   -0.49638  -0.49316  -0.49007  -0.48713  -0.48582
 Alpha  occ. eigenvalues --   -0.48493  -0.48186  -0.47973  -0.47887  -0.47759
 Alpha  occ. eigenvalues --   -0.47454  -0.47391  -0.47369  -0.47187  -0.46943
 Alpha  occ. eigenvalues --   -0.46718  -0.46658  -0.46535  -0.46506  -0.46137
 Alpha  occ. eigenvalues --   -0.45902  -0.45574  -0.45319  -0.45208  -0.45074
 Alpha  occ. eigenvalues --   -0.44986  -0.44898  -0.44621  -0.44558  -0.44428
 Alpha  occ. eigenvalues --   -0.44256  -0.44154  -0.44001  -0.43873  -0.43336
 Alpha  occ. eigenvalues --   -0.43112  -0.42976  -0.42950  -0.42490  -0.42439
 Alpha  occ. eigenvalues --   -0.42085  -0.41872  -0.40987  -0.40926  -0.40836
 Alpha  occ. eigenvalues --   -0.40568  -0.40219  -0.40189  -0.39890  -0.39834
 Alpha  occ. eigenvalues --   -0.39066  -0.39014  -0.38941  -0.38837  -0.38576
 Alpha  occ. eigenvalues --   -0.37554  -0.37417  -0.37111  -0.36911  -0.36208
 Alpha  occ. eigenvalues --   -0.36011  -0.35412  -0.34814  -0.33866  -0.33516
 Alpha  occ. eigenvalues --   -0.32696  -0.31826  -0.31567  -0.31267  -0.26095
 Alpha  occ. eigenvalues --   -0.23911
 Alpha virt. eigenvalues --   -0.07728   0.00166   0.02153   0.04397   0.04667
 Alpha virt. eigenvalues --    0.07258   0.07989   0.08093   0.08565   0.09526
 Alpha virt. eigenvalues --    0.10297   0.10671   0.11373   0.11468   0.12017

 Mulliken charges:
               1
     1  Mg   0.977890
     2  C    0.010952
     3  C   -0.105146
     4  C   -0.101619
     5  C   -0.072084
     6  N   -0.324811
     7  C   -0.058653
     8  C    0.025590
     9  C   -0.117169
    10  C    0.034722
    11  C    0.024785
    12  C    0.010460
    13  C   -0.042692
    14  C    0.228970
    15  O   -0.243546
    16  O   -0.378881
    17  N   -0.446858
    18  C    0.192891
    19  C   -0.157205
    20  C   -0.077194
    21  C    0.241595
    22  C    0.086660
    23  C    0.068434
    24  O   -0.224075
    25  C   -0.032382
    26  N   -0.370805
    27  C    0.002804
    28  C   -0.069585
    29  C   -0.059031
    30  C    0.033763
    31  C    0.004949
    32  C   -0.004615
    33  C   -0.037393
    34  N   -0.449121
    35  C    0.143485
    36  C   -0.178525
    37  C    0.047107
    38  C    0.146321
    39  C    0.084726
    40  C    0.032571
    41  O   -0.252243
    42  C   -0.122655
    43  C    0.259399
    44  O   -0.187290
    45  O   -0.398993
    46  C    0.130649
    47  C    0.255735
    48  C   -0.177686
    49  C   -0.189804
    50  C    0.018024
    51  C    0.044129
    52  C   -0.039763
    53  C    0.002414
    54  C   -0.161612
    55  C    0.010918
    56  C   -0.037323
    57  C   -0.060721
    58  C    0.022077
    59  C   -0.159535
    60  C   -0.000712
    61  C    0.034504
    62  C   -0.036970
    63  C   -0.012838
    64  C   -0.230122
    65  C   -0.017894
    66  C    0.010349
    67  H   -0.012155
    68  H   -0.030999
    69  H   -0.009198
    70  H    0.047997
    71  H    0.056904
    72  H    0.044194
    73  H    0.031354
    74  H    0.037932
    75  H    0.056780
    76  H    0.045957
    77  H    0.046671
    78  H    0.064701
    79  H    0.061710
    80  H    0.027370
    81  H    0.062848
    82  H    0.065238
    83  H    0.057909
    84  H    0.038984
    85  H    0.040831
    86  H    0.024976
    87  H    0.028157
    88  H    0.040372
    89  H    0.031688
    90  H    0.031567
    91  H    0.019411
    92  H    0.035595
    93  H    0.034511
    94  H    0.059701
    95  H    0.054774
    96  H    0.042684
    97  H    0.053294
    98  H    0.061794
    99  H    0.052304
   100  H    0.064958
   101  H    0.060173
   102  H    0.072130
   103  H    0.048516
   104  H    0.033564
   105  H    0.032937
   106  H    0.040091
   107  H    0.044835
   108  H    0.020790
   109  H    0.023225
   110  H    0.029997
   111  H    0.033129
   112  H    0.012728
   113  H    0.020877
   114  H    0.017406
   115  H    0.022985
   116  H    0.022481
   117  H    0.037599
   118  H    0.023571
   119  H    0.005734
   120  H    0.013492
   121  H    0.028625
   122  H    0.029174
   123  H    0.005930
   124  H    0.023198
   125  H    0.030706
   126  H    0.028578
   127  H    0.020585
   128  H    0.017451
   129  H    0.018026
   130  H    0.016369
   131  H    0.026918
   132  H    0.006472
   133  H    0.007617
   134  H    0.014453
   135  H    0.055675
   136  H    0.019234
   137  H    0.026153
   138  H    0.031819
   139  H    0.033108
   140  H    0.023511
 Sum of Mulliken charges =  -0.00000

 Dipole moment (field-independent basis, Debye):
    X=              1.4427    Y=              7.6417    Z=              2.9863  Tot=              8.3304
 Quadrupole moment (field-independent basis, Debye-Ang):
   XX=           -403.6282   YY=           -414.3515   ZZ=           -409.2011
   XY=            -53.8517   XZ=            -30.4535   YZ=            -42.3578

 Normal termination of Gaussian 16 at Wed May  4 13:51:27 2022.
