 Gaussian 16, Revision A.03,
 Gaussian 16:  ES64L-G16RevA.03 25-Dec-2016

 --------------------
 #p ZINDO=(nstates=5)
 --------------------

 ------------------------------
 step_1751_chromophore_26 ZINDO
 ------------------------------
 Symbolic Z-matrix:
 Charge =  0 Multiplicity = 1

                         Standard orientation:
 ---------------------------------------------------------------------
 Center     Atomic      Atomic             Coordinates (Angstroms)
 Number     Number       Type             X           Y           Z
 ---------------------------------------------------------------------
      1         12           0       -4.094516    1.207408    0.547214
      2          6           0       -4.939176   -2.025097   -0.289674
      3          6           0       -2.159416   -0.155816    3.104853
      4          6           0       -2.915015    4.201796    1.314408
      5          6           0       -5.271478    2.358405   -2.511756
      6          7           0       -3.692129   -0.874494    1.313276
      7          6           0       -4.110728   -2.058727    0.809152
      8          6           0       -3.593948   -3.290869    1.573666
      9          6           0       -2.661229   -2.668800    2.647049
     10          6           0       -2.855760   -1.138258    2.368353
     11          6           0       -3.070716   -3.154506    4.042743
     12          6           0       -2.909995   -4.378025    0.719426
     13          6           0       -1.974902   -4.008256   -0.509600
     14          6           0       -0.542326   -4.600620   -0.578233
     15          8           0       -0.272802   -5.752909   -0.834697
     16          8           0        0.393432   -3.596356   -0.411590
     17          7           0       -2.811519    1.932334    2.030182
     18          6           0       -2.106143    1.242109    2.977716
     19          6           0       -1.352842    2.041606    3.804018
     20          6           0       -1.566396    3.369009    3.318290
     21          6           0       -2.476568    3.243024    2.179678
     22          6           0       -0.643776    1.605288    5.008201
     23          6           0       -0.926590    4.618092    3.893186
     24          8           0       -0.225164    4.511387    4.883723
     25          6           0       -1.158793    5.976849    3.297176
     26          7           0       -3.840693    2.970096   -0.635157
     27          6           0       -3.494347    4.156781    0.008976
     28          6           0       -3.868672    5.415526   -0.909567
     29          6           0       -4.362451    4.682766   -2.184008
     30          6           0       -4.489179    3.234018   -1.792708
     31          6           0       -4.845487    6.319673   -0.173630
     32          6           0       -3.378928    4.780898   -3.352521
     33          6           0       -4.074383    4.922622   -4.740071
     34          7           0       -4.949308    0.390631   -1.075985
     35          6           0       -5.487880    0.949641   -2.206652
     36          6           0       -6.260440    0.000503   -2.928022
     37          6           0       -6.112071   -1.227974   -2.177448
     38          6           0       -5.277665   -0.902822   -1.103181
     39          6           0       -7.064387    0.252237   -4.223346
     40          6           0       -6.436384   -2.558601   -2.148388
     41          8           0       -7.098995   -3.285418   -2.934868
     42          6           0       -5.752938   -3.181461   -0.863786
     43          6           0       -6.841957   -3.755929    0.101245
     44          8           0       -7.134828   -4.892992    0.201222
     45          8           0       -7.337395   -2.720964    0.888408
     46          6           0       -8.291914   -3.048206    1.984336
     47          6           0        1.813255   -3.956141   -0.523427
     48          6           0        2.373847   -2.852347   -1.424038
     49          6           0        3.634707   -2.422221   -1.682556
     50          6           0        4.794452   -2.961191   -0.771965
     51          6           0        3.854499   -1.201906   -2.525475
     52          6           0        4.343441    0.124862   -1.865683
     53          6           0        5.603726    0.784864   -2.508023
     54          6           0        6.623810    1.229456   -1.521401
     55          6           0        7.461072    2.418572   -2.143158
     56          6           0        7.464306    0.014409   -1.070142
     57          6           0        7.733643   -0.005483    0.478297
     58          6           0        8.334033   -1.371776    0.763214
     59          6           0        9.699607   -1.262554    1.450185
     60          6           0        9.661764   -2.265354    2.695220
     61          6           0       10.834654   -1.632883    0.478887
     62          6           0       12.150471   -0.823730    0.694933
     63          6           0       12.706433   -0.334277   -0.628393
     64          6           0       12.371333    1.159730   -0.820837
     65          6           0       11.827602    1.459470   -2.270555
     66          6           0       13.570275    2.109010   -0.472508
     67          1           0       -1.498839   -0.608045    3.847475
     68          1           0       -2.707664    5.256886    1.507404
     69          1           0       -5.688101    2.885839   -3.372635
     70          1           0       -4.455676   -3.751957    2.056859
     71          1           0       -1.589339   -2.731961    2.457898
     72          1           0       -2.374857   -3.843891    4.520560
     73          1           0       -4.005869   -3.716011    4.033575
     74          1           0       -3.250260   -2.306422    4.703547
     75          1           0       -3.667959   -4.983700    0.222230
     76          1           0       -2.319266   -5.004740    1.387798
     77          1           0       -1.822499   -2.929795   -0.532601
     78          1           0       -2.514324   -4.087771   -1.453468
     79          1           0        0.192942    2.270224    5.220992
     80          1           0       -0.144218    0.645774    4.879107
     81          1           0       -1.305969    1.529470    5.870742
     82          1           0       -2.185133    6.343652    3.277701
     83          1           0       -0.751567    6.139345    2.299788
     84          1           0       -0.654845    6.791698    3.816289
     85          1           0       -2.949848    5.993059   -1.020764
     86          1           0       -5.341982    5.118891   -2.376643
     87          1           0       -5.696136    6.678001   -0.753891
     88          1           0       -4.415834    7.221161    0.261227
     89          1           0       -5.447469    5.873627    0.617869
     90          1           0       -2.749831    3.891287   -3.324780
     91          1           0       -2.563522    5.489035   -3.205552
     92          1           0       -3.438534    5.565783   -5.348855
     93          1           0       -4.991439    5.505089   -4.648066
     94          1           0       -4.172835    3.927448   -5.173735
     95          1           0       -6.381434   -0.096837   -4.997222
     96          1           0       -7.450508    1.256682   -4.399169
     97          1           0       -7.914596   -0.427633   -4.272235
     98          1           0       -5.189584   -4.052866   -1.197829
     99          1           0       -9.261217   -2.747087    1.584822
    100          1           0       -8.067946   -2.545042    2.924122
    101          1           0       -8.432401   -4.123505    2.092455
    102          1           0        1.883583   -4.930732   -1.006050
    103          1           0        2.365895   -3.949803    0.415716
    104          1           0        1.533088   -2.250388   -1.769285
    105          1           0        5.183066   -2.094044   -0.237521
    106          1           0        5.575750   -3.202211   -1.493167
    107          1           0        4.602068   -3.757769   -0.052173
    108          1           0        2.962589   -0.966555   -3.106213
    109          1           0        4.522872   -1.545140   -3.315456
    110          1           0        4.533846   -0.015292   -0.802129
    111          1           0        3.532116    0.833157   -2.028993
    112          1           0        5.194312    1.624111   -3.068856
    113          1           0        6.070403    0.097138   -3.214382
    114          1           0        6.078736    1.536549   -0.628445
    115          1           0        8.524137    2.239582   -1.978535
    116          1           0        7.159601    3.274292   -1.539594
    117          1           0        7.253868    2.758681   -3.158109
    118          1           0        8.472624    0.058974   -1.483524
    119          1           0        6.949844   -0.914117   -1.315014
    120          1           0        6.749528    0.044413    0.944077
    121          1           0        8.322027    0.870427    0.753533
    122          1           0        8.240832   -2.088034   -0.052503
    123          1           0        7.538330   -1.639760    1.459285
    124          1           0        9.870791   -0.251864    1.820774
    125          1           0        8.637398   -2.377106    3.051137
    126          1           0       10.448095   -1.908369    3.359516
    127          1           0        9.942183   -3.296355    2.480331
    128          1           0       10.560828   -1.602808   -0.576078
    129          1           0       11.206386   -2.647444    0.616193
    130          1           0       12.977258   -1.478173    0.972444
    131          1           0       12.045957   -0.065843    1.471755
    132          1           0       12.358746   -0.893549   -1.497387
    133          1           0       13.778576   -0.519384   -0.691606
    134          1           0       11.520347    1.374945   -0.173451
    135          1           0       11.145644    2.308053   -2.320399
    136          1           0       11.278870    0.552425   -2.523246
    137          1           0       12.767353    1.420666   -2.821434
    138          1           0       13.256550    3.034654    0.008542
    139          1           0       14.146370    2.299264   -1.378294
    140          1           0       14.121556    1.556542    0.288434
 ---------------------------------------------------------------------

 SCF Done:  E(RZINDO/S) =  -474.379554434     A.U. after   19 cycles

 Excitation energies and oscillator strengths:

 Excited State   1:      Singlet-A      1.3035 eV  951.16 nm  f=0.5697  <S**2>=0.000
     175 ->178         0.15993
     176 ->177         0.67036
 This state for optimization and/or second-order correction.
 Total Energy, E(CIS/TDA) =  -474.331651737
 Copying the excited state density for this state as the 1-particle RhoCI density.

 Excited State   2:      Singlet-A      1.8964 eV  653.78 nm  f=0.1216  <S**2>=0.000
     175 ->177         0.58702
     176 ->178        -0.34850

 Excited State   3:      Singlet-A      2.9053 eV  426.75 nm  f=0.0029  <S**2>=0.000
     168 ->177         0.34123
     168 ->178        -0.21875
     168 ->179        -0.37152
     168 ->181         0.28370
     168 ->184        -0.11967
     168 ->185         0.21526
     168 ->193         0.10318

 Excited State   4:      Singlet-A      2.9228 eV  424.20 nm  f=0.0007  <S**2>=0.000
     171 ->177         0.33604
     171 ->179         0.33925
     171 ->181         0.34556
     171 ->185        -0.15857
     171 ->188        -0.18042
     171 ->204        -0.13816
     172 ->177         0.10192

 Excited State   5:      Singlet-A      3.0436 eV  407.37 nm  f=0.9365  <S**2>=0.000
     170 ->177         0.12832
     175 ->177         0.33128
     176 ->178         0.57214
     176 ->180         0.10174

 The electronic state is 1-A.
 Alpha  occ. eigenvalues --   -1.85424  -1.84073  -1.80807  -1.73226  -1.71579
 Alpha  occ. eigenvalues --   -1.70236  -1.67031  -1.62000  -1.60781  -1.56619
 Alpha  occ. eigenvalues --   -1.54999  -1.50854  -1.48376  -1.47655  -1.46816
 Alpha  occ. eigenvalues --   -1.45176  -1.44423  -1.41470  -1.40434  -1.39842
 Alpha  occ. eigenvalues --   -1.36708  -1.32772  -1.31964  -1.30984  -1.29892
 Alpha  occ. eigenvalues --   -1.28317  -1.27366  -1.23480  -1.20621  -1.18402
 Alpha  occ. eigenvalues --   -1.16451  -1.15698  -1.15251  -1.13637  -1.13597
 Alpha  occ. eigenvalues --   -1.11312  -1.10740  -1.10545  -1.05809  -1.05369
 Alpha  occ. eigenvalues --   -1.03720  -1.02001  -1.00829  -0.98429  -0.98039
 Alpha  occ. eigenvalues --   -0.97185  -0.94759  -0.94668  -0.93640  -0.92976
 Alpha  occ. eigenvalues --   -0.91526  -0.89879  -0.89335  -0.89087  -0.87545
 Alpha  occ. eigenvalues --   -0.86341  -0.85303  -0.83688  -0.83014  -0.81293
 Alpha  occ. eigenvalues --   -0.80160  -0.78678  -0.77921  -0.77432  -0.77345
 Alpha  occ. eigenvalues --   -0.76955  -0.75982  -0.74344  -0.74252  -0.73490
 Alpha  occ. eigenvalues --   -0.72860  -0.72667  -0.72174  -0.70910  -0.70614
 Alpha  occ. eigenvalues --   -0.70130  -0.69777  -0.69336  -0.68398  -0.67938
 Alpha  occ. eigenvalues --   -0.67387  -0.66825  -0.66308  -0.65456  -0.65053
 Alpha  occ. eigenvalues --   -0.64891  -0.64673  -0.64513  -0.63921  -0.63528
 Alpha  occ. eigenvalues --   -0.63243  -0.63159  -0.62691  -0.62320  -0.62117
 Alpha  occ. eigenvalues --   -0.61729  -0.61557  -0.60898  -0.60248  -0.59775
 Alpha  occ. eigenvalues --   -0.59377  -0.59159  -0.58854  -0.58258  -0.57935
 Alpha  occ. eigenvalues --   -0.57266  -0.57199  -0.57085  -0.56964  -0.56902
 Alpha  occ. eigenvalues --   -0.56503  -0.55984  -0.55327  -0.55203  -0.54867
 Alpha  occ. eigenvalues --   -0.54699  -0.54401  -0.54054  -0.53500  -0.53195
 Alpha  occ. eigenvalues --   -0.52973  -0.52873  -0.52588  -0.52398  -0.51853
 Alpha  occ. eigenvalues --   -0.51561  -0.51495  -0.50903  -0.50818  -0.50383
 Alpha  occ. eigenvalues --   -0.50223  -0.50077  -0.49893  -0.49548  -0.49505
 Alpha  occ. eigenvalues --   -0.48890  -0.48562  -0.48479  -0.48404  -0.48384
 Alpha  occ. eigenvalues --   -0.48307  -0.47693  -0.47548  -0.47182  -0.46733
 Alpha  occ. eigenvalues --   -0.46580  -0.46485  -0.46259  -0.46021  -0.45645
 Alpha  occ. eigenvalues --   -0.45199  -0.45026  -0.44714  -0.44662  -0.43662
 Alpha  occ. eigenvalues --   -0.43550  -0.42991  -0.42953  -0.42534  -0.41998
 Alpha  occ. eigenvalues --   -0.41938  -0.41616  -0.40071  -0.39979  -0.38997
 Alpha  occ. eigenvalues --   -0.38387  -0.37882  -0.36452  -0.34985  -0.34474
 Alpha  occ. eigenvalues --   -0.33732  -0.33141  -0.31951  -0.31763  -0.27102
 Alpha  occ. eigenvalues --   -0.22890
 Alpha virt. eigenvalues --   -0.09397  -0.02602  -0.01001   0.00828   0.01209
 Alpha virt. eigenvalues --    0.01961   0.02776   0.03568   0.04090   0.04126
 Alpha virt. eigenvalues --    0.06100   0.06211   0.07223   0.07324   0.07945

 Mulliken charges:
               1
     1  Mg   0.439589
     2  C   -0.035985
     3  C   -0.081622
     4  C   -0.086438
     5  C   -0.080326
     6  N   -0.279751
     7  C    0.103026
     8  C    0.014462
     9  C    0.007441
    10  C    0.150472
    11  C   -0.047984
    12  C   -0.019190
    13  C   -0.004363
    14  C    0.469208
    15  O   -0.501965
    16  O   -0.274669
    17  N   -0.343942
    18  C    0.146381
    19  C    0.067011
    20  C   -0.052880
    21  C    0.163135
    22  C   -0.032452
    23  C    0.335617
    24  O   -0.511847
    25  C   -0.031128
    26  N   -0.283277
    27  C    0.150299
    28  C    0.012288
    29  C    0.015091
    30  C    0.110512
    31  C   -0.052108
    32  C   -0.029869
    33  C   -0.057344
    34  N   -0.310754
    35  C    0.071373
    36  C    0.002249
    37  C   -0.058683
    38  C    0.114658
    39  C   -0.042126
    40  C    0.323451
    41  O   -0.559893
    42  C    0.040737
    43  C    0.483764
    44  O   -0.485179
    45  O   -0.289168
    46  C    0.068538
    47  C    0.102838
    48  C   -0.086905
    49  C   -0.019863
    50  C   -0.050695
    51  C   -0.015689
    52  C   -0.036326
    53  C   -0.029645
    54  C   -0.011517
    55  C   -0.064631
    56  C   -0.044322
    57  C   -0.043710
    58  C   -0.041370
    59  C   -0.007406
    60  C   -0.068493
    61  C   -0.035835
    62  C   -0.039013
    63  C   -0.028894
    64  C   -0.023075
    65  C   -0.073809
    66  C   -0.059934
    67  H    0.022722
    68  H    0.016766
    69  H    0.028127
    70  H    0.041722
    71  H    0.043697
    72  H    0.023457
    73  H    0.022730
    74  H    0.020026
    75  H    0.029814
    76  H    0.026395
    77  H    0.020711
    78  H    0.049319
    79  H    0.041158
    80  H    0.019769
    81  H    0.043562
    82  H    0.036639
    83  H    0.034894
    84  H    0.027013
    85  H    0.034164
    86  H    0.029982
    87  H    0.016288
    88  H    0.019277
    89  H    0.020635
    90  H    0.019062
    91  H    0.017987
    92  H    0.014753
    93  H    0.023919
    94  H    0.034444
    95  H    0.033238
    96  H    0.028095
    97  H    0.030750
    98  H    0.057029
    99  H    0.034962
   100  H    0.043405
   101  H    0.049993
   102  H    0.062416
   103  H    0.048626
   104  H    0.026954
   105  H    0.025814
   106  H    0.021868
   107  H    0.034819
   108  H    0.017144
   109  H    0.019855
   110  H    0.025660
   111  H    0.018369
   112  H    0.009939
   113  H    0.019042
   114  H    0.021533
   115  H    0.021659
   116  H    0.009215
   117  H    0.029429
   118  H    0.020737
   119  H    0.024671
   120  H    0.013350
   121  H    0.027298
   122  H    0.031270
   123  H    0.008916
   124  H    0.030944
   125  H    0.026445
   126  H    0.019689
   127  H    0.016286
   128  H    0.022756
   129  H    0.015977
   130  H    0.009990
   131  H    0.028285
   132  H    0.017785
   133  H    0.010782
   134  H    0.013694
   135  H    0.032286
   136  H    0.010801
   137  H    0.028702
   138  H    0.019057
   139  H    0.027541
   140  H    0.015823
 Sum of Mulliken charges =  -0.00000

 Dipole moment (field-independent basis, Debye):
    X=              3.7616    Y=             10.6396    Z=              4.9812  Tot=             12.3355
 N-N= 4.488101048809D+03 E-N= 0.000000000000D+00  KE=-9.649695317489D+03
 Leave Link  601 at Wed May  4 14:06:48 2022, MaxMem=  6710886400 cpu:               0.7 elap:               0.0
 (Enter /sw/apps/gaussian-16.0/g16/l9999.exe)
 1\1\GINC-BP1-COMPUTE192\SP\RZINDO CIS\STO-3G\C55H74Mg1N4O6\OF15641\04-
 May-2022\0\\#p ZINDO=(nstates=5)\\step_1751_chromophore_26 ZINDO\\0,1\
 Mg,0,-9.533,18.22,42.871\C,0,-6.141,17.655,42.676\C,0,-8.861,21.486,41
 .858\C,0,-12.77,18.88,42.691\C,0,-10.146,14.802,42.965\N,0,-7.669,19.3
 98,42.401\C,0,-6.386,18.97,42.351\C,0,-5.372,20.054,41.943\C,0,-6.275,
 21.28,41.642\C,0,-7.69,20.712,42.007\C,0,-5.806,22.49,42.459\C,0,-4.42
 3,19.689,40.783\C,0,-4.918,18.841,39.535\C,0,-4.684,19.391,38.103\O,0,

 Normal termination of Gaussian 16 at Wed May  4 14:06:48 2022.
