 Gaussian 16, Revision A.03,
 Gaussian 16:  ES64L-G16RevA.03 25-Dec-2016

 ------------------------------
 #p blyp/Def2SVP td=(nstates=5)
 ------------------------------

 ---------------------------------------------------
 step_1051_chromophore_12 TDDFT with blyp functional
 ---------------------------------------------------
 Symbolic Z-matrix:
 Charge =  0 Multiplicity = 1

                         Standard orientation:
 ---------------------------------------------------------------------
 Center     Atomic      Atomic             Coordinates (Angstroms)
 Number     Number       Type             X           Y           Z
 ---------------------------------------------------------------------
      1         12           0       -4.133140    0.453610   -0.579427
      2          6           0       -3.330721   -2.898527    0.577808
      3          6           0       -0.818708    1.088083   -0.145306
      4          6           0       -4.865632    3.714122   -1.060197
      5          6           0       -7.522796   -0.290549   -0.157100
      6          7           0       -2.303960   -0.804563    0.176257
      7          6           0       -2.155656   -2.159469    0.379285
      8          6           0       -0.699695   -2.648267    0.335447
      9          6           0        0.071798   -1.271353    0.392550
     10          6           0       -1.046633   -0.225633    0.112393
     11          6           0        0.789167   -0.991572    1.705477
     12          6           0       -0.403477   -3.552798   -0.865639
     13          6           0        0.840693   -4.464612   -0.711945
     14          6           0        2.107293   -4.223394   -1.656972
     15          8           0        1.986248   -3.998489   -2.828958
     16          8           0        3.226413   -4.359147   -1.001192
     17          7           0       -3.011891    2.091855   -0.860653
     18          6           0       -1.698420    2.166214   -0.539303
     19          6           0       -1.194836    3.569400   -0.681329
     20          6           0       -2.342760    4.411781   -0.913595
     21          6           0       -3.494958    3.455001   -0.974013
     22          6           0        0.265988    3.962825   -0.555769
     23          6           0       -2.426402    5.935358   -0.924026
     24          8           0       -3.554121    6.405362   -1.083161
     25          6           0       -1.125361    6.767462   -0.875671
     26          7           0       -5.930249    1.509331   -0.639014
     27          6           0       -5.970967    2.883199   -0.927807
     28          6           0       -7.406142    3.290393   -1.124896
     29          6           0       -8.286580    2.093572   -0.616362
     30          6           0       -7.181735    1.001733   -0.456593
     31          6           0       -7.702417    4.667232   -0.465004
     32          6           0       -9.563770    1.780841   -1.473123
     33          6           0       -9.356681    0.663059   -2.602334
     34          7           0       -5.258566   -1.213012   -0.091408
     35          6           0       -6.600389   -1.337112    0.144796
     36          6           0       -6.906171   -2.657393    0.672922
     37          6           0       -5.654906   -3.347500    0.739752
     38          6           0       -4.669964   -2.400769    0.419152
     39          6           0       -8.316295   -3.116447    0.971861
     40          6           0       -4.981242   -4.630197    1.080852
     41          8           0       -5.378672   -5.683920    1.458521
     42          6           0       -3.390293   -4.419845    0.922326
     43          6           0       -2.666535   -4.678742    2.260419
     44          8           0       -2.645394   -3.933553    3.214705
     45          8           0       -1.899589   -5.818104    2.138901
     46          6           0       -0.721871   -5.971622    3.057383
     47          6           0        4.447154   -4.377434   -1.912701
     48          6           0        5.769686   -4.291101   -1.184321
     49          6           0        6.950516   -3.681393   -1.550890
     50          6           0        7.229376   -2.879416   -2.861844
     51          6           0        8.061862   -3.616577   -0.492817
     52          6           0        8.423971   -2.233552   -0.006953
     53          6           0        9.817497   -1.777319   -0.325856
     54          6           0       10.024850   -0.632461   -1.354813
     55          6           0       11.195149   -0.888761   -2.301406
     56          6           0       10.081484    0.863229   -0.792388
     57          6           0        8.714244    1.690873   -0.706492
     58          6           0        8.195258    2.031595    0.714131
     59          6           0        7.724824    3.474896    0.883545
     60          6           0        8.910778    4.407183    0.779155
     61          6           0        6.974073    3.658530    2.241551
     62          6           0        5.435861    3.251897    2.258084
     63          6           0        4.550966    4.233422    3.041696
     64          6           0        3.369647    4.745252    2.255759
     65          6           0        3.849761    5.877745    1.315694
     66          6           0        2.380327    5.382679    3.217935
     67          1           0        0.252965    1.281493   -0.231066
     68          1           0       -5.215810    4.719735   -1.302600
     69          1           0       -8.594212   -0.396621    0.023100
     70          1           0       -0.570959   -3.176309    1.280692
     71          1           0        0.812196   -1.325212   -0.406453
     72          1           0        0.355847   -1.492665    2.570624
     73          1           0        0.556589    0.021891    2.033554
     74          1           0        1.875450   -1.057182    1.653735
     75          1           0       -0.152095   -2.986963   -1.762284
     76          1           0       -1.256437   -4.168614   -1.149784
     77          1           0        0.483869   -5.484083   -0.858754
     78          1           0        1.190865   -4.358605    0.315208
     79          1           0        0.604027    4.964930   -0.820716
     80          1           0        0.893666    3.219683   -1.046707
     81          1           0        0.438088    3.886384    0.517831
     82          1           0       -1.275336    7.847407   -0.866098
     83          1           0       -0.452902    6.671588   -1.727713
     84          1           0       -0.634442    6.693170    0.094301
     85          1           0       -7.552131    3.499222   -2.184510
     86          1           0       -8.614375    2.290360    0.404919
     87          1           0       -7.819352    5.444704   -1.219025
     88          1           0       -7.025276    5.041677    0.302770
     89          1           0       -8.685690    4.488098   -0.029738
     90          1           0       -9.816361    2.808924   -1.729306
     91          1           0      -10.238206    1.471404   -0.675426
     92          1           0       -9.665810    1.096061   -3.553128
     93          1           0       -9.972226   -0.230242   -2.499875
     94          1           0       -8.305126    0.403925   -2.724640
     95          1           0       -8.624463   -4.091786    0.595734
     96          1           0       -9.114169   -2.443792    0.655474
     97          1           0       -8.423826   -3.252728    2.047568
     98          1           0       -3.010544   -4.981418    0.069432
     99          1           0        0.140883   -5.486825    2.601288
    100          1           0       -0.632699   -7.051393    3.181137
    101          1           0       -0.946217   -5.591734    4.054243
    102          1           0        4.410718   -3.547521   -2.618837
    103          1           0        4.390172   -5.269746   -2.535543
    104          1           0        5.730976   -4.859872   -0.254948
    105          1           0        7.012718   -1.841726   -2.606628
    106          1           0        6.636365   -3.189586   -3.722420
    107          1           0        8.252428   -3.047057   -3.197835
    108          1           0        8.905603   -4.133528   -0.949052
    109          1           0        7.760761   -4.215341    0.366617
    110          1           0        8.298172   -2.230943    1.075438
    111          1           0        7.754439   -1.460380   -0.384288
    112          1           0       10.401278   -2.653122   -0.609229
    113          1           0       10.133727   -1.418316    0.652997
    114          1           0        9.135665   -0.710380   -1.979424
    115          1           0       10.930466   -0.711454   -3.343840
    116          1           0       11.513946   -1.922160   -2.168991
    117          1           0       12.008904   -0.181062   -2.144864
    118          1           0       10.711435    1.496160   -1.417277
    119          1           0       10.572837    0.884068    0.180913
    120          1           0        7.956416    1.017153   -1.107783
    121          1           0        8.786658    2.528657   -1.400349
    122          1           0        8.976651    1.872462    1.456694
    123          1           0        7.353125    1.376803    0.936765
    124          1           0        7.077944    3.762779    0.054386
    125          1           0        9.165688    4.828504    1.751495
    126          1           0        8.689616    5.179496    0.043191
    127          1           0        9.753846    3.826671    0.401884
    128          1           0        7.096334    4.668439    2.631511
    129          1           0        7.396775    2.920790    2.923933
    130          1           0        5.290757    2.274476    2.717987
    131          1           0        5.038757    3.163965    1.247411
    132          1           0        5.152803    5.046546    3.447240
    133          1           0        4.280496    3.553259    3.849546
    134          1           0        2.835516    3.920034    1.785665
    135          1           0        4.316076    5.563330    0.382054
    136          1           0        4.747652    6.302951    1.764832
    137          1           0        3.125383    6.652119    1.062280
    138          1           0        2.072614    4.566729    3.871264
    139          1           0        1.603048    5.703749    2.525010
    140          1           0        2.887458    6.160229    3.789694
 ---------------------------------------------------------------------

 SCF Done:  E(RB-LYP) =  -3007.38719608     A.U. after   19 cycles

 Excitation energies and oscillator strengths:

 Excited State   1:      Singlet-A      1.7680 eV  701.25 nm  f=0.2982  <S**2>=0.000
     245 -> 248        0.16907
     246 -> 247        0.69095
     246 <- 247       -0.15600
 This state for optimization and/or second-order correction.
 Total Energy, E(TD-HF/TD-DFT) =  -3007.32222201
 Copying the excited state density for this state as the 1-particle RhoCI density.

 Excited State   2:      Singlet-A      2.0235 eV  612.73 nm  f=0.0420  <S**2>=0.000
     244 -> 247        0.44131
     245 -> 247        0.50229
     246 -> 248       -0.18847
     246 -> 249        0.10400

 Excited State   3:      Singlet-A      2.0556 eV  603.16 nm  f=0.0285  <S**2>=0.000
     244 -> 247        0.55064
     245 -> 247       -0.39066
     246 -> 248        0.16652

 Excited State   4:      Singlet-A      2.2060 eV  562.03 nm  f=0.0006  <S**2>=0.000
     243 -> 247        0.70367

 Excited State   5:      Singlet-A      2.5153 eV  492.92 nm  f=0.0073  <S**2>=0.000
     242 -> 247        0.68149
     246 -> 249       -0.10879

 The electronic state is 1-A.
 Alpha  occ. eigenvalues --  -46.26254 -18.83620 -18.81324 -18.76676 -18.76535
 Alpha  occ. eigenvalues --  -18.76067 -18.75805 -14.02614 -14.02203 -14.01623
 Alpha  occ. eigenvalues --  -14.00629 -10.04123 -10.03845 -10.00853  -9.99812
 Alpha  occ. eigenvalues --   -9.98886  -9.98018  -9.96312  -9.96204  -9.95967
 Alpha  occ. eigenvalues --   -9.95792  -9.95738  -9.95452  -9.95140  -9.94772
 Alpha  occ. eigenvalues --   -9.94701  -9.94282  -9.94142  -9.94114  -9.93836
 Alpha  occ. eigenvalues --   -9.93651  -9.93481  -9.93475  -9.93459  -9.93331
 Alpha  occ. eigenvalues --   -9.93321  -9.93178  -9.93135  -9.93108  -9.93049
 Alpha  occ. eigenvalues --   -9.93022  -9.92817  -9.92644  -9.92574  -9.92349
 Alpha  occ. eigenvalues --   -9.92206  -9.92170  -9.92112  -9.92040  -9.91967
 Alpha  occ. eigenvalues --   -9.91914  -9.91894  -9.91846  -9.91692  -9.91642
 Alpha  occ. eigenvalues --   -9.91560  -9.91519  -9.91448  -9.91429  -9.91322
 Alpha  occ. eigenvalues --   -9.91287  -9.91193  -9.91181  -9.90890  -9.90815
 Alpha  occ. eigenvalues --   -9.90712  -2.91004  -1.71418  -1.70893  -1.70720
 Alpha  occ. eigenvalues --   -1.00093  -0.96757  -0.93022  -0.91431  -0.91002
 Alpha  occ. eigenvalues --   -0.89415  -0.85063  -0.84442  -0.83956  -0.83262
 Alpha  occ. eigenvalues --   -0.74282  -0.74116  -0.73594  -0.72648  -0.72471
 Alpha  occ. eigenvalues --   -0.71704  -0.71399  -0.71209  -0.70490  -0.69780
 Alpha  occ. eigenvalues --   -0.69199  -0.68569  -0.68147  -0.67161  -0.66625
 Alpha  occ. eigenvalues --   -0.66438  -0.65798  -0.65362  -0.64920  -0.64802
 Alpha  occ. eigenvalues --   -0.63910  -0.62328  -0.62122  -0.61593  -0.61007
 Alpha  occ. eigenvalues --   -0.60489  -0.60368  -0.59922  -0.59185  -0.59155
 Alpha  occ. eigenvalues --   -0.58495  -0.57274  -0.56154  -0.55525  -0.55123
 Alpha  occ. eigenvalues --   -0.53798  -0.53203  -0.52733  -0.52626  -0.51558
 Alpha  occ. eigenvalues --   -0.51000  -0.50276  -0.50129  -0.50060  -0.49944
 Alpha  occ. eigenvalues --   -0.49682  -0.49624  -0.48864  -0.47728  -0.47226
 Alpha  occ. eigenvalues --   -0.46194  -0.45742  -0.45125  -0.44142  -0.43864
 Alpha  occ. eigenvalues --   -0.43732  -0.43330  -0.43179  -0.42537  -0.42341
 Alpha  occ. eigenvalues --   -0.42157  -0.41909  -0.41618  -0.41362  -0.41085
 Alpha  occ. eigenvalues --   -0.40874  -0.40577  -0.40440  -0.40364  -0.40238
 Alpha  occ. eigenvalues --   -0.40026  -0.39696  -0.39625  -0.39483  -0.39398
 Alpha  occ. eigenvalues --   -0.39318  -0.39084  -0.38850  -0.38755  -0.38495
 Alpha  occ. eigenvalues --   -0.37992  -0.37768  -0.37670  -0.37521  -0.37242
 Alpha  occ. eigenvalues --   -0.37055  -0.36764  -0.36675  -0.36465  -0.36319
 Alpha  occ. eigenvalues --   -0.36295  -0.36059  -0.35973  -0.35814  -0.35445
 Alpha  occ. eigenvalues --   -0.35329  -0.35205  -0.34968  -0.34836  -0.34719
 Alpha  occ. eigenvalues --   -0.34185  -0.34179  -0.33938  -0.33910  -0.33837
 Alpha  occ. eigenvalues --   -0.33675  -0.33673  -0.33345  -0.33168  -0.33052
 Alpha  occ. eigenvalues --   -0.32928  -0.32761  -0.32702  -0.32585  -0.32378
 Alpha  occ. eigenvalues --   -0.32269  -0.32216  -0.31759  -0.31728  -0.31533
 Alpha  occ. eigenvalues --   -0.31315  -0.31249  -0.31071  -0.30991  -0.30806
 Alpha  occ. eigenvalues --   -0.30654  -0.30434  -0.30073  -0.29877  -0.29722
 Alpha  occ. eigenvalues --   -0.29559  -0.29244  -0.29099  -0.29083  -0.28873
 Alpha  occ. eigenvalues --   -0.28839  -0.28670  -0.28280  -0.28241  -0.27882
 Alpha  occ. eigenvalues --   -0.27874  -0.27699  -0.27666  -0.27316  -0.26580
 Alpha  occ. eigenvalues --   -0.26536  -0.26505  -0.26030  -0.25856  -0.25790
 Alpha  occ. eigenvalues --   -0.25521  -0.25256  -0.24698  -0.24283  -0.23296
 Alpha  occ. eigenvalues --   -0.23028  -0.22019  -0.21896  -0.21818  -0.21058
 Alpha  occ. eigenvalues --   -0.20590  -0.19764  -0.19137  -0.18541  -0.16873
 Alpha  occ. eigenvalues --   -0.15225
 Alpha virt. eigenvalues --   -0.11121  -0.06972  -0.05643  -0.04346  -0.03647
 Alpha virt. eigenvalues --   -0.02688  -0.01730  -0.01570  -0.01279   0.00452
 Alpha virt. eigenvalues --    0.00879   0.01517   0.01604   0.01976   0.02359

 Mulliken charges:
               1
     1  Mg   0.713039
     2  C   -0.073408
     3  C   -0.063436
     4  C   -0.032829
     5  C   -0.061121
     6  N   -0.209129
     7  C   -0.096335
     8  C    0.075958
     9  C    0.003114
    10  C    0.014854
    11  C    0.143388
    12  C    0.132467
    13  C    0.089727
    14  C    0.048570
    15  O   -0.184813
    16  O   -0.226841
    17  N   -0.344700
    18  C    0.169418
    19  C   -0.161921
    20  C    0.032747
    21  C    0.127537
    22  C    0.162738
    23  C   -0.035155
    24  O   -0.159865
    25  C    0.100319
    26  N   -0.257997
    27  C    0.012337
    28  C    0.003605
    29  C    0.019675
    30  C   -0.014624
    31  C    0.111320
    32  C    0.103968
    33  C    0.067906
    34  N   -0.292963
    35  C    0.149413
    36  C   -0.152981
    37  C    0.065007
    38  C    0.128781
    39  C    0.155121
    40  C   -0.048620
    41  O   -0.084980
    42  C    0.046885
    43  C    0.135992
    44  O   -0.165834
    45  O   -0.294267
    46  C    0.198689
    47  C    0.289235
    48  C   -0.101814
    49  C   -0.160383
    50  C    0.125151
    51  C    0.149900
    52  C    0.068199
    53  C    0.118395
    54  C   -0.059266
    55  C    0.105168
    56  C    0.087566
    57  C    0.066794
    58  C    0.090761
    59  C   -0.095569
    60  C    0.123335
    61  C    0.110078
    62  C    0.062421
    63  C    0.075470
    64  C   -0.078627
    65  C    0.100557
    66  C    0.118787
    67  H   -0.066393
    68  H   -0.045601
    69  H   -0.069933
    70  H   -0.025241
    71  H   -0.026599
    72  H   -0.008466
    73  H   -0.027684
    74  H   -0.001813
    75  H   -0.018565
    76  H   -0.023931
    77  H    0.010662
    78  H   -0.015886
    79  H   -0.010968
    80  H    0.007727
    81  H    0.010965
    82  H   -0.025506
    83  H    0.032818
    84  H    0.011181
    85  H   -0.013793
    86  H   -0.023921
    87  H   -0.010371
    88  H    0.010868
    89  H   -0.023774
    90  H   -0.015573
    91  H   -0.020303
    92  H   -0.012762
    93  H    0.000685
    94  H    0.019396
    95  H   -0.002051
    96  H   -0.020413
    97  H   -0.000157
    98  H    0.008154
    99  H    0.027083
   100  H    0.021039
   101  H    0.025158
   102  H    0.002002
   103  H    0.010236
   104  H   -0.027148
   105  H    0.029272
   106  H   -0.003332
   107  H    0.000616
   108  H   -0.021989
   109  H   -0.036562
   110  H   -0.031665
   111  H   -0.022046
   112  H   -0.037427
   113  H   -0.040649
   114  H   -0.050116
   115  H   -0.018842
   116  H   -0.022517
   117  H   -0.014697
   118  H   -0.034583
   119  H   -0.030438
   120  H   -0.035764
   121  H   -0.022263
   122  H   -0.030675
   123  H   -0.032759
   124  H   -0.042586
   125  H   -0.016729
   126  H   -0.018267
   127  H   -0.023661
   128  H   -0.026151
   129  H   -0.036620
   130  H   -0.032554
   131  H   -0.034573
   132  H   -0.027668
   133  H   -0.044769
   134  H   -0.032114
   135  H   -0.026745
   136  H   -0.029232
   137  H   -0.011958
   138  H   -0.022035
   139  H   -0.012201
   140  H   -0.013731
 Sum of Mulliken charges =  -0.00000

 Dipole moment (field-independent basis, Debye):
    X=              5.7418    Y=              1.5996    Z=             -1.2303  Tot=              6.0861
 Quadrupole moment (field-independent basis, Debye-Ang):
   XX=           -369.5359   YY=           -425.3406   ZZ=           -413.4802
   XY=            -21.3331   XZ=             10.3144   YZ=              2.8592

 Normal termination of Gaussian 16 at Tue May  3 23:12:57 2022.
