 Gaussian 16, Revision A.03,
 Gaussian 16:  ES64L-G16RevA.03 25-Dec-2016

 -----------------------------------
 #p cam-b3lyp/Def2SVP td=(nstates=5)
 -----------------------------------

 --------------------------------------------------------
 step_1051_chromophore_12 TDDFT with cam-b3lyp functional
 --------------------------------------------------------
 Symbolic Z-matrix:
 Charge =  0 Multiplicity = 1

                         Standard orientation:
 ---------------------------------------------------------------------
 Center     Atomic      Atomic             Coordinates (Angstroms)
 Number     Number       Type             X           Y           Z
 ---------------------------------------------------------------------
      1         12           0       -4.133140    0.453610   -0.579427
      2          6           0       -3.330721   -2.898527    0.577808
      3          6           0       -0.818708    1.088083   -0.145306
      4          6           0       -4.865632    3.714122   -1.060197
      5          6           0       -7.522796   -0.290549   -0.157100
      6          7           0       -2.303960   -0.804563    0.176257
      7          6           0       -2.155656   -2.159469    0.379285
      8          6           0       -0.699695   -2.648267    0.335447
      9          6           0        0.071798   -1.271353    0.392550
     10          6           0       -1.046633   -0.225633    0.112393
     11          6           0        0.789167   -0.991572    1.705477
     12          6           0       -0.403477   -3.552798   -0.865639
     13          6           0        0.840693   -4.464612   -0.711945
     14          6           0        2.107293   -4.223394   -1.656972
     15          8           0        1.986248   -3.998489   -2.828958
     16          8           0        3.226413   -4.359147   -1.001192
     17          7           0       -3.011891    2.091855   -0.860653
     18          6           0       -1.698420    2.166214   -0.539303
     19          6           0       -1.194836    3.569400   -0.681329
     20          6           0       -2.342760    4.411781   -0.913595
     21          6           0       -3.494958    3.455001   -0.974013
     22          6           0        0.265988    3.962825   -0.555769
     23          6           0       -2.426402    5.935358   -0.924026
     24          8           0       -3.554121    6.405362   -1.083161
     25          6           0       -1.125361    6.767462   -0.875671
     26          7           0       -5.930249    1.509331   -0.639014
     27          6           0       -5.970967    2.883199   -0.927807
     28          6           0       -7.406142    3.290393   -1.124896
     29          6           0       -8.286580    2.093572   -0.616362
     30          6           0       -7.181735    1.001733   -0.456593
     31          6           0       -7.702417    4.667232   -0.465004
     32          6           0       -9.563770    1.780841   -1.473123
     33          6           0       -9.356681    0.663059   -2.602334
     34          7           0       -5.258566   -1.213012   -0.091408
     35          6           0       -6.600389   -1.337112    0.144796
     36          6           0       -6.906171   -2.657393    0.672922
     37          6           0       -5.654906   -3.347500    0.739752
     38          6           0       -4.669964   -2.400769    0.419152
     39          6           0       -8.316295   -3.116447    0.971861
     40          6           0       -4.981242   -4.630197    1.080852
     41          8           0       -5.378672   -5.683920    1.458521
     42          6           0       -3.390293   -4.419845    0.922326
     43          6           0       -2.666535   -4.678742    2.260419
     44          8           0       -2.645394   -3.933553    3.214705
     45          8           0       -1.899589   -5.818104    2.138901
     46          6           0       -0.721871   -5.971622    3.057383
     47          6           0        4.447154   -4.377434   -1.912701
     48          6           0        5.769686   -4.291101   -1.184321
     49          6           0        6.950516   -3.681393   -1.550890
     50          6           0        7.229376   -2.879416   -2.861844
     51          6           0        8.061862   -3.616577   -0.492817
     52          6           0        8.423971   -2.233552   -0.006953
     53          6           0        9.817497   -1.777319   -0.325856
     54          6           0       10.024850   -0.632461   -1.354813
     55          6           0       11.195149   -0.888761   -2.301406
     56          6           0       10.081484    0.863229   -0.792388
     57          6           0        8.714244    1.690873   -0.706492
     58          6           0        8.195258    2.031595    0.714131
     59          6           0        7.724824    3.474896    0.883545
     60          6           0        8.910778    4.407183    0.779155
     61          6           0        6.974073    3.658530    2.241551
     62          6           0        5.435861    3.251897    2.258084
     63          6           0        4.550966    4.233422    3.041696
     64          6           0        3.369647    4.745252    2.255759
     65          6           0        3.849761    5.877745    1.315694
     66          6           0        2.380327    5.382679    3.217935
     67          1           0        0.252965    1.281493   -0.231066
     68          1           0       -5.215810    4.719735   -1.302600
     69          1           0       -8.594212   -0.396621    0.023100
     70          1           0       -0.570959   -3.176309    1.280692
     71          1           0        0.812196   -1.325212   -0.406453
     72          1           0        0.355847   -1.492665    2.570624
     73          1           0        0.556589    0.021891    2.033554
     74          1           0        1.875450   -1.057182    1.653735
     75          1           0       -0.152095   -2.986963   -1.762284
     76          1           0       -1.256437   -4.168614   -1.149784
     77          1           0        0.483869   -5.484083   -0.858754
     78          1           0        1.190865   -4.358605    0.315208
     79          1           0        0.604027    4.964930   -0.820716
     80          1           0        0.893666    3.219683   -1.046707
     81          1           0        0.438088    3.886384    0.517831
     82          1           0       -1.275336    7.847407   -0.866098
     83          1           0       -0.452902    6.671588   -1.727713
     84          1           0       -0.634442    6.693170    0.094301
     85          1           0       -7.552131    3.499222   -2.184510
     86          1           0       -8.614375    2.290360    0.404919
     87          1           0       -7.819352    5.444704   -1.219025
     88          1           0       -7.025276    5.041677    0.302770
     89          1           0       -8.685690    4.488098   -0.029738
     90          1           0       -9.816361    2.808924   -1.729306
     91          1           0      -10.238206    1.471404   -0.675426
     92          1           0       -9.665810    1.096061   -3.553128
     93          1           0       -9.972226   -0.230242   -2.499875
     94          1           0       -8.305126    0.403925   -2.724640
     95          1           0       -8.624463   -4.091786    0.595734
     96          1           0       -9.114169   -2.443792    0.655474
     97          1           0       -8.423826   -3.252728    2.047568
     98          1           0       -3.010544   -4.981418    0.069432
     99          1           0        0.140883   -5.486825    2.601288
    100          1           0       -0.632699   -7.051393    3.181137
    101          1           0       -0.946217   -5.591734    4.054243
    102          1           0        4.410718   -3.547521   -2.618837
    103          1           0        4.390172   -5.269746   -2.535543
    104          1           0        5.730976   -4.859872   -0.254948
    105          1           0        7.012718   -1.841726   -2.606628
    106          1           0        6.636365   -3.189586   -3.722420
    107          1           0        8.252428   -3.047057   -3.197835
    108          1           0        8.905603   -4.133528   -0.949052
    109          1           0        7.760761   -4.215341    0.366617
    110          1           0        8.298172   -2.230943    1.075438
    111          1           0        7.754439   -1.460380   -0.384288
    112          1           0       10.401278   -2.653122   -0.609229
    113          1           0       10.133727   -1.418316    0.652997
    114          1           0        9.135665   -0.710380   -1.979424
    115          1           0       10.930466   -0.711454   -3.343840
    116          1           0       11.513946   -1.922160   -2.168991
    117          1           0       12.008904   -0.181062   -2.144864
    118          1           0       10.711435    1.496160   -1.417277
    119          1           0       10.572837    0.884068    0.180913
    120          1           0        7.956416    1.017153   -1.107783
    121          1           0        8.786658    2.528657   -1.400349
    122          1           0        8.976651    1.872462    1.456694
    123          1           0        7.353125    1.376803    0.936765
    124          1           0        7.077944    3.762779    0.054386
    125          1           0        9.165688    4.828504    1.751495
    126          1           0        8.689616    5.179496    0.043191
    127          1           0        9.753846    3.826671    0.401884
    128          1           0        7.096334    4.668439    2.631511
    129          1           0        7.396775    2.920790    2.923933
    130          1           0        5.290757    2.274476    2.717987
    131          1           0        5.038757    3.163965    1.247411
    132          1           0        5.152803    5.046546    3.447240
    133          1           0        4.280496    3.553259    3.849546
    134          1           0        2.835516    3.920034    1.785665
    135          1           0        4.316076    5.563330    0.382054
    136          1           0        4.747652    6.302951    1.764832
    137          1           0        3.125383    6.652119    1.062280
    138          1           0        2.072614    4.566729    3.871264
    139          1           0        1.603048    5.703749    2.525010
    140          1           0        2.887458    6.160229    3.789694
 ---------------------------------------------------------------------

 SCF Done:  E(RCAM-B3LYP) =  -3007.17152196     A.U. after   17 cycles

 Excitation energies and oscillator strengths:

 Excited State   1:      Singlet-A      1.6467 eV  752.94 nm  f=0.3778  <S**2>=0.000
     245 -> 248       -0.16956
     246 -> 247        0.68666
     245 <- 248       -0.10407
 This state for optimization and/or second-order correction.
 Total Energy, E(TD-HF/TD-DFT) =  -3007.11100811
 Copying the excited state density for this state as the 1-particle RhoCI density.

 Excited State   2:      Singlet-A      2.2381 eV  553.97 nm  f=0.1148  <S**2>=0.000
     245 -> 247        0.63489
     246 -> 248        0.29300

 Excited State   3:      Singlet-A      3.3287 eV  372.47 nm  f=0.0024  <S**2>=0.000
     244 -> 247        0.68249
     246 -> 248       -0.10059

 Excited State   4:      Singlet-A      3.4268 eV  361.81 nm  f=0.5745  <S**2>=0.000
     243 -> 247       -0.20374
     245 -> 247       -0.27353
     246 -> 248        0.60963
     245 <- 247        0.10233

 Excited State   5:      Singlet-A      3.6175 eV  342.73 nm  f=0.1298  <S**2>=0.000
     243 -> 247        0.63045
     245 -> 247       -0.12255
     246 -> 248        0.15496

 The electronic state is 1-A.
 Alpha  occ. eigenvalues --  -46.87680 -19.26548 -19.24253 -19.19802 -19.19451
 Alpha  occ. eigenvalues --  -19.19427 -19.18993 -14.41505 -14.40985 -14.40200
 Alpha  occ. eigenvalues --  -14.38931 -10.39332 -10.39273 -10.36231 -10.35089
 Alpha  occ. eigenvalues --  -10.33138 -10.32130 -10.30940 -10.30714 -10.30380
 Alpha  occ. eigenvalues --  -10.30270 -10.30268 -10.29709 -10.29224 -10.29089
 Alpha  occ. eigenvalues --  -10.29062 -10.28942 -10.28258 -10.28168 -10.28158
 Alpha  occ. eigenvalues --  -10.27741 -10.27721 -10.27613 -10.27468 -10.27418
 Alpha  occ. eigenvalues --  -10.27220 -10.27193 -10.27066 -10.27056 -10.27051
 Alpha  occ. eigenvalues --  -10.27023 -10.26905 -10.26466 -10.26439 -10.26312
 Alpha  occ. eigenvalues --  -10.25937 -10.25918 -10.25765 -10.25743 -10.25718
 Alpha  occ. eigenvalues --  -10.25671 -10.25662 -10.25600 -10.25491 -10.25449
 Alpha  occ. eigenvalues --  -10.25388 -10.25318 -10.25209 -10.25178 -10.25102
 Alpha  occ. eigenvalues --  -10.25025 -10.24967 -10.24820 -10.24574 -10.24548
 Alpha  occ. eigenvalues --  -10.24338  -3.16341  -1.91229  -1.90792  -1.90661
 Alpha  occ. eigenvalues --   -1.18609  -1.15333  -1.11506  -1.09954  -1.08886
 Alpha  occ. eigenvalues --   -1.07338  -1.02710  -1.02021  -1.01438  -1.00674
 Alpha  occ. eigenvalues --   -0.91191  -0.91135  -0.90511  -0.89442  -0.89229
 Alpha  occ. eigenvalues --   -0.88368  -0.87998  -0.87828  -0.87042  -0.86535
 Alpha  occ. eigenvalues --   -0.85506  -0.84878  -0.84443  -0.83339  -0.82705
 Alpha  occ. eigenvalues --   -0.82518  -0.81711  -0.81644  -0.80815  -0.80540
 Alpha  occ. eigenvalues --   -0.79740  -0.78056  -0.77726  -0.77055  -0.76432
 Alpha  occ. eigenvalues --   -0.75939  -0.75764  -0.75303  -0.74478  -0.74369
 Alpha  occ. eigenvalues --   -0.73526  -0.72205  -0.71030  -0.70298  -0.69757
 Alpha  occ. eigenvalues --   -0.68398  -0.67816  -0.67186  -0.67090  -0.65884
 Alpha  occ. eigenvalues --   -0.65163  -0.64285  -0.64034  -0.64010  -0.63950
 Alpha  occ. eigenvalues --   -0.63758  -0.63392  -0.62840  -0.61368  -0.60740
 Alpha  occ. eigenvalues --   -0.59882  -0.59296  -0.58556  -0.57687  -0.57232
 Alpha  occ. eigenvalues --   -0.57107  -0.56655  -0.56561  -0.55505  -0.55324
 Alpha  occ. eigenvalues --   -0.55136  -0.54900  -0.54672  -0.54414  -0.54255
 Alpha  occ. eigenvalues --   -0.53864  -0.53457  -0.53245  -0.53064  -0.52957
 Alpha  occ. eigenvalues --   -0.52631  -0.52487  -0.52426  -0.52152  -0.52077
 Alpha  occ. eigenvalues --   -0.52041  -0.51849  -0.51282  -0.51202  -0.50684
 Alpha  occ. eigenvalues --   -0.50518  -0.50315  -0.50216  -0.49996  -0.49780
 Alpha  occ. eigenvalues --   -0.49435  -0.49267  -0.49111  -0.48777  -0.48746
 Alpha  occ. eigenvalues --   -0.48510  -0.48294  -0.48167  -0.47816  -0.47710
 Alpha  occ. eigenvalues --   -0.47461  -0.47120  -0.47033  -0.46844  -0.46541
 Alpha  occ. eigenvalues --   -0.46035  -0.45896  -0.45886  -0.45706  -0.45698
 Alpha  occ. eigenvalues --   -0.45462  -0.45360  -0.45189  -0.44963  -0.44878
 Alpha  occ. eigenvalues --   -0.44651  -0.44535  -0.44310  -0.44183  -0.43963
 Alpha  occ. eigenvalues --   -0.43913  -0.43819  -0.43443  -0.43362  -0.43128
 Alpha  occ. eigenvalues --   -0.42789  -0.42697  -0.42583  -0.42427  -0.42335
 Alpha  occ. eigenvalues --   -0.42097  -0.41856  -0.41579  -0.41221  -0.41185
 Alpha  occ. eigenvalues --   -0.40810  -0.40778  -0.40562  -0.40134  -0.39894
 Alpha  occ. eigenvalues --   -0.39827  -0.39741  -0.39210  -0.39171  -0.38807
 Alpha  occ. eigenvalues --   -0.38775  -0.38657  -0.38508  -0.38143  -0.38062
 Alpha  occ. eigenvalues --   -0.37851  -0.37280  -0.36662  -0.36616  -0.36520
 Alpha  occ. eigenvalues --   -0.36299  -0.36154  -0.36132  -0.34755  -0.34363
 Alpha  occ. eigenvalues --   -0.34115  -0.33819  -0.32347  -0.31620  -0.31049
 Alpha  occ. eigenvalues --   -0.30741  -0.30357  -0.29938  -0.28861  -0.23566
 Alpha  occ. eigenvalues --   -0.20475
 Alpha virt. eigenvalues --   -0.08234  -0.01460   0.00761   0.02646   0.03425
 Alpha virt. eigenvalues --    0.03755   0.05107   0.05650   0.06155   0.06584
 Alpha virt. eigenvalues --    0.07486   0.07760   0.08008   0.08628   0.08763

 Mulliken charges:
               1
     1  Mg   0.844011
     2  C   -0.093083
     3  C   -0.077647
     4  C   -0.057327
     5  C   -0.070830
     6  N   -0.271871
     7  C   -0.058216
     8  C    0.027962
     9  C   -0.046416
    10  C    0.027572
    11  C    0.080767
    12  C    0.076174
    13  C    0.028551
    14  C    0.125109
    15  O   -0.227954
    16  O   -0.291219
    17  N   -0.430416
    18  C    0.182434
    19  C   -0.167692
    20  C   -0.026486
    21  C    0.150143
    22  C    0.104273
    23  C    0.038888
    24  O   -0.200173
    25  C    0.019155
    26  N   -0.333397
    27  C    0.042051
    28  C   -0.055826
    29  C   -0.031827
    30  C    0.006057
    31  C    0.049653
    32  C    0.049214
    33  C    0.004412
    34  N   -0.378342
    35  C    0.154711
    36  C   -0.156634
    37  C   -0.013327
    38  C    0.158034
    39  C    0.106150
    40  C    0.053520
    41  O   -0.123864
    42  C   -0.024421
    43  C    0.222267
    44  O   -0.202634
    45  O   -0.358777
    46  C    0.165048
    47  C    0.260322
    48  C   -0.125657
    49  C   -0.178874
    50  C    0.066352
    51  C    0.089625
    52  C    0.009826
    53  C    0.065676
    54  C   -0.115541
    55  C    0.048005
    56  C    0.038536
    57  C    0.009237
    58  C    0.042600
    59  C   -0.147168
    60  C    0.063017
    61  C    0.052984
    62  C    0.014877
    63  C    0.019772
    64  C   -0.141039
    65  C    0.041551
    66  C    0.063462
    67  H   -0.032254
    68  H   -0.005017
    69  H   -0.035393
    70  H    0.005619
    71  H    0.007881
    72  H    0.018086
    73  H    0.000345
    74  H    0.023295
    75  H    0.016413
    76  H    0.007103
    77  H    0.041493
    78  H    0.014466
    79  H    0.016632
    80  H    0.033431
    81  H    0.034540
    82  H    0.011556
    83  H    0.060124
    84  H    0.038347
    85  H    0.020615
    86  H    0.011970
    87  H    0.015011
    88  H    0.036908
    89  H    0.000544
    90  H    0.010795
    91  H    0.007453
    92  H    0.011615
    93  H    0.024244
    94  H    0.042166
    95  H    0.023940
    96  H    0.004004
    97  H    0.025380
    98  H    0.048561
    99  H    0.043683
   100  H    0.044487
   101  H    0.050965
   102  H    0.030897
   103  H    0.039022
   104  H    0.006691
   105  H    0.049900
   106  H    0.022354
   107  H    0.024347
   108  H    0.006434
   109  H   -0.004055
   110  H    0.000198
   111  H    0.001845
   112  H   -0.008920
   113  H   -0.011042
   114  H   -0.020638
   115  H    0.005851
   116  H    0.001463
   117  H    0.009127
   118  H   -0.004753
   119  H   -0.003714
   120  H   -0.008991
   121  H    0.006559
   122  H   -0.003662
   123  H   -0.006047
   124  H   -0.012318
   125  H    0.008570
   126  H    0.006645
   127  H   -0.000491
   128  H    0.001290
   129  H   -0.006851
   130  H   -0.004214
   131  H   -0.007948
   132  H   -0.000353
   133  H   -0.012727
   134  H   -0.004510
   135  H   -0.002073
   136  H   -0.004681
   137  H    0.011317
   138  H    0.003879
   139  H    0.007214
   140  H    0.010035
 Sum of Mulliken charges =  -0.00000

 Dipole moment (field-independent basis, Debye):
    X=              6.4241    Y=              2.1114    Z=             -1.2047  Tot=              6.8687
 Quadrupole moment (field-independent basis, Debye-Ang):
   XX=           -369.7790   YY=           -420.9228   ZZ=           -413.7677
   XY=            -22.1705   XZ=             10.5899   YZ=              2.0494

 Normal termination of Gaussian 16 at Tue May  3 21:56:08 2022.
