 Gaussian 16, Revision A.03,
 Gaussian 16:  ES64L-G16RevA.03 25-Dec-2016

 ---------------------------------
 #p PBE1PBE/Def2SVP td=(nstates=5)
 ---------------------------------

 ------------------------------------------------------
 step_1051_chromophore_12 TDDFT with PBE1PBE functional
 ------------------------------------------------------
 Symbolic Z-matrix:
 Charge =  0 Multiplicity = 1

                         Standard orientation:
 ---------------------------------------------------------------------
 Center     Atomic      Atomic             Coordinates (Angstroms)
 Number     Number       Type             X           Y           Z
 ---------------------------------------------------------------------
      1         12           0       -4.133140    0.453610   -0.579427
      2          6           0       -3.330721   -2.898527    0.577808
      3          6           0       -0.818708    1.088083   -0.145306
      4          6           0       -4.865632    3.714122   -1.060197
      5          6           0       -7.522796   -0.290549   -0.157100
      6          7           0       -2.303960   -0.804563    0.176257
      7          6           0       -2.155656   -2.159469    0.379285
      8          6           0       -0.699695   -2.648267    0.335447
      9          6           0        0.071798   -1.271353    0.392550
     10          6           0       -1.046633   -0.225633    0.112393
     11          6           0        0.789167   -0.991572    1.705477
     12          6           0       -0.403477   -3.552798   -0.865639
     13          6           0        0.840693   -4.464612   -0.711945
     14          6           0        2.107293   -4.223394   -1.656972
     15          8           0        1.986248   -3.998489   -2.828958
     16          8           0        3.226413   -4.359147   -1.001192
     17          7           0       -3.011891    2.091855   -0.860653
     18          6           0       -1.698420    2.166214   -0.539303
     19          6           0       -1.194836    3.569400   -0.681329
     20          6           0       -2.342760    4.411781   -0.913595
     21          6           0       -3.494958    3.455001   -0.974013
     22          6           0        0.265988    3.962825   -0.555769
     23          6           0       -2.426402    5.935358   -0.924026
     24          8           0       -3.554121    6.405362   -1.083161
     25          6           0       -1.125361    6.767462   -0.875671
     26          7           0       -5.930249    1.509331   -0.639014
     27          6           0       -5.970967    2.883199   -0.927807
     28          6           0       -7.406142    3.290393   -1.124896
     29          6           0       -8.286580    2.093572   -0.616362
     30          6           0       -7.181735    1.001733   -0.456593
     31          6           0       -7.702417    4.667232   -0.465004
     32          6           0       -9.563770    1.780841   -1.473123
     33          6           0       -9.356681    0.663059   -2.602334
     34          7           0       -5.258566   -1.213012   -0.091408
     35          6           0       -6.600389   -1.337112    0.144796
     36          6           0       -6.906171   -2.657393    0.672922
     37          6           0       -5.654906   -3.347500    0.739752
     38          6           0       -4.669964   -2.400769    0.419152
     39          6           0       -8.316295   -3.116447    0.971861
     40          6           0       -4.981242   -4.630197    1.080852
     41          8           0       -5.378672   -5.683920    1.458521
     42          6           0       -3.390293   -4.419845    0.922326
     43          6           0       -2.666535   -4.678742    2.260419
     44          8           0       -2.645394   -3.933553    3.214705
     45          8           0       -1.899589   -5.818104    2.138901
     46          6           0       -0.721871   -5.971622    3.057383
     47          6           0        4.447154   -4.377434   -1.912701
     48          6           0        5.769686   -4.291101   -1.184321
     49          6           0        6.950516   -3.681393   -1.550890
     50          6           0        7.229376   -2.879416   -2.861844
     51          6           0        8.061862   -3.616577   -0.492817
     52          6           0        8.423971   -2.233552   -0.006953
     53          6           0        9.817497   -1.777319   -0.325856
     54          6           0       10.024850   -0.632461   -1.354813
     55          6           0       11.195149   -0.888761   -2.301406
     56          6           0       10.081484    0.863229   -0.792388
     57          6           0        8.714244    1.690873   -0.706492
     58          6           0        8.195258    2.031595    0.714131
     59          6           0        7.724824    3.474896    0.883545
     60          6           0        8.910778    4.407183    0.779155
     61          6           0        6.974073    3.658530    2.241551
     62          6           0        5.435861    3.251897    2.258084
     63          6           0        4.550966    4.233422    3.041696
     64          6           0        3.369647    4.745252    2.255759
     65          6           0        3.849761    5.877745    1.315694
     66          6           0        2.380327    5.382679    3.217935
     67          1           0        0.252965    1.281493   -0.231066
     68          1           0       -5.215810    4.719735   -1.302600
     69          1           0       -8.594212   -0.396621    0.023100
     70          1           0       -0.570959   -3.176309    1.280692
     71          1           0        0.812196   -1.325212   -0.406453
     72          1           0        0.355847   -1.492665    2.570624
     73          1           0        0.556589    0.021891    2.033554
     74          1           0        1.875450   -1.057182    1.653735
     75          1           0       -0.152095   -2.986963   -1.762284
     76          1           0       -1.256437   -4.168614   -1.149784
     77          1           0        0.483869   -5.484083   -0.858754
     78          1           0        1.190865   -4.358605    0.315208
     79          1           0        0.604027    4.964930   -0.820716
     80          1           0        0.893666    3.219683   -1.046707
     81          1           0        0.438088    3.886384    0.517831
     82          1           0       -1.275336    7.847407   -0.866098
     83          1           0       -0.452902    6.671588   -1.727713
     84          1           0       -0.634442    6.693170    0.094301
     85          1           0       -7.552131    3.499222   -2.184510
     86          1           0       -8.614375    2.290360    0.404919
     87          1           0       -7.819352    5.444704   -1.219025
     88          1           0       -7.025276    5.041677    0.302770
     89          1           0       -8.685690    4.488098   -0.029738
     90          1           0       -9.816361    2.808924   -1.729306
     91          1           0      -10.238206    1.471404   -0.675426
     92          1           0       -9.665810    1.096061   -3.553128
     93          1           0       -9.972226   -0.230242   -2.499875
     94          1           0       -8.305126    0.403925   -2.724640
     95          1           0       -8.624463   -4.091786    0.595734
     96          1           0       -9.114169   -2.443792    0.655474
     97          1           0       -8.423826   -3.252728    2.047568
     98          1           0       -3.010544   -4.981418    0.069432
     99          1           0        0.140883   -5.486825    2.601288
    100          1           0       -0.632699   -7.051393    3.181137
    101          1           0       -0.946217   -5.591734    4.054243
    102          1           0        4.410718   -3.547521   -2.618837
    103          1           0        4.390172   -5.269746   -2.535543
    104          1           0        5.730976   -4.859872   -0.254948
    105          1           0        7.012718   -1.841726   -2.606628
    106          1           0        6.636365   -3.189586   -3.722420
    107          1           0        8.252428   -3.047057   -3.197835
    108          1           0        8.905603   -4.133528   -0.949052
    109          1           0        7.760761   -4.215341    0.366617
    110          1           0        8.298172   -2.230943    1.075438
    111          1           0        7.754439   -1.460380   -0.384288
    112          1           0       10.401278   -2.653122   -0.609229
    113          1           0       10.133727   -1.418316    0.652997
    114          1           0        9.135665   -0.710380   -1.979424
    115          1           0       10.930466   -0.711454   -3.343840
    116          1           0       11.513946   -1.922160   -2.168991
    117          1           0       12.008904   -0.181062   -2.144864
    118          1           0       10.711435    1.496160   -1.417277
    119          1           0       10.572837    0.884068    0.180913
    120          1           0        7.956416    1.017153   -1.107783
    121          1           0        8.786658    2.528657   -1.400349
    122          1           0        8.976651    1.872462    1.456694
    123          1           0        7.353125    1.376803    0.936765
    124          1           0        7.077944    3.762779    0.054386
    125          1           0        9.165688    4.828504    1.751495
    126          1           0        8.689616    5.179496    0.043191
    127          1           0        9.753846    3.826671    0.401884
    128          1           0        7.096334    4.668439    2.631511
    129          1           0        7.396775    2.920790    2.923933
    130          1           0        5.290757    2.274476    2.717987
    131          1           0        5.038757    3.163965    1.247411
    132          1           0        5.152803    5.046546    3.447240
    133          1           0        4.280496    3.553259    3.849546
    134          1           0        2.835516    3.920034    1.785665
    135          1           0        4.316076    5.563330    0.382054
    136          1           0        4.747652    6.302951    1.764832
    137          1           0        3.125383    6.652119    1.062280
    138          1           0        2.072614    4.566729    3.871264
    139          1           0        1.603048    5.703749    2.525010
    140          1           0        2.887458    6.160229    3.789694
 ---------------------------------------------------------------------

 SCF Done:  E(RPBE1PBE) =  -3005.36014719     A.U. after   15 cycles

 Excitation energies and oscillator strengths:

 Excited State   1:      Singlet-A      1.8122 eV  684.17 nm  f=0.3647  <S**2>=0.000
     245 -> 248       -0.15753
     246 -> 247        0.69412
     246 <- 247       -0.11322
 This state for optimization and/or second-order correction.
 Total Energy, E(TD-HF/TD-DFT) =  -3005.29355029
 Copying the excited state density for this state as the 1-particle RhoCI density.

 Excited State   2:      Singlet-A      2.2535 eV  550.18 nm  f=0.1060  <S**2>=0.000
     245 -> 247        0.64246
     246 -> 248        0.27077

 Excited State   3:      Singlet-A      2.9892 eV  414.77 nm  f=0.0017  <S**2>=0.000
     243 -> 247        0.13545
     244 -> 247        0.68150

 Excited State   4:      Singlet-A      3.1303 eV  396.08 nm  f=0.0780  <S**2>=0.000
     243 -> 247        0.56590
     244 -> 247       -0.13569
     245 -> 247        0.11710
     246 -> 248       -0.33162
     246 -> 249       -0.12993

 Excited State   5:      Singlet-A      3.1538 eV  393.13 nm  f=0.1543  <S**2>=0.000
     242 -> 247       -0.28378
     243 -> 247        0.32308
     245 -> 247       -0.16215
     246 -> 248        0.48424
     246 -> 249        0.16259

 The electronic state is 1-A.
 Alpha  occ. eigenvalues --  -46.91122 -19.27229 -19.24945 -19.20032 -19.19745
 Alpha  occ. eigenvalues --  -19.19599 -19.19231 -14.41002 -14.40552 -14.39837
 Alpha  occ. eigenvalues --  -14.38693 -10.36373 -10.36324 -10.33323 -10.32295
 Alpha  occ. eigenvalues --  -10.30528 -10.29368 -10.28599 -10.28350 -10.28177
 Alpha  occ. eigenvalues --  -10.27940 -10.27934 -10.27508 -10.27039 -10.26773
 Alpha  occ. eigenvalues --  -10.26766 -10.26700 -10.25972 -10.25948 -10.25918
 Alpha  occ. eigenvalues --  -10.25602 -10.25553 -10.25299 -10.25098 -10.24997
 Alpha  occ. eigenvalues --  -10.24839 -10.24805 -10.24759 -10.24740 -10.24529
 Alpha  occ. eigenvalues --  -10.24420 -10.24305 -10.24160 -10.24069 -10.23878
 Alpha  occ. eigenvalues --  -10.23571 -10.23522 -10.23449 -10.23298 -10.23243
 Alpha  occ. eigenvalues --  -10.23239 -10.23201 -10.23158 -10.23147 -10.23110
 Alpha  occ. eigenvalues --  -10.22999 -10.22892 -10.22721 -10.22720 -10.22671
 Alpha  occ. eigenvalues --  -10.22503 -10.22402 -10.22225 -10.22099 -10.21943
 Alpha  occ. eigenvalues --  -10.21709  -3.13357  -1.86186  -1.85727  -1.85601
 Alpha  occ. eigenvalues --   -1.13476  -1.10102  -1.06322  -1.04621  -1.03794
 Alpha  occ. eigenvalues --   -1.02190  -0.97300  -0.96608  -0.96098  -0.95327
 Alpha  occ. eigenvalues --   -0.85510  -0.85304  -0.84591  -0.83571  -0.83421
 Alpha  occ. eigenvalues --   -0.82513  -0.82281  -0.82157  -0.81369  -0.80711
 Alpha  occ. eigenvalues --   -0.79701  -0.79261  -0.78672  -0.77495  -0.77034
 Alpha  occ. eigenvalues --   -0.76770  -0.75932  -0.75710  -0.74975  -0.74849
 Alpha  occ. eigenvalues --   -0.74041  -0.72308  -0.72009  -0.71223  -0.70762
 Alpha  occ. eigenvalues --   -0.70081  -0.69996  -0.69415  -0.68757  -0.68652
 Alpha  occ. eigenvalues --   -0.67855  -0.66665  -0.65415  -0.64612  -0.64187
 Alpha  occ. eigenvalues --   -0.62671  -0.62207  -0.61675  -0.61346  -0.60081
 Alpha  occ. eigenvalues --   -0.59611  -0.58863  -0.58526  -0.58501  -0.58096
 Alpha  occ. eigenvalues --   -0.58007  -0.57866  -0.57002  -0.55986  -0.55155
 Alpha  occ. eigenvalues --   -0.54368  -0.53801  -0.53182  -0.52166  -0.51827
 Alpha  occ. eigenvalues --   -0.51516  -0.51183  -0.51043  -0.50009  -0.49774
 Alpha  occ. eigenvalues --   -0.49647  -0.49427  -0.49201  -0.49023  -0.48806
 Alpha  occ. eigenvalues --   -0.48306  -0.48071  -0.47785  -0.47575  -0.47467
 Alpha  occ. eigenvalues --   -0.47164  -0.47064  -0.46902  -0.46636  -0.46577
 Alpha  occ. eigenvalues --   -0.46504  -0.46466  -0.45923  -0.45699  -0.45204
 Alpha  occ. eigenvalues --   -0.45069  -0.44858  -0.44747  -0.44568  -0.44380
 Alpha  occ. eigenvalues --   -0.44045  -0.43870  -0.43683  -0.43377  -0.43331
 Alpha  occ. eigenvalues --   -0.43140  -0.42919  -0.42797  -0.42457  -0.42392
 Alpha  occ. eigenvalues --   -0.42126  -0.41750  -0.41662  -0.41502  -0.41182
 Alpha  occ. eigenvalues --   -0.40725  -0.40622  -0.40534  -0.40471  -0.40279
 Alpha  occ. eigenvalues --   -0.40205  -0.40096  -0.39902  -0.39740  -0.39545
 Alpha  occ. eigenvalues --   -0.39435  -0.39311  -0.38995  -0.38953  -0.38721
 Alpha  occ. eigenvalues --   -0.38655  -0.38493  -0.38247  -0.38197  -0.37974
 Alpha  occ. eigenvalues --   -0.37567  -0.37440  -0.37372  -0.37208  -0.37077
 Alpha  occ. eigenvalues --   -0.36903  -0.36657  -0.36394  -0.36092  -0.35952
 Alpha  occ. eigenvalues --   -0.35723  -0.35557  -0.35465  -0.34890  -0.34844
 Alpha  occ. eigenvalues --   -0.34695  -0.34638  -0.34164  -0.33967  -0.33770
 Alpha  occ. eigenvalues --   -0.33666  -0.33609  -0.33339  -0.33045  -0.32944
 Alpha  occ. eigenvalues --   -0.32886  -0.32115  -0.31575  -0.31513  -0.31401
 Alpha  occ. eigenvalues --   -0.31364  -0.31194  -0.30977  -0.29733  -0.29405
 Alpha  occ. eigenvalues --   -0.29090  -0.28696  -0.27977  -0.26762  -0.26317
 Alpha  occ. eigenvalues --   -0.26048  -0.25539  -0.25325  -0.24544  -0.20518
 Alpha  occ. eigenvalues --   -0.18112
 Alpha virt. eigenvalues --   -0.10678  -0.05091  -0.03409  -0.01773  -0.00719
 Alpha virt. eigenvalues --    0.00318   0.00810   0.01343   0.01711   0.03455
 Alpha virt. eigenvalues --    0.03514   0.04422   0.04587   0.04653   0.05319

 Mulliken charges:
               1
     1  Mg   0.996606
     2  C   -0.095855
     3  C   -0.064481
     4  C   -0.056845
     5  C   -0.062077
     6  N   -0.366273
     7  C    0.012371
     8  C   -0.047423
     9  C   -0.123273
    10  C    0.058152
    11  C    0.026969
    12  C    0.027322
    13  C   -0.047131
    14  C    0.192379
    15  O   -0.259985
    16  O   -0.323227
    17  N   -0.541615
    18  C    0.202950
    19  C   -0.200324
    20  C   -0.057210
    21  C    0.170379
    22  C    0.036995
    23  C    0.084541
    24  O   -0.236912
    25  C   -0.051073
    26  N   -0.441114
    27  C    0.080897
    28  C   -0.137951
    29  C   -0.097437
    30  C    0.042050
    31  C   -0.009715
    32  C   -0.016675
    33  C   -0.070145
    34  N   -0.495854
    35  C    0.176918
    36  C   -0.179420
    37  C   -0.063306
    38  C    0.194996
    39  C    0.057666
    40  C    0.156168
    41  O   -0.169881
    42  C   -0.137483
    43  C    0.310810
    44  O   -0.236696
    45  O   -0.390468
    46  C    0.108828
    47  C    0.218564
    48  C   -0.137865
    49  C   -0.222798
    50  C    0.005216
    51  C    0.027141
    52  C   -0.057641
    53  C    0.016476
    54  C   -0.210540
    55  C   -0.011145
    56  C   -0.009147
    57  C   -0.055900
    58  C   -0.015542
    59  C   -0.232107
    60  C    0.003294
    61  C   -0.004557
    62  C   -0.039056
    63  C   -0.031250
    64  C   -0.246692
    65  C   -0.013090
    66  C   -0.000981
    67  H   -0.000528
    68  H    0.028200
    69  H   -0.002358
    70  H    0.050737
    71  H    0.045708
    72  H    0.044646
    73  H    0.028557
    74  H    0.050025
    75  H    0.048974
    76  H    0.040977
    77  H    0.073301
    78  H    0.048613
    79  H    0.043261
    80  H    0.059978
    81  H    0.065834
    82  H    0.039421
    83  H    0.084610
    84  H    0.064837
    85  H    0.058689
    86  H    0.050366
    87  H    0.042751
    88  H    0.064078
    89  H    0.029485
    90  H    0.043683
    91  H    0.039369
    92  H    0.040648
    93  H    0.051241
    94  H    0.071722
    95  H    0.051686
    96  H    0.030570
    97  H    0.053977
    98  H    0.085083
    99  H    0.066230
   100  H    0.066044
   101  H    0.071650
   102  H    0.057301
   103  H    0.065681
   104  H    0.036266
   105  H    0.074858
   106  H    0.049478
   107  H    0.051616
   108  H    0.039225
   109  H    0.027664
   110  H    0.033242
   111  H    0.037841
   112  H    0.021925
   113  H    0.022254
   114  H    0.023749
   115  H    0.033300
   116  H    0.028439
   117  H    0.036378
   118  H    0.027319
   119  H    0.027350
   120  H    0.025296
   121  H    0.037646
   122  H    0.028445
   123  H    0.028184
   124  H    0.025659
   125  H    0.035815
   126  H    0.034316
   127  H    0.029500
   128  H    0.032238
   129  H    0.027048
   130  H    0.027367
   131  H    0.023999
   132  H    0.030139
   133  H    0.020606
   134  H    0.033641
   135  H    0.025965
   136  H    0.022943
   137  H    0.037660
   138  H    0.032965
   139  H    0.037303
   140  H    0.037784
 Sum of Mulliken charges =  -0.00000

 Dipole moment (field-independent basis, Debye):
    X=              6.2590    Y=              2.0090    Z=             -1.1996  Tot=              6.6821
 Quadrupole moment (field-independent basis, Debye-Ang):
   XX=           -362.9408   YY=           -418.7997   ZZ=           -411.2189
   XY=            -22.1576   XZ=             10.8476   YZ=              1.8959

 Normal termination of Gaussian 16 at Tue May  3 22:24:10 2022.
