 Gaussian 16, Revision A.03,
 Gaussian 16:  ES64L-G16RevA.03 25-Dec-2016

 --------------------------------
 #p wB97XD/Def2SVP td=(nstates=5)
 --------------------------------

 -----------------------------------------------------
 step_1051_chromophore_12 TDDFT with wB97XD functional
 -----------------------------------------------------
 Symbolic Z-matrix:
 Charge =  0 Multiplicity = 1

                         Standard orientation:
 ---------------------------------------------------------------------
 Center     Atomic      Atomic             Coordinates (Angstroms)
 Number     Number       Type             X           Y           Z
 ---------------------------------------------------------------------
      1         12           0       -4.133140    0.453610   -0.579427
      2          6           0       -3.330721   -2.898527    0.577808
      3          6           0       -0.818708    1.088083   -0.145306
      4          6           0       -4.865632    3.714122   -1.060197
      5          6           0       -7.522796   -0.290549   -0.157100
      6          7           0       -2.303960   -0.804563    0.176257
      7          6           0       -2.155656   -2.159469    0.379285
      8          6           0       -0.699695   -2.648267    0.335447
      9          6           0        0.071798   -1.271353    0.392550
     10          6           0       -1.046633   -0.225633    0.112393
     11          6           0        0.789167   -0.991572    1.705477
     12          6           0       -0.403477   -3.552798   -0.865639
     13          6           0        0.840693   -4.464612   -0.711945
     14          6           0        2.107293   -4.223394   -1.656972
     15          8           0        1.986248   -3.998489   -2.828958
     16          8           0        3.226413   -4.359147   -1.001192
     17          7           0       -3.011891    2.091855   -0.860653
     18          6           0       -1.698420    2.166214   -0.539303
     19          6           0       -1.194836    3.569400   -0.681329
     20          6           0       -2.342760    4.411781   -0.913595
     21          6           0       -3.494958    3.455001   -0.974013
     22          6           0        0.265988    3.962825   -0.555769
     23          6           0       -2.426402    5.935358   -0.924026
     24          8           0       -3.554121    6.405362   -1.083161
     25          6           0       -1.125361    6.767462   -0.875671
     26          7           0       -5.930249    1.509331   -0.639014
     27          6           0       -5.970967    2.883199   -0.927807
     28          6           0       -7.406142    3.290393   -1.124896
     29          6           0       -8.286580    2.093572   -0.616362
     30          6           0       -7.181735    1.001733   -0.456593
     31          6           0       -7.702417    4.667232   -0.465004
     32          6           0       -9.563770    1.780841   -1.473123
     33          6           0       -9.356681    0.663059   -2.602334
     34          7           0       -5.258566   -1.213012   -0.091408
     35          6           0       -6.600389   -1.337112    0.144796
     36          6           0       -6.906171   -2.657393    0.672922
     37          6           0       -5.654906   -3.347500    0.739752
     38          6           0       -4.669964   -2.400769    0.419152
     39          6           0       -8.316295   -3.116447    0.971861
     40          6           0       -4.981242   -4.630197    1.080852
     41          8           0       -5.378672   -5.683920    1.458521
     42          6           0       -3.390293   -4.419845    0.922326
     43          6           0       -2.666535   -4.678742    2.260419
     44          8           0       -2.645394   -3.933553    3.214705
     45          8           0       -1.899589   -5.818104    2.138901
     46          6           0       -0.721871   -5.971622    3.057383
     47          6           0        4.447154   -4.377434   -1.912701
     48          6           0        5.769686   -4.291101   -1.184321
     49          6           0        6.950516   -3.681393   -1.550890
     50          6           0        7.229376   -2.879416   -2.861844
     51          6           0        8.061862   -3.616577   -0.492817
     52          6           0        8.423971   -2.233552   -0.006953
     53          6           0        9.817497   -1.777319   -0.325856
     54          6           0       10.024850   -0.632461   -1.354813
     55          6           0       11.195149   -0.888761   -2.301406
     56          6           0       10.081484    0.863229   -0.792388
     57          6           0        8.714244    1.690873   -0.706492
     58          6           0        8.195258    2.031595    0.714131
     59          6           0        7.724824    3.474896    0.883545
     60          6           0        8.910778    4.407183    0.779155
     61          6           0        6.974073    3.658530    2.241551
     62          6           0        5.435861    3.251897    2.258084
     63          6           0        4.550966    4.233422    3.041696
     64          6           0        3.369647    4.745252    2.255759
     65          6           0        3.849761    5.877745    1.315694
     66          6           0        2.380327    5.382679    3.217935
     67          1           0        0.252965    1.281493   -0.231066
     68          1           0       -5.215810    4.719735   -1.302600
     69          1           0       -8.594212   -0.396621    0.023100
     70          1           0       -0.570959   -3.176309    1.280692
     71          1           0        0.812196   -1.325212   -0.406453
     72          1           0        0.355847   -1.492665    2.570624
     73          1           0        0.556589    0.021891    2.033554
     74          1           0        1.875450   -1.057182    1.653735
     75          1           0       -0.152095   -2.986963   -1.762284
     76          1           0       -1.256437   -4.168614   -1.149784
     77          1           0        0.483869   -5.484083   -0.858754
     78          1           0        1.190865   -4.358605    0.315208
     79          1           0        0.604027    4.964930   -0.820716
     80          1           0        0.893666    3.219683   -1.046707
     81          1           0        0.438088    3.886384    0.517831
     82          1           0       -1.275336    7.847407   -0.866098
     83          1           0       -0.452902    6.671588   -1.727713
     84          1           0       -0.634442    6.693170    0.094301
     85          1           0       -7.552131    3.499222   -2.184510
     86          1           0       -8.614375    2.290360    0.404919
     87          1           0       -7.819352    5.444704   -1.219025
     88          1           0       -7.025276    5.041677    0.302770
     89          1           0       -8.685690    4.488098   -0.029738
     90          1           0       -9.816361    2.808924   -1.729306
     91          1           0      -10.238206    1.471404   -0.675426
     92          1           0       -9.665810    1.096061   -3.553128
     93          1           0       -9.972226   -0.230242   -2.499875
     94          1           0       -8.305126    0.403925   -2.724640
     95          1           0       -8.624463   -4.091786    0.595734
     96          1           0       -9.114169   -2.443792    0.655474
     97          1           0       -8.423826   -3.252728    2.047568
     98          1           0       -3.010544   -4.981418    0.069432
     99          1           0        0.140883   -5.486825    2.601288
    100          1           0       -0.632699   -7.051393    3.181137
    101          1           0       -0.946217   -5.591734    4.054243
    102          1           0        4.410718   -3.547521   -2.618837
    103          1           0        4.390172   -5.269746   -2.535543
    104          1           0        5.730976   -4.859872   -0.254948
    105          1           0        7.012718   -1.841726   -2.606628
    106          1           0        6.636365   -3.189586   -3.722420
    107          1           0        8.252428   -3.047057   -3.197835
    108          1           0        8.905603   -4.133528   -0.949052
    109          1           0        7.760761   -4.215341    0.366617
    110          1           0        8.298172   -2.230943    1.075438
    111          1           0        7.754439   -1.460380   -0.384288
    112          1           0       10.401278   -2.653122   -0.609229
    113          1           0       10.133727   -1.418316    0.652997
    114          1           0        9.135665   -0.710380   -1.979424
    115          1           0       10.930466   -0.711454   -3.343840
    116          1           0       11.513946   -1.922160   -2.168991
    117          1           0       12.008904   -0.181062   -2.144864
    118          1           0       10.711435    1.496160   -1.417277
    119          1           0       10.572837    0.884068    0.180913
    120          1           0        7.956416    1.017153   -1.107783
    121          1           0        8.786658    2.528657   -1.400349
    122          1           0        8.976651    1.872462    1.456694
    123          1           0        7.353125    1.376803    0.936765
    124          1           0        7.077944    3.762779    0.054386
    125          1           0        9.165688    4.828504    1.751495
    126          1           0        8.689616    5.179496    0.043191
    127          1           0        9.753846    3.826671    0.401884
    128          1           0        7.096334    4.668439    2.631511
    129          1           0        7.396775    2.920790    2.923933
    130          1           0        5.290757    2.274476    2.717987
    131          1           0        5.038757    3.163965    1.247411
    132          1           0        5.152803    5.046546    3.447240
    133          1           0        4.280496    3.553259    3.849546
    134          1           0        2.835516    3.920034    1.785665
    135          1           0        4.316076    5.563330    0.382054
    136          1           0        4.747652    6.302951    1.764832
    137          1           0        3.125383    6.652119    1.062280
    138          1           0        2.072614    4.566729    3.871264
    139          1           0        1.603048    5.703749    2.525010
    140          1           0        2.887458    6.160229    3.789694
 ---------------------------------------------------------------------

 SCF Done:  E(RwB97XD) =  -3007.87293831     A.U. after   20 cycles

 Excitation energies and oscillator strengths:

 Excited State   1:      Singlet-A      1.5856 eV  781.94 nm  f=0.3765  <S**2>=0.000
     245 -> 248       -0.17549
     246 -> 247        0.68443
     245 <- 248       -0.11390
 This state for optimization and/or second-order correction.
 Total Energy, E(TD-HF/TD-DFT) =  -3007.81466883
 Copying the excited state density for this state as the 1-particle RhoCI density.

 Excited State   2:      Singlet-A      2.1852 eV  567.37 nm  f=0.1125  <S**2>=0.000
     245 -> 247        0.63328
     246 -> 248        0.29506

 Excited State   3:      Singlet-A      3.3487 eV  370.24 nm  f=0.0086  <S**2>=0.000
     244 -> 247        0.67034
     246 -> 248       -0.14391

 Excited State   4:      Singlet-A      3.4596 eV  358.37 nm  f=0.5959  <S**2>=0.000
     243 -> 247       -0.22626
     244 -> 247        0.13017
     245 -> 247       -0.27293
     246 -> 248        0.59325
     245 <- 247        0.10808

 Excited State   5:      Singlet-A      3.6547 eV  339.25 nm  f=0.1650  <S**2>=0.000
     243 -> 247        0.61808
     245 -> 247       -0.14128
     246 -> 248        0.17600

 The electronic state is 1-A.
 Alpha  occ. eigenvalues --  -46.94026 -19.31787 -19.29507 -19.24746 -19.24483
 Alpha  occ. eigenvalues --  -19.24382 -19.24028 -14.46135 -14.45595 -14.44841
 Alpha  occ. eigenvalues --  -14.43550 -10.43202 -10.43077 -10.40226 -10.39098
 Alpha  occ. eigenvalues --  -10.37059 -10.35893 -10.35052 -10.34783 -10.34395
 Alpha  occ. eigenvalues --  -10.34313 -10.34302 -10.33704 -10.33287 -10.33226
 Alpha  occ. eigenvalues --  -10.33120 -10.32968 -10.32330 -10.32237 -10.32202
 Alpha  occ. eigenvalues --  -10.31882 -10.31843 -10.31738 -10.31388 -10.31287
 Alpha  occ. eigenvalues --  -10.31262 -10.31169 -10.31048 -10.31006 -10.31006
 Alpha  occ. eigenvalues --  -10.30947 -10.30885 -10.30542 -10.30458 -10.30263
 Alpha  occ. eigenvalues --  -10.29896 -10.29889 -10.29767 -10.29695 -10.29626
 Alpha  occ. eigenvalues --  -10.29613 -10.29571 -10.29520 -10.29442 -10.29419
 Alpha  occ. eigenvalues --  -10.29355 -10.29274 -10.29114 -10.29086 -10.29048
 Alpha  occ. eigenvalues --  -10.28895 -10.28875 -10.28665 -10.28483 -10.28411
 Alpha  occ. eigenvalues --  -10.28162  -3.20118  -1.93698  -1.93241  -1.93107
 Alpha  occ. eigenvalues --   -1.20820  -1.17505  -1.13751  -1.12174  -1.11094
 Alpha  occ. eigenvalues --   -1.09554  -1.04701  -1.04014  -1.03475  -1.02714
 Alpha  occ. eigenvalues --   -0.93099  -0.92995  -0.92282  -0.91243  -0.91069
 Alpha  occ. eigenvalues --   -0.90192  -0.89892  -0.89725  -0.88974  -0.88493
 Alpha  occ. eigenvalues --   -0.87371  -0.86810  -0.86320  -0.85178  -0.84644
 Alpha  occ. eigenvalues --   -0.84409  -0.83597  -0.83544  -0.82653  -0.82469
 Alpha  occ. eigenvalues --   -0.81686  -0.80012  -0.79635  -0.78916  -0.78361
 Alpha  occ. eigenvalues --   -0.77740  -0.77693  -0.77126  -0.76343  -0.76317
 Alpha  occ. eigenvalues --   -0.75466  -0.74174  -0.72985  -0.72225  -0.71712
 Alpha  occ. eigenvalues --   -0.70309  -0.69801  -0.69212  -0.68988  -0.67751
 Alpha  occ. eigenvalues --   -0.67135  -0.66296  -0.65998  -0.65968  -0.65789
 Alpha  occ. eigenvalues --   -0.65580  -0.65407  -0.64681  -0.63380  -0.62675
 Alpha  occ. eigenvalues --   -0.61891  -0.61247  -0.60564  -0.59633  -0.59214
 Alpha  occ. eigenvalues --   -0.59005  -0.58610  -0.58511  -0.57418  -0.57210
 Alpha  occ. eigenvalues --   -0.57062  -0.56837  -0.56611  -0.56404  -0.56197
 Alpha  occ. eigenvalues --   -0.55749  -0.55416  -0.55174  -0.54979  -0.54858
 Alpha  occ. eigenvalues --   -0.54525  -0.54438  -0.54365  -0.54083  -0.53975
 Alpha  occ. eigenvalues --   -0.53959  -0.53772  -0.53209  -0.53096  -0.52562
 Alpha  occ. eigenvalues --   -0.52448  -0.52228  -0.52178  -0.51900  -0.51712
 Alpha  occ. eigenvalues --   -0.51368  -0.51184  -0.51038  -0.50686  -0.50658
 Alpha  occ. eigenvalues --   -0.50417  -0.50193  -0.50079  -0.49731  -0.49652
 Alpha  occ. eigenvalues --   -0.49376  -0.49037  -0.48963  -0.48777  -0.48428
 Alpha  occ. eigenvalues --   -0.47953  -0.47837  -0.47768  -0.47616  -0.47562
 Alpha  occ. eigenvalues --   -0.47391  -0.47272  -0.47110  -0.46904  -0.46779
 Alpha  occ. eigenvalues --   -0.46565  -0.46491  -0.46188  -0.46121  -0.45877
 Alpha  occ. eigenvalues --   -0.45834  -0.45706  -0.45419  -0.45301  -0.45058
 Alpha  occ. eigenvalues --   -0.44731  -0.44589  -0.44513  -0.44364  -0.44243
 Alpha  occ. eigenvalues --   -0.44003  -0.43760  -0.43513  -0.43186  -0.43073
 Alpha  occ. eigenvalues --   -0.42752  -0.42658  -0.42473  -0.41985  -0.41797
 Alpha  occ. eigenvalues --   -0.41701  -0.41652  -0.41102  -0.41055  -0.40678
 Alpha  occ. eigenvalues --   -0.40663  -0.40560  -0.40368  -0.40125  -0.39988
 Alpha  occ. eigenvalues --   -0.39786  -0.39132  -0.38593  -0.38515  -0.38464
 Alpha  occ. eigenvalues --   -0.38290  -0.38212  -0.38009  -0.36595  -0.36319
 Alpha  occ. eigenvalues --   -0.36089  -0.35753  -0.34599  -0.33587  -0.33265
 Alpha  occ. eigenvalues --   -0.32798  -0.32372  -0.32122  -0.31032  -0.25490
 Alpha  occ. eigenvalues --   -0.22279
 Alpha virt. eigenvalues --   -0.06585   0.00474   0.02803   0.04741   0.05936
 Alpha virt. eigenvalues --    0.06538   0.07282   0.08024   0.08611   0.10069
 Alpha virt. eigenvalues --    0.10179   0.10880   0.11038   0.11509   0.12045

 Mulliken charges:
               1
     1  Mg   0.984601
     2  C   -0.097913
     3  C   -0.084299
     4  C   -0.073099
     5  C   -0.079742
     6  N   -0.333468
     7  C   -0.019678
     8  C   -0.011802
     9  C   -0.098802
    10  C    0.050013
    11  C    0.034672
    12  C    0.037194
    13  C   -0.028835
    14  C    0.182407
    15  O   -0.258506
    16  O   -0.322793
    17  N   -0.514473
    18  C    0.196388
    19  C   -0.185928
    20  C   -0.058570
    21  C    0.169056
    22  C    0.055063
    23  C    0.080939
    24  O   -0.231229
    25  C   -0.041602
    26  N   -0.408245
    27  C    0.070946
    28  C   -0.111959
    29  C   -0.075674
    30  C    0.031859
    31  C    0.000035
    32  C   -0.001670
    33  C   -0.051312
    34  N   -0.464328
    35  C    0.171246
    36  C   -0.176649
    37  C   -0.057149
    38  C    0.182660
    39  C    0.067805
    40  C    0.136614
    41  O   -0.162270
    42  C   -0.097287
    43  C    0.287357
    44  O   -0.231370
    45  O   -0.389455
    46  C    0.125888
    47  C    0.234945
    48  C   -0.147743
    49  C   -0.207978
    50  C    0.017247
    51  C    0.044322
    52  C   -0.036117
    53  C    0.028460
    54  C   -0.170875
    55  C    0.002091
    56  C    0.002028
    57  C   -0.039840
    58  C    0.005942
    59  C   -0.202721
    60  C    0.014095
    61  C    0.012796
    62  C   -0.027081
    63  C   -0.017214
    64  C   -0.208839
    65  C   -0.003812
    66  C    0.014073
    67  H   -0.008088
    68  H    0.022362
    69  H   -0.011808
    70  H    0.026471
    71  H    0.035578
    72  H    0.040283
    73  H    0.021040
    74  H    0.046241
    75  H    0.040818
    76  H    0.031914
    77  H    0.068467
    78  H    0.038624
    79  H    0.038591
    80  H    0.055378
    81  H    0.056963
    82  H    0.037848
    83  H    0.080745
    84  H    0.059536
    85  H    0.048082
    86  H    0.039370
    87  H    0.037979
    88  H    0.058993
    89  H    0.022140
    90  H    0.034948
    91  H    0.032414
    92  H    0.034953
    93  H    0.046451
    94  H    0.061824
    95  H    0.046806
    96  H    0.024966
    97  H    0.048232
    98  H    0.078172
    99  H    0.061557
   100  H    0.062830
   101  H    0.068082
   102  H    0.050700
   103  H    0.061427
   104  H    0.033424
   105  H    0.068620
   106  H    0.045596
   107  H    0.046112
   108  H    0.029939
   109  H    0.021686
   110  H    0.027503
   111  H    0.020860
   112  H    0.011078
   113  H    0.013825
   114  H    0.000424
   115  H    0.028184
   116  H    0.022256
   117  H    0.029866
   118  H    0.019437
   119  H    0.017487
   120  H    0.014255
   121  H    0.030835
   122  H    0.016342
   123  H    0.018579
   124  H    0.012845
   125  H    0.030493
   126  H    0.029712
   127  H    0.019968
   128  H    0.022310
   129  H    0.017615
   130  H    0.020767
   131  H    0.012340
   132  H    0.018799
   133  H    0.012873
   134  H    0.021342
   135  H    0.019615
   136  H    0.014692
   137  H    0.032273
   138  H    0.026866
   139  H    0.028541
   140  H    0.031338
 Sum of Mulliken charges =  -0.00000

 Dipole moment (field-independent basis, Debye):
    X=              6.5488    Y=              2.1950    Z=             -1.2124  Tot=              7.0125
 Quadrupole moment (field-independent basis, Debye-Ang):
   XX=           -364.6790   YY=           -416.9907   ZZ=           -410.9465
   XY=            -22.2757   XZ=             10.8659   YZ=              1.7243

 Normal termination of Gaussian 16 at Tue May  3 22:57:37 2022.
