 Gaussian 16, Revision A.03,
 Gaussian 16:  ES64L-G16RevA.03 25-Dec-2016

 --------------------
 #p ZINDO=(nstates=5)
 --------------------

 ------------------------------
 step_1051_chromophore_12 ZINDO
 ------------------------------
 Symbolic Z-matrix:
 Charge =  0 Multiplicity = 1

                         Standard orientation:
 ---------------------------------------------------------------------
 Center     Atomic      Atomic             Coordinates (Angstroms)
 Number     Number       Type             X           Y           Z
 ---------------------------------------------------------------------
      1         12           0       -4.133140    0.453610   -0.579427
      2          6           0       -3.330721   -2.898527    0.577808
      3          6           0       -0.818708    1.088083   -0.145306
      4          6           0       -4.865632    3.714122   -1.060197
      5          6           0       -7.522796   -0.290549   -0.157100
      6          7           0       -2.303960   -0.804563    0.176257
      7          6           0       -2.155656   -2.159469    0.379285
      8          6           0       -0.699695   -2.648267    0.335447
      9          6           0        0.071798   -1.271353    0.392550
     10          6           0       -1.046633   -0.225633    0.112393
     11          6           0        0.789167   -0.991572    1.705477
     12          6           0       -0.403477   -3.552798   -0.865639
     13          6           0        0.840693   -4.464612   -0.711945
     14          6           0        2.107293   -4.223394   -1.656972
     15          8           0        1.986248   -3.998489   -2.828958
     16          8           0        3.226413   -4.359147   -1.001192
     17          7           0       -3.011891    2.091855   -0.860653
     18          6           0       -1.698420    2.166214   -0.539303
     19          6           0       -1.194836    3.569400   -0.681329
     20          6           0       -2.342760    4.411781   -0.913595
     21          6           0       -3.494958    3.455001   -0.974013
     22          6           0        0.265988    3.962825   -0.555769
     23          6           0       -2.426402    5.935358   -0.924026
     24          8           0       -3.554121    6.405362   -1.083161
     25          6           0       -1.125361    6.767462   -0.875671
     26          7           0       -5.930249    1.509331   -0.639014
     27          6           0       -5.970967    2.883199   -0.927807
     28          6           0       -7.406142    3.290393   -1.124896
     29          6           0       -8.286580    2.093572   -0.616362
     30          6           0       -7.181735    1.001733   -0.456593
     31          6           0       -7.702417    4.667232   -0.465004
     32          6           0       -9.563770    1.780841   -1.473123
     33          6           0       -9.356681    0.663059   -2.602334
     34          7           0       -5.258566   -1.213012   -0.091408
     35          6           0       -6.600389   -1.337112    0.144796
     36          6           0       -6.906171   -2.657393    0.672922
     37          6           0       -5.654906   -3.347500    0.739752
     38          6           0       -4.669964   -2.400769    0.419152
     39          6           0       -8.316295   -3.116447    0.971861
     40          6           0       -4.981242   -4.630197    1.080852
     41          8           0       -5.378672   -5.683920    1.458521
     42          6           0       -3.390293   -4.419845    0.922326
     43          6           0       -2.666535   -4.678742    2.260419
     44          8           0       -2.645394   -3.933553    3.214705
     45          8           0       -1.899589   -5.818104    2.138901
     46          6           0       -0.721871   -5.971622    3.057383
     47          6           0        4.447154   -4.377434   -1.912701
     48          6           0        5.769686   -4.291101   -1.184321
     49          6           0        6.950516   -3.681393   -1.550890
     50          6           0        7.229376   -2.879416   -2.861844
     51          6           0        8.061862   -3.616577   -0.492817
     52          6           0        8.423971   -2.233552   -0.006953
     53          6           0        9.817497   -1.777319   -0.325856
     54          6           0       10.024850   -0.632461   -1.354813
     55          6           0       11.195149   -0.888761   -2.301406
     56          6           0       10.081484    0.863229   -0.792388
     57          6           0        8.714244    1.690873   -0.706492
     58          6           0        8.195258    2.031595    0.714131
     59          6           0        7.724824    3.474896    0.883545
     60          6           0        8.910778    4.407183    0.779155
     61          6           0        6.974073    3.658530    2.241551
     62          6           0        5.435861    3.251897    2.258084
     63          6           0        4.550966    4.233422    3.041696
     64          6           0        3.369647    4.745252    2.255759
     65          6           0        3.849761    5.877745    1.315694
     66          6           0        2.380327    5.382679    3.217935
     67          1           0        0.252965    1.281493   -0.231066
     68          1           0       -5.215810    4.719735   -1.302600
     69          1           0       -8.594212   -0.396621    0.023100
     70          1           0       -0.570959   -3.176309    1.280692
     71          1           0        0.812196   -1.325212   -0.406453
     72          1           0        0.355847   -1.492665    2.570624
     73          1           0        0.556589    0.021891    2.033554
     74          1           0        1.875450   -1.057182    1.653735
     75          1           0       -0.152095   -2.986963   -1.762284
     76          1           0       -1.256437   -4.168614   -1.149784
     77          1           0        0.483869   -5.484083   -0.858754
     78          1           0        1.190865   -4.358605    0.315208
     79          1           0        0.604027    4.964930   -0.820716
     80          1           0        0.893666    3.219683   -1.046707
     81          1           0        0.438088    3.886384    0.517831
     82          1           0       -1.275336    7.847407   -0.866098
     83          1           0       -0.452902    6.671588   -1.727713
     84          1           0       -0.634442    6.693170    0.094301
     85          1           0       -7.552131    3.499222   -2.184510
     86          1           0       -8.614375    2.290360    0.404919
     87          1           0       -7.819352    5.444704   -1.219025
     88          1           0       -7.025276    5.041677    0.302770
     89          1           0       -8.685690    4.488098   -0.029738
     90          1           0       -9.816361    2.808924   -1.729306
     91          1           0      -10.238206    1.471404   -0.675426
     92          1           0       -9.665810    1.096061   -3.553128
     93          1           0       -9.972226   -0.230242   -2.499875
     94          1           0       -8.305126    0.403925   -2.724640
     95          1           0       -8.624463   -4.091786    0.595734
     96          1           0       -9.114169   -2.443792    0.655474
     97          1           0       -8.423826   -3.252728    2.047568
     98          1           0       -3.010544   -4.981418    0.069432
     99          1           0        0.140883   -5.486825    2.601288
    100          1           0       -0.632699   -7.051393    3.181137
    101          1           0       -0.946217   -5.591734    4.054243
    102          1           0        4.410718   -3.547521   -2.618837
    103          1           0        4.390172   -5.269746   -2.535543
    104          1           0        5.730976   -4.859872   -0.254948
    105          1           0        7.012718   -1.841726   -2.606628
    106          1           0        6.636365   -3.189586   -3.722420
    107          1           0        8.252428   -3.047057   -3.197835
    108          1           0        8.905603   -4.133528   -0.949052
    109          1           0        7.760761   -4.215341    0.366617
    110          1           0        8.298172   -2.230943    1.075438
    111          1           0        7.754439   -1.460380   -0.384288
    112          1           0       10.401278   -2.653122   -0.609229
    113          1           0       10.133727   -1.418316    0.652997
    114          1           0        9.135665   -0.710380   -1.979424
    115          1           0       10.930466   -0.711454   -3.343840
    116          1           0       11.513946   -1.922160   -2.168991
    117          1           0       12.008904   -0.181062   -2.144864
    118          1           0       10.711435    1.496160   -1.417277
    119          1           0       10.572837    0.884068    0.180913
    120          1           0        7.956416    1.017153   -1.107783
    121          1           0        8.786658    2.528657   -1.400349
    122          1           0        8.976651    1.872462    1.456694
    123          1           0        7.353125    1.376803    0.936765
    124          1           0        7.077944    3.762779    0.054386
    125          1           0        9.165688    4.828504    1.751495
    126          1           0        8.689616    5.179496    0.043191
    127          1           0        9.753846    3.826671    0.401884
    128          1           0        7.096334    4.668439    2.631511
    129          1           0        7.396775    2.920790    2.923933
    130          1           0        5.290757    2.274476    2.717987
    131          1           0        5.038757    3.163965    1.247411
    132          1           0        5.152803    5.046546    3.447240
    133          1           0        4.280496    3.553259    3.849546
    134          1           0        2.835516    3.920034    1.785665
    135          1           0        4.316076    5.563330    0.382054
    136          1           0        4.747652    6.302951    1.764832
    137          1           0        3.125383    6.652119    1.062280
    138          1           0        2.072614    4.566729    3.871264
    139          1           0        1.603048    5.703749    2.525010
    140          1           0        2.887458    6.160229    3.789694
 ---------------------------------------------------------------------

 SCF Done:  E(RZINDO/S) =  -473.926774039     A.U. after   19 cycles

 Excitation energies and oscillator strengths:

 Excited State   1:      Singlet-A      1.2018 eV 1031.63 nm  f=0.6149  <S**2>=0.000
     175 ->178         0.18061
     176 ->177         0.66271
 This state for optimization and/or second-order correction.
 Total Energy, E(CIS/TDA) =  -473.882607871
 Copying the excited state density for this state as the 1-particle RhoCI density.

 Excited State   2:      Singlet-A      1.9005 eV  652.36 nm  f=0.0415  <S**2>=0.000
     175 ->177         0.54127
     176 ->178        -0.42215

 Excited State   3:      Singlet-A      2.8912 eV  428.84 nm  f=0.5803  <S**2>=0.000
     175 ->177         0.30847
     176 ->178         0.48328
     176 ->179         0.35740

 Excited State   4:      Singlet-A      3.0049 eV  412.60 nm  f=0.0094  <S**2>=0.000
     168 ->177        -0.27021
     168 ->178         0.27198
     168 ->179         0.41645
     168 ->180        -0.25107
     168 ->186         0.21615
     168 ->187         0.11651

 Excited State   5:      Singlet-A      3.0269 eV  409.61 nm  f=0.5263  <S**2>=0.000
     175 ->177        -0.25082
     176 ->178        -0.23491
     176 ->179         0.53900
     176 ->180         0.10238

 The electronic state is 1-A.
 Alpha  occ. eigenvalues --   -1.80736  -1.78514  -1.77099  -1.74496  -1.69848
 Alpha  occ. eigenvalues --   -1.68180  -1.65776  -1.62754  -1.58461  -1.58156
 Alpha  occ. eigenvalues --   -1.57145  -1.50545  -1.48156  -1.48076  -1.45604
 Alpha  occ. eigenvalues --   -1.43833  -1.43426  -1.40274  -1.38525  -1.38031
 Alpha  occ. eigenvalues --   -1.35534  -1.34200  -1.31581  -1.31398  -1.28714
 Alpha  occ. eigenvalues --   -1.26472  -1.24802  -1.22278  -1.21317  -1.17498
 Alpha  occ. eigenvalues --   -1.16567  -1.15770  -1.15549  -1.14352  -1.14304
 Alpha  occ. eigenvalues --   -1.11998  -1.10549  -1.10191  -1.04599  -1.03713
 Alpha  occ. eigenvalues --   -1.02269  -1.00682  -0.98601  -0.97719  -0.96753
 Alpha  occ. eigenvalues --   -0.95219  -0.93910  -0.93344  -0.92496  -0.92462
 Alpha  occ. eigenvalues --   -0.91464  -0.90019  -0.89441  -0.88213  -0.87021
 Alpha  occ. eigenvalues --   -0.84859  -0.83737  -0.83323  -0.81483  -0.80544
 Alpha  occ. eigenvalues --   -0.80213  -0.78262  -0.78183  -0.76854  -0.76139
 Alpha  occ. eigenvalues --   -0.75310  -0.74964  -0.74605  -0.74248  -0.73299
 Alpha  occ. eigenvalues --   -0.73222  -0.72753  -0.71740  -0.71420  -0.70745
 Alpha  occ. eigenvalues --   -0.70552  -0.70158  -0.69310  -0.68467  -0.68053
 Alpha  occ. eigenvalues --   -0.67470  -0.67238  -0.66687  -0.66100  -0.65505
 Alpha  occ. eigenvalues --   -0.65257  -0.64943  -0.64727  -0.63815  -0.63544
 Alpha  occ. eigenvalues --   -0.63126  -0.62737  -0.62525  -0.62260  -0.61648
 Alpha  occ. eigenvalues --   -0.61225  -0.60734  -0.60687  -0.60515  -0.60122
 Alpha  occ. eigenvalues --   -0.59599  -0.59016  -0.58731  -0.58371  -0.58109
 Alpha  occ. eigenvalues --   -0.57789  -0.57611  -0.57287  -0.56776  -0.56263
 Alpha  occ. eigenvalues --   -0.55743  -0.55486  -0.55283  -0.54958  -0.54442
 Alpha  occ. eigenvalues --   -0.53969  -0.53891  -0.53444  -0.52936  -0.52823
 Alpha  occ. eigenvalues --   -0.52307  -0.51952  -0.51641  -0.51371  -0.51283
 Alpha  occ. eigenvalues --   -0.51077  -0.51066  -0.50969  -0.50728  -0.50327
 Alpha  occ. eigenvalues --   -0.50089  -0.49858  -0.49567  -0.49131  -0.49021
 Alpha  occ. eigenvalues --   -0.48843  -0.48633  -0.48401  -0.48038  -0.47938
 Alpha  occ. eigenvalues --   -0.47667  -0.47595  -0.47156  -0.46711  -0.46580
 Alpha  occ. eigenvalues --   -0.46483  -0.46135  -0.46093  -0.45879  -0.45717
 Alpha  occ. eigenvalues --   -0.45522  -0.45466  -0.44884  -0.44683  -0.44245
 Alpha  occ. eigenvalues --   -0.43757  -0.43742  -0.43029  -0.42901  -0.42748
 Alpha  occ. eigenvalues --   -0.42496  -0.42433  -0.41870  -0.38762  -0.38606
 Alpha  occ. eigenvalues --   -0.38285  -0.37604  -0.36110  -0.34856  -0.34273
 Alpha  occ. eigenvalues --   -0.32970  -0.32611  -0.32533  -0.31656  -0.26329
 Alpha  occ. eigenvalues --   -0.21256
 Alpha virt. eigenvalues --   -0.08358  -0.01866  -0.00266   0.01581   0.02549
 Alpha virt. eigenvalues --    0.02669   0.02954   0.03171   0.03758   0.05024
 Alpha virt. eigenvalues --    0.06442   0.06683   0.07188   0.08006   0.08068

 Mulliken charges:
               1
     1  Mg   0.429363
     2  C   -0.043873
     3  C   -0.085819
     4  C   -0.051191
     5  C   -0.073005
     6  N   -0.305006
     7  C    0.119933
     8  C    0.008925
     9  C    0.010955
    10  C    0.140880
    11  C   -0.053191
    12  C   -0.019265
    13  C   -0.008427
    14  C    0.471836
    15  O   -0.523704
    16  O   -0.250220
    17  N   -0.314240
    18  C    0.131991
    19  C    0.009299
    20  C   -0.051797
    21  C    0.129007
    22  C   -0.043981
    23  C    0.335710
    24  O   -0.511590
    25  C   -0.033533
    26  N   -0.283267
    27  C    0.142193
    28  C    0.007785
    29  C   -0.009190
    30  C    0.123104
    31  C   -0.057586
    32  C   -0.037152
    33  C   -0.053070
    34  N   -0.331234
    35  C    0.106448
    36  C    0.015386
    37  C   -0.049752
    38  C    0.102080
    39  C   -0.040463
    40  C    0.338375
    41  O   -0.495556
    42  C    0.040816
    43  C    0.490987
    44  O   -0.510043
    45  O   -0.284958
    46  C    0.073759
    47  C    0.102638
    48  C   -0.094342
    49  C   -0.011319
    50  C   -0.042378
    51  C   -0.015096
    52  C   -0.022396
    53  C   -0.032232
    54  C   -0.010136
    55  C   -0.057080
    56  C   -0.041582
    57  C   -0.044234
    58  C   -0.024354
    59  C   -0.009594
    60  C   -0.057723
    61  C   -0.042520
    62  C   -0.047755
    63  C   -0.034166
    64  C   -0.005162
    65  C   -0.060571
    66  C   -0.062197
    67  H    0.018234
    68  H    0.042304
    69  H    0.028997
    70  H    0.035716
    71  H    0.029551
    72  H    0.029295
    73  H    0.013771
    74  H    0.024704
    75  H    0.032288
    76  H    0.026937
    77  H    0.043708
    78  H    0.025550
    79  H    0.032825
    80  H    0.029937
    81  H    0.029082
    82  H    0.024338
    83  H    0.045975
    84  H    0.037486
    85  H    0.035930
    86  H    0.029795
    87  H    0.020564
    88  H    0.034483
    89  H    0.010919
    90  H    0.032952
    91  H    0.020795
    92  H    0.011739
    93  H    0.029367
    94  H    0.032343
    95  H    0.029880
    96  H    0.019937
    97  H    0.029229
    98  H    0.060474
    99  H    0.042534
   100  H    0.036740
   101  H    0.052719
   102  H    0.047368
   103  H    0.050544
   104  H    0.028906
   105  H    0.036916
   106  H    0.023784
   107  H    0.026903
   108  H    0.023522
   109  H    0.017937
   110  H    0.014635
   111  H    0.020711
   112  H    0.022728
   113  H    0.013226
   114  H    0.015194
   115  H    0.015546
   116  H    0.020369
   117  H    0.019134
   118  H    0.015421
   119  H    0.019760
   120  H    0.010732
   121  H    0.026679
   122  H    0.021463
   123  H    0.012652
   124  H    0.017929
   125  H    0.021648
   126  H    0.016483
   127  H    0.016694
   128  H    0.025560
   129  H    0.017007
   130  H    0.015538
   131  H    0.014774
   132  H    0.025086
   133  H    0.010995
   134  H    0.024646
   135  H    0.009062
   136  H    0.018144
   137  H    0.021499
   138  H    0.015893
   139  H    0.020539
   140  H    0.027752
 Sum of Mulliken charges =  -0.00000

 Dipole moment (field-independent basis, Debye):
    X=              8.1281    Y=              3.2382    Z=             -0.8743  Tot=              8.7930
 N-N= 4.509480585777D+03 E-N= 0.000000000000D+00  KE=-9.692887727299D+03
 Leave Link  601 at Tue May  3 23:13:08 2022, MaxMem=  6710886400 cpu:               3.1 elap:               0.2
 (Enter /sw/apps/gaussian-16.0/g16/l9999.exe)
 1\1\GINC-BP1-COMPUTE212\SP\RZINDO CIS\STO-3G\C55H74Mg1N4O6\OF15641\03-
 May-2022\0\\#p ZINDO=(nstates=5)\\step_1051_chromophore_12 ZINDO\\0,1\
 Mg,0,46.982,15.677,28.394\C,0,44.764,15.269,31.246\C,0,48.548,18.013,3
 0.309\C,0,48.703,16.551,25.624\C,0,44.714,13.849,26.461\N,0,46.631,16.
 543,30.545\C,0,45.841,16.101,31.584\C,0,46.291,16.588,32.97\C,0,47.335
 ,17.701,32.563\C,0,47.566,17.434,31.047\C,0,46.882,19.131,32.821\C,0,4
 6.806,15.458,33.868\C,0,46.794,15.767,35.387\C,0,48.182,15.88,36.172\O

 Normal termination of Gaussian 16 at Tue May  3 23:13:09 2022.
