 Gaussian 16, Revision A.03,
 Gaussian 16:  ES64L-G16RevA.03 25-Dec-2016

 ------------------------------
 #p blyp/Def2SVP td=(nstates=5)
 ------------------------------

 --------------------------------------------------
 step_1751_chromophore_7 TDDFT with blyp functional
 --------------------------------------------------
 Symbolic Z-matrix:
 Charge =  0 Multiplicity = 1

                         Standard orientation:
 ---------------------------------------------------------------------
 Center     Atomic      Atomic             Coordinates (Angstroms)
 Number     Number       Type             X           Y           Z
 ---------------------------------------------------------------------
      1         12           0        5.668003    0.572590    0.325918
      2          6           0        3.582941   -2.338600    0.166539
      3          6           0        3.119253    2.589779   -0.468453
      4          6           0        7.871348    3.324756    0.140600
      5          6           0        8.414143   -1.582903    0.180282
      6          7           0        3.594979    0.103005   -0.089029
      7          6           0        2.953244   -1.085869    0.074794
      8          6           0        1.432187   -0.825331   -0.077787
      9          6           0        1.357897    0.754744   -0.401796
     10          6           0        2.841777    1.224366   -0.402318
     11          6           0        0.721866    1.168618   -1.734207
     12          6           0        0.608091   -1.350323    1.178844
     13          6           0       -0.850893   -0.997695    1.277084
     14          6           0       -1.988054   -2.037852    1.295418
     15          8           0       -2.461385   -2.658189    2.266824
     16          8           0       -2.564992   -2.039509    0.030988
     17          7           0        5.441403    2.679911   -0.002454
     18          6           0        4.293996    3.307835   -0.309695
     19          6           0        4.524707    4.683585   -0.476891
     20          6           0        5.935888    4.881572   -0.319845
     21          6           0        6.493716    3.575646   -0.089687
     22          6           0        3.458981    5.699000   -0.804924
     23          6           0        6.705651    6.147203   -0.490464
     24          8           0        7.888287    6.182792   -0.217664
     25          6           0        6.051410    7.457074   -0.715154
     26          7           0        7.769000    0.786735    0.439030
     27          6           0        8.423237    2.024127    0.308126
     28          6           0        9.952276    1.828661    0.419153
     29          6           0       10.103132    0.283498    0.578392
     30          6           0        8.708751   -0.226149    0.469343
     31          6           0       10.682777    2.426153   -0.797757
     32          6           0       10.782555   -0.308054    1.798623
     33          6           0       11.588096   -1.612968    1.651068
     34          7           0        6.002945   -1.509190    0.215835
     35          6           0        7.152914   -2.234420    0.124318
     36          6           0        6.868431   -3.647138    0.208400
     37          6           0        5.500778   -3.776952    0.301879
     38          6           0        5.014118   -2.423807    0.142174
     39          6           0        7.913466   -4.797449   -0.050284
     40          6           0        4.366513   -4.655280    0.353632
     41          8           0        4.345080   -5.883503    0.361192
     42          6           0        3.071136   -3.780913    0.221883
     43          6           0        2.389230   -4.191149   -1.014274
     44          8           0        2.715403   -3.915693   -2.163151
     45          8           0        1.176858   -4.768936   -0.636820
     46          6           0        0.220102   -5.001425   -1.711176
     47          6           0       -3.751761   -2.896203   -0.172493
     48          6           0       -4.853557   -2.054703   -0.816297
     49          6           0       -6.148083   -2.092356   -0.703642
     50          6           0       -7.020179   -3.048145    0.139391
     51          6           0       -6.852292   -1.157029   -1.695418
     52          6           0       -8.258209   -0.650730   -1.338889
     53          6           0       -8.559805    0.727675   -1.971028
     54          6           0       -9.799105    0.735733   -2.975528
     55          6           0       -9.458623    1.548183   -4.152588
     56          6           0      -10.971525    1.381289   -2.243896
     57          6           0      -11.619063    0.324613   -1.379195
     58          6           0      -13.077406    0.599596   -1.324450
     59          6           0      -13.564108    0.521304    0.213830
     60          6           0      -14.982399   -0.039696    0.191159
     61          6           0      -13.457602    1.949213    0.835168
     62          6           0      -13.061003    2.092194    2.323537
     63          6           0      -11.550789    2.341506    2.439898
     64          6           0      -10.833462    1.311260    3.326730
     65          6           0      -10.988721    1.672202    4.832945
     66          6           0       -9.276590    1.236979    2.977646
     67          1           0        2.281940    3.220980   -0.772533
     68          1           0        8.625648    4.107573    0.037280
     69          1           0        9.167123   -2.363587    0.056347
     70          1           0        1.147536   -1.399477   -0.959749
     71          1           0        0.790881    1.351379    0.312478
     72          1           0       -0.037976    1.934404   -1.578054
     73          1           0        0.204954    0.355595   -2.244090
     74          1           0        1.442193    1.530335   -2.467103
     75          1           0        1.132716   -0.926646    2.035081
     76          1           0        0.662675   -2.437453    1.239685
     77          1           0       -1.061834   -0.200034    0.564571
     78          1           0       -1.005271   -0.542156    2.254840
     79          1           0        2.452620    5.303961   -0.943766
     80          1           0        3.791221    6.163615   -1.733095
     81          1           0        3.477305    6.462367   -0.025755
     82          1           0        5.436516    7.390811   -1.612050
     83          1           0        6.800464    8.249534   -0.728627
     84          1           0        5.422960    7.609446    0.162572
     85          1           0       10.206942    2.456430    1.272840
     86          1           0       10.632193   -0.028944   -0.321270
     87          1           0       10.309974    3.430036   -0.999109
     88          1           0       10.694728    1.759092   -1.660343
     89          1           0       11.705094    2.413203   -0.417105
     90          1           0        9.957834   -0.718992    2.380462
     91          1           0       11.360169    0.413228    2.377346
     92          1           0       11.595455   -1.892515    0.597046
     93          1           0       11.083313   -2.419711    2.182410
     94          1           0       12.588492   -1.548901    2.080851
     95          1           0        7.441400   -5.587362   -0.635591
     96          1           0        8.278172   -5.173797    0.905286
     97          1           0        8.764836   -4.329104   -0.541611
     98          1           0        2.357685   -4.047861    1.001772
     99          1           0        0.639590   -5.060111   -2.715179
    100          1           0       -0.536581   -4.227867   -1.583565
    101          1           0       -0.154147   -6.002243   -1.493899
    102          1           0       -4.275661   -3.273713    0.705346
    103          1           0       -3.420917   -3.614919   -0.921978
    104          1           0       -4.451418   -1.267646   -1.454371
    105          1           0       -6.415516   -3.904284    0.437402
    106          1           0       -7.768327   -3.431301   -0.554707
    107          1           0       -7.521508   -2.524258    0.953735
    108          1           0       -6.849965   -1.659625   -2.662387
    109          1           0       -6.201269   -0.284419   -1.732254
    110          1           0       -8.309453   -0.430045   -0.272609
    111          1           0       -8.982698   -1.420505   -1.602174
    112          1           0       -7.603195    1.005371   -2.415238
    113          1           0       -8.779398    1.392007   -1.135464
    114          1           0      -10.102374   -0.272691   -3.258605
    115          1           0      -10.139178    1.296661   -4.967121
    116          1           0       -8.454548    1.376598   -4.539574
    117          1           0       -9.761090    2.589622   -4.045719
    118          1           0      -11.630991    1.779031   -3.015313
    119          1           0      -10.617404    2.250824   -1.688890
    120          1           0      -11.081506    0.134356   -0.451081
    121          1           0      -11.539359   -0.636793   -1.887193
    122          1           0      -13.477185   -0.145752   -2.012249
    123          1           0      -13.270758    1.602274   -1.704818
    124          1           0      -12.881420   -0.135593    0.754119
    125          1           0      -14.932333   -0.809178    0.962454
    126          1           0      -15.240496   -0.481486   -0.771473
    127          1           0      -15.694601    0.749711    0.433470
    128          1           0      -14.437776    2.425242    0.795848
    129          1           0      -12.890377    2.628648    0.198571
    130          1           0      -13.243939    1.128972    2.800143
    131          1           0      -13.696139    2.769185    2.894276
    132          1           0      -11.390397    3.294319    2.944315
    133          1           0      -11.022625    2.495970    1.499344
    134          1           0      -11.224268    0.298395    3.224334
    135          1           0      -11.705936    1.055645    5.374235
    136          1           0      -11.492715    2.629616    4.969745
    137          1           0      -10.027036    1.707068    5.344495
    138          1           0       -8.661958    1.842599    3.643122
    139          1           0       -9.104841    1.723076    2.017587
    140          1           0       -8.912870    0.210443    2.930351
 ---------------------------------------------------------------------

 SCF Done:  E(RB-LYP) =  -3007.35711487     A.U. after   21 cycles

 Excitation energies and oscillator strengths:

 Excited State   1:      Singlet-A      1.7732 eV  699.22 nm  f=0.1722  <S**2>=0.000
     244 -> 247        0.45326
     245 -> 248        0.14554
     246 -> 247        0.53060
     246 <- 247       -0.11686
 This state for optimization and/or second-order correction.
 Total Energy, E(TD-HF/TD-DFT) =  -3007.29195174
 Copying the excited state density for this state as the 1-particle RhoCI density.

 Excited State   2:      Singlet-A      1.8151 eV  683.07 nm  f=0.1420  <S**2>=0.000
     244 -> 247        0.53899
     245 -> 248       -0.13489
     246 -> 247       -0.44558
     246 <- 247        0.10308

 Excited State   3:      Singlet-A      1.9851 eV  624.57 nm  f=0.0218  <S**2>=0.000
     243 -> 247        0.60654
     245 -> 247       -0.33411
     246 -> 248        0.11595

 Excited State   4:      Singlet-A      2.0168 eV  614.77 nm  f=0.0537  <S**2>=0.000
     243 -> 247        0.35892
     245 -> 247        0.55260
     246 -> 248       -0.23454

 Excited State   5:      Singlet-A      2.4781 eV  500.31 nm  f=0.0061  <S**2>=0.000
     241 -> 247       -0.24822
     242 -> 247        0.64870

 The electronic state is 1-A.
 Alpha  occ. eigenvalues --  -46.27120 -18.82351 -18.81940 -18.77182 -18.76896
 Alpha  occ. eigenvalues --  -18.75811 -18.74963 -14.03535 -14.03428 -14.00886
 Alpha  occ. eigenvalues --  -14.00783 -10.04700 -10.03814  -9.99816  -9.99198
 Alpha  occ. eigenvalues --   -9.97903  -9.97398  -9.97147  -9.97018  -9.96971
 Alpha  occ. eigenvalues --   -9.96445  -9.95625  -9.95399  -9.94850  -9.94809
 Alpha  occ. eigenvalues --   -9.94533  -9.94260  -9.94146  -9.94105  -9.93815
 Alpha  occ. eigenvalues --   -9.93769  -9.93680  -9.93627  -9.93523  -9.93488
 Alpha  occ. eigenvalues --   -9.93406  -9.93051  -9.93013  -9.92810  -9.92711
 Alpha  occ. eigenvalues --   -9.92509  -9.92441  -9.92402  -9.92390  -9.92188
 Alpha  occ. eigenvalues --   -9.92112  -9.92024  -9.91999  -9.91934  -9.91933
 Alpha  occ. eigenvalues --   -9.91743  -9.91347  -9.91246  -9.91217  -9.91140
 Alpha  occ. eigenvalues --   -9.91066  -9.91060  -9.91051  -9.90897  -9.90841
 Alpha  occ. eigenvalues --   -9.90688  -9.90623  -9.90578  -9.90424  -9.90268
 Alpha  occ. eigenvalues --   -9.90259  -2.91676  -1.72121  -1.71504  -1.71424
 Alpha  occ. eigenvalues --   -0.97155  -0.96805  -0.92060  -0.91190  -0.89757
 Alpha  occ. eigenvalues --   -0.89033  -0.86665  -0.85981  -0.84940  -0.84524
 Alpha  occ. eigenvalues --   -0.75422  -0.74255  -0.73466  -0.72679  -0.72434
 Alpha  occ. eigenvalues --   -0.72249  -0.72010  -0.71141  -0.70787  -0.70629
 Alpha  occ. eigenvalues --   -0.69853  -0.69156  -0.68388  -0.67983  -0.67428
 Alpha  occ. eigenvalues --   -0.66836  -0.66012  -0.65495  -0.65097  -0.64899
 Alpha  occ. eigenvalues --   -0.64557  -0.62748  -0.62389  -0.62042  -0.61296
 Alpha  occ. eigenvalues --   -0.60838  -0.59948  -0.59811  -0.59201  -0.59008
 Alpha  occ. eigenvalues --   -0.58038  -0.57612  -0.56939  -0.55668  -0.54516
 Alpha  occ. eigenvalues --   -0.54302  -0.53583  -0.52921  -0.51917  -0.51435
 Alpha  occ. eigenvalues --   -0.51377  -0.51050  -0.50631  -0.50529  -0.49922
 Alpha  occ. eigenvalues --   -0.49722  -0.49251  -0.49054  -0.48323  -0.46641
 Alpha  occ. eigenvalues --   -0.46114  -0.45764  -0.45502  -0.45177  -0.44663
 Alpha  occ. eigenvalues --   -0.44170  -0.43888  -0.42837  -0.42693  -0.42100
 Alpha  occ. eigenvalues --   -0.41937  -0.41877  -0.41661  -0.41387  -0.41344
 Alpha  occ. eigenvalues --   -0.41077  -0.41007  -0.40627  -0.40459  -0.40415
 Alpha  occ. eigenvalues --   -0.40168  -0.39819  -0.39512  -0.39250  -0.39236
 Alpha  occ. eigenvalues --   -0.39122  -0.38815  -0.38484  -0.38310  -0.38240
 Alpha  occ. eigenvalues --   -0.38148  -0.37936  -0.37747  -0.37465  -0.37255
 Alpha  occ. eigenvalues --   -0.37048  -0.36956  -0.36918  -0.36785  -0.36742
 Alpha  occ. eigenvalues --   -0.36611  -0.36416  -0.36174  -0.35984  -0.35931
 Alpha  occ. eigenvalues --   -0.35679  -0.35537  -0.35377  -0.35325  -0.34880
 Alpha  occ. eigenvalues --   -0.34715  -0.34573  -0.34433  -0.34198  -0.34169
 Alpha  occ. eigenvalues --   -0.33681  -0.33584  -0.33350  -0.33151  -0.33034
 Alpha  occ. eigenvalues --   -0.32948  -0.32800  -0.32625  -0.32439  -0.32428
 Alpha  occ. eigenvalues --   -0.32233  -0.32003  -0.31805  -0.31432  -0.31369
 Alpha  occ. eigenvalues --   -0.31257  -0.31100  -0.30968  -0.30958  -0.30813
 Alpha  occ. eigenvalues --   -0.30559  -0.30228  -0.30171  -0.29990  -0.29771
 Alpha  occ. eigenvalues --   -0.29396  -0.29339  -0.29216  -0.28945  -0.28634
 Alpha  occ. eigenvalues --   -0.28580  -0.28465  -0.28365  -0.28261  -0.27989
 Alpha  occ. eigenvalues --   -0.27544  -0.27491  -0.27312  -0.27120  -0.26499
 Alpha  occ. eigenvalues --   -0.26450  -0.26333  -0.25633  -0.25234  -0.25107
 Alpha  occ. eigenvalues --   -0.24863  -0.24699  -0.24292  -0.23827  -0.23059
 Alpha  occ. eigenvalues --   -0.22400  -0.22389  -0.22102  -0.21854  -0.21056
 Alpha  occ. eigenvalues --   -0.20899  -0.20286  -0.18946  -0.18309  -0.17478
 Alpha  occ. eigenvalues --   -0.15942
 Alpha virt. eigenvalues --   -0.11778  -0.06970  -0.06367  -0.04700  -0.03781
 Alpha virt. eigenvalues --   -0.03085  -0.02253  -0.01440  -0.01161   0.00133
 Alpha virt. eigenvalues --    0.01038   0.01104   0.01696   0.02467   0.02660

 Mulliken charges:
               1
     1  Mg   0.687633
     2  C    0.042574
     3  C   -0.066286
     4  C   -0.066577
     5  C   -0.043710
     6  N   -0.239009
     7  C   -0.079274
     8  C    0.059916
     9  C   -0.058992
    10  C    0.078048
    11  C    0.109051
    12  C    0.110057
    13  C    0.142354
    14  C    0.088032
    15  O   -0.199212
    16  O   -0.291277
    17  N   -0.270110
    18  C    0.133737
    19  C   -0.147757
    20  C    0.038681
    21  C    0.105274
    22  C    0.195424
    23  C   -0.108516
    24  O   -0.170172
    25  C    0.161827
    26  N   -0.254434
    27  C    0.028199
    28  C   -0.011805
    29  C    0.083706
    30  C    0.041431
    31  C    0.120445
    32  C    0.097024
    33  C    0.069533
    34  N   -0.232173
    35  C    0.066146
    36  C   -0.198307
    37  C    0.122026
    38  C    0.035687
    39  C    0.165528
    40  C   -0.059174
    41  O   -0.135372
    42  C    0.085872
    43  C    0.109102
    44  O   -0.178561
    45  O   -0.288568
    46  C    0.198495
    47  C    0.354137
    48  C   -0.148342
    49  C   -0.157993
    50  C    0.170981
    51  C    0.080394
    52  C    0.053878
    53  C    0.109547
    54  C   -0.076080
    55  C    0.147370
    56  C    0.071438
    57  C    0.081907
    58  C    0.095661
    59  C   -0.093285
    60  C    0.147597
    61  C    0.090258
    62  C    0.097267
    63  C    0.110281
    64  C   -0.111642
    65  C    0.103083
    66  C    0.082988
    67  H   -0.075444
    68  H   -0.024500
    69  H   -0.080134
    70  H   -0.014941
    71  H   -0.016266
    72  H   -0.014598
    73  H   -0.013408
    74  H   -0.002439
    75  H   -0.022482
    76  H   -0.004112
    77  H   -0.011562
    78  H   -0.009400
    79  H   -0.010074
    80  H   -0.000018
    81  H    0.001185
    82  H   -0.005876
    83  H   -0.005454
    84  H    0.008402
    85  H   -0.019533
    86  H   -0.030912
    87  H    0.011635
    88  H   -0.006407
    89  H   -0.014058
    90  H   -0.019218
    91  H   -0.017531
    92  H   -0.009658
    93  H   -0.009641
    94  H   -0.006745
    95  H    0.023500
    96  H    0.001767
    97  H   -0.007209
    98  H    0.003926
    99  H    0.027447
   100  H    0.020597
   101  H    0.015702
   102  H    0.014835
   103  H   -0.005113
   104  H   -0.042033
   105  H   -0.010332
   106  H   -0.012721
   107  H    0.016665
   108  H   -0.008980
   109  H   -0.016729
   110  H   -0.032153
   111  H   -0.025382
   112  H   -0.039279
   113  H   -0.031439
   114  H   -0.038438
   115  H   -0.042052
   116  H   -0.018421
   117  H   -0.028011
   118  H   -0.043068
   119  H   -0.027050
   120  H   -0.021007
   121  H   -0.047503
   122  H   -0.033924
   123  H   -0.020282
   124  H   -0.028571
   125  H   -0.019114
   126  H   -0.015936
   127  H   -0.019975
   128  H   -0.052065
   129  H   -0.030284
   130  H   -0.037369
   131  H   -0.029748
   132  H   -0.041849
   133  H   -0.029384
   134  H   -0.026033
   135  H   -0.022325
   136  H   -0.028592
   137  H   -0.008837
   138  H   -0.017547
   139  H   -0.026768
   140  H   -0.001688
 Sum of Mulliken charges =  -0.00000

 Dipole moment (field-independent basis, Debye):
    X=             -2.6209    Y=              3.6132    Z=             -0.6948  Tot=              4.5174
 Quadrupole moment (field-independent basis, Debye-Ang):
   XX=           -371.4217   YY=           -428.9047   ZZ=           -411.6751
   XY=              0.7743   XZ=             15.7119   YZ=              5.6652

 Normal termination of Gaussian 16 at Wed May  4 14:11:54 2022.
