 Gaussian 16, Revision A.03,
 Gaussian 16:  ES64L-G16RevA.03 25-Dec-2016

 -----------------------------------
 #p cam-b3lyp/Def2SVP td=(nstates=5)
 -----------------------------------

 -------------------------------------------------------
 step_1751_chromophore_7 TDDFT with cam-b3lyp functional
 -------------------------------------------------------
 Symbolic Z-matrix:
 Charge =  0 Multiplicity = 1

                         Standard orientation:
 ---------------------------------------------------------------------
 Center     Atomic      Atomic             Coordinates (Angstroms)
 Number     Number       Type             X           Y           Z
 ---------------------------------------------------------------------
      1         12           0        5.668003    0.572590    0.325918
      2          6           0        3.582941   -2.338600    0.166539
      3          6           0        3.119253    2.589779   -0.468453
      4          6           0        7.871348    3.324756    0.140600
      5          6           0        8.414143   -1.582903    0.180282
      6          7           0        3.594979    0.103005   -0.089029
      7          6           0        2.953244   -1.085869    0.074794
      8          6           0        1.432187   -0.825331   -0.077787
      9          6           0        1.357897    0.754744   -0.401796
     10          6           0        2.841777    1.224366   -0.402318
     11          6           0        0.721866    1.168618   -1.734207
     12          6           0        0.608091   -1.350323    1.178844
     13          6           0       -0.850893   -0.997695    1.277084
     14          6           0       -1.988054   -2.037852    1.295418
     15          8           0       -2.461385   -2.658189    2.266824
     16          8           0       -2.564992   -2.039509    0.030988
     17          7           0        5.441403    2.679911   -0.002454
     18          6           0        4.293996    3.307835   -0.309695
     19          6           0        4.524707    4.683585   -0.476891
     20          6           0        5.935888    4.881572   -0.319845
     21          6           0        6.493716    3.575646   -0.089687
     22          6           0        3.458981    5.699000   -0.804924
     23          6           0        6.705651    6.147203   -0.490464
     24          8           0        7.888287    6.182792   -0.217664
     25          6           0        6.051410    7.457074   -0.715154
     26          7           0        7.769000    0.786735    0.439030
     27          6           0        8.423237    2.024127    0.308126
     28          6           0        9.952276    1.828661    0.419153
     29          6           0       10.103132    0.283498    0.578392
     30          6           0        8.708751   -0.226149    0.469343
     31          6           0       10.682777    2.426153   -0.797757
     32          6           0       10.782555   -0.308054    1.798623
     33          6           0       11.588096   -1.612968    1.651068
     34          7           0        6.002945   -1.509190    0.215835
     35          6           0        7.152914   -2.234420    0.124318
     36          6           0        6.868431   -3.647138    0.208400
     37          6           0        5.500778   -3.776952    0.301879
     38          6           0        5.014118   -2.423807    0.142174
     39          6           0        7.913466   -4.797449   -0.050284
     40          6           0        4.366513   -4.655280    0.353632
     41          8           0        4.345080   -5.883503    0.361192
     42          6           0        3.071136   -3.780913    0.221883
     43          6           0        2.389230   -4.191149   -1.014274
     44          8           0        2.715403   -3.915693   -2.163151
     45          8           0        1.176858   -4.768936   -0.636820
     46          6           0        0.220102   -5.001425   -1.711176
     47          6           0       -3.751761   -2.896203   -0.172493
     48          6           0       -4.853557   -2.054703   -0.816297
     49          6           0       -6.148083   -2.092356   -0.703642
     50          6           0       -7.020179   -3.048145    0.139391
     51          6           0       -6.852292   -1.157029   -1.695418
     52          6           0       -8.258209   -0.650730   -1.338889
     53          6           0       -8.559805    0.727675   -1.971028
     54          6           0       -9.799105    0.735733   -2.975528
     55          6           0       -9.458623    1.548183   -4.152588
     56          6           0      -10.971525    1.381289   -2.243896
     57          6           0      -11.619063    0.324613   -1.379195
     58          6           0      -13.077406    0.599596   -1.324450
     59          6           0      -13.564108    0.521304    0.213830
     60          6           0      -14.982399   -0.039696    0.191159
     61          6           0      -13.457602    1.949213    0.835168
     62          6           0      -13.061003    2.092194    2.323537
     63          6           0      -11.550789    2.341506    2.439898
     64          6           0      -10.833462    1.311260    3.326730
     65          6           0      -10.988721    1.672202    4.832945
     66          6           0       -9.276590    1.236979    2.977646
     67          1           0        2.281940    3.220980   -0.772533
     68          1           0        8.625648    4.107573    0.037280
     69          1           0        9.167123   -2.363587    0.056347
     70          1           0        1.147536   -1.399477   -0.959749
     71          1           0        0.790881    1.351379    0.312478
     72          1           0       -0.037976    1.934404   -1.578054
     73          1           0        0.204954    0.355595   -2.244090
     74          1           0        1.442193    1.530335   -2.467103
     75          1           0        1.132716   -0.926646    2.035081
     76          1           0        0.662675   -2.437453    1.239685
     77          1           0       -1.061834   -0.200034    0.564571
     78          1           0       -1.005271   -0.542156    2.254840
     79          1           0        2.452620    5.303961   -0.943766
     80          1           0        3.791221    6.163615   -1.733095
     81          1           0        3.477305    6.462367   -0.025755
     82          1           0        5.436516    7.390811   -1.612050
     83          1           0        6.800464    8.249534   -0.728627
     84          1           0        5.422960    7.609446    0.162572
     85          1           0       10.206942    2.456430    1.272840
     86          1           0       10.632193   -0.028944   -0.321270
     87          1           0       10.309974    3.430036   -0.999109
     88          1           0       10.694728    1.759092   -1.660343
     89          1           0       11.705094    2.413203   -0.417105
     90          1           0        9.957834   -0.718992    2.380462
     91          1           0       11.360169    0.413228    2.377346
     92          1           0       11.595455   -1.892515    0.597046
     93          1           0       11.083313   -2.419711    2.182410
     94          1           0       12.588492   -1.548901    2.080851
     95          1           0        7.441400   -5.587362   -0.635591
     96          1           0        8.278172   -5.173797    0.905286
     97          1           0        8.764836   -4.329104   -0.541611
     98          1           0        2.357685   -4.047861    1.001772
     99          1           0        0.639590   -5.060111   -2.715179
    100          1           0       -0.536581   -4.227867   -1.583565
    101          1           0       -0.154147   -6.002243   -1.493899
    102          1           0       -4.275661   -3.273713    0.705346
    103          1           0       -3.420917   -3.614919   -0.921978
    104          1           0       -4.451418   -1.267646   -1.454371
    105          1           0       -6.415516   -3.904284    0.437402
    106          1           0       -7.768327   -3.431301   -0.554707
    107          1           0       -7.521508   -2.524258    0.953735
    108          1           0       -6.849965   -1.659625   -2.662387
    109          1           0       -6.201269   -0.284419   -1.732254
    110          1           0       -8.309453   -0.430045   -0.272609
    111          1           0       -8.982698   -1.420505   -1.602174
    112          1           0       -7.603195    1.005371   -2.415238
    113          1           0       -8.779398    1.392007   -1.135464
    114          1           0      -10.102374   -0.272691   -3.258605
    115          1           0      -10.139178    1.296661   -4.967121
    116          1           0       -8.454548    1.376598   -4.539574
    117          1           0       -9.761090    2.589622   -4.045719
    118          1           0      -11.630991    1.779031   -3.015313
    119          1           0      -10.617404    2.250824   -1.688890
    120          1           0      -11.081506    0.134356   -0.451081
    121          1           0      -11.539359   -0.636793   -1.887193
    122          1           0      -13.477185   -0.145752   -2.012249
    123          1           0      -13.270758    1.602274   -1.704818
    124          1           0      -12.881420   -0.135593    0.754119
    125          1           0      -14.932333   -0.809178    0.962454
    126          1           0      -15.240496   -0.481486   -0.771473
    127          1           0      -15.694601    0.749711    0.433470
    128          1           0      -14.437776    2.425242    0.795848
    129          1           0      -12.890377    2.628648    0.198571
    130          1           0      -13.243939    1.128972    2.800143
    131          1           0      -13.696139    2.769185    2.894276
    132          1           0      -11.390397    3.294319    2.944315
    133          1           0      -11.022625    2.495970    1.499344
    134          1           0      -11.224268    0.298395    3.224334
    135          1           0      -11.705936    1.055645    5.374235
    136          1           0      -11.492715    2.629616    4.969745
    137          1           0      -10.027036    1.707068    5.344495
    138          1           0       -8.661958    1.842599    3.643122
    139          1           0       -9.104841    1.723076    2.017587
    140          1           0       -8.912870    0.210443    2.930351
 ---------------------------------------------------------------------

 SCF Done:  E(RCAM-B3LYP) =  -3007.15353130     A.U. after   17 cycles

 Excitation energies and oscillator strengths:

 Excited State   1:      Singlet-A      1.6632 eV  745.45 nm  f=0.3892  <S**2>=0.000
     245 -> 248        0.17989
     246 -> 247        0.68715
     245 <- 248        0.11113
 This state for optimization and/or second-order correction.
 Total Energy, E(TD-HF/TD-DFT) =  -3007.09240962
 Copying the excited state density for this state as the 1-particle RhoCI density.

 Excited State   2:      Singlet-A      2.2070 eV  561.78 nm  f=0.1117  <S**2>=0.000
     245 -> 247        0.63834
     246 -> 248       -0.29512

 Excited State   3:      Singlet-A      3.3011 eV  375.59 nm  f=0.0052  <S**2>=0.000
     243 -> 247       -0.12707
     244 -> 247        0.66880
     246 -> 248        0.14102

 Excited State   4:      Singlet-A      3.4221 eV  362.31 nm  f=0.0093  <S**2>=0.000
     239 -> 247        0.18715
     239 -> 249       -0.16997
     240 -> 247        0.13793
     240 -> 249       -0.12554
     243 -> 247        0.56665
     243 -> 249       -0.12408
     246 -> 248        0.15758

 Excited State   5:      Singlet-A      3.5346 eV  350.78 nm  f=0.5579  <S**2>=0.000
     239 -> 247       -0.22973
     239 -> 249        0.13762
     240 -> 247       -0.21146
     244 -> 247       -0.11484
     245 -> 247        0.24404
     246 -> 248        0.52925

 The electronic state is 1-A.
 Alpha  occ. eigenvalues --  -46.88681 -19.25237 -19.24944 -19.20238 -19.20122
 Alpha  occ. eigenvalues --  -19.19227 -19.18120 -14.42447 -14.42290 -14.39409
 Alpha  occ. eigenvalues --  -14.39145 -10.40177 -10.39406 -10.35340 -10.34260
 Alpha  occ. eigenvalues --  -10.31998 -10.31766 -10.31483 -10.31444 -10.31400
 Alpha  occ. eigenvalues --  -10.30912 -10.29937 -10.29771 -10.29357 -10.28885
 Alpha  occ. eigenvalues --  -10.28691 -10.28622 -10.28601 -10.28461 -10.28165
 Alpha  occ. eigenvalues --  -10.27914 -10.27774 -10.27664 -10.27560 -10.27387
 Alpha  occ. eigenvalues --  -10.27260 -10.27178 -10.27138 -10.26623 -10.26582
 Alpha  occ. eigenvalues --  -10.26489 -10.26479 -10.26319 -10.26119 -10.26066
 Alpha  occ. eigenvalues --  -10.25935 -10.25809 -10.25751 -10.25709 -10.25571
 Alpha  occ. eigenvalues --  -10.25443 -10.25406 -10.24981 -10.24932 -10.24899
 Alpha  occ. eigenvalues --  -10.24772 -10.24747 -10.24725 -10.24697 -10.24536
 Alpha  occ. eigenvalues --  -10.24274 -10.24257 -10.24241 -10.23977 -10.23858
 Alpha  occ. eigenvalues --  -10.23829  -3.17137  -1.92060  -1.91549  -1.91467
 Alpha  occ. eigenvalues --   -1.15781  -1.15240  -1.10454  -1.09782  -1.07802
 Alpha  occ. eigenvalues --   -1.06918  -1.04448  -1.03541  -1.02568  -1.02056
 Alpha  occ. eigenvalues --   -0.92684  -0.91169  -0.90316  -0.89364  -0.89205
 Alpha  occ. eigenvalues --   -0.88995  -0.88652  -0.87763  -0.87356  -0.87236
 Alpha  occ. eigenvalues --   -0.86478  -0.85534  -0.84670  -0.84241  -0.83587
 Alpha  occ. eigenvalues --   -0.82935  -0.82175  -0.81460  -0.80921  -0.80802
 Alpha  occ. eigenvalues --   -0.80345  -0.78440  -0.78063  -0.77564  -0.76727
 Alpha  occ. eigenvalues --   -0.76300  -0.75277  -0.75074  -0.74463  -0.74238
 Alpha  occ. eigenvalues --   -0.73145  -0.72676  -0.71824  -0.70526  -0.69229
 Alpha  occ. eigenvalues --   -0.68926  -0.68131  -0.67361  -0.66159  -0.65603
 Alpha  occ. eigenvalues --   -0.65534  -0.65105  -0.64653  -0.64574  -0.63977
 Alpha  occ. eigenvalues --   -0.63709  -0.63184  -0.62885  -0.62133  -0.60277
 Alpha  occ. eigenvalues --   -0.59709  -0.59265  -0.58986  -0.58566  -0.58276
 Alpha  occ. eigenvalues --   -0.57757  -0.57253  -0.56082  -0.55946  -0.55222
 Alpha  occ. eigenvalues --   -0.54973  -0.54841  -0.54555  -0.54386  -0.54147
 Alpha  occ. eigenvalues --   -0.54038  -0.53770  -0.53537  -0.53416  -0.53232
 Alpha  occ. eigenvalues --   -0.53019  -0.52647  -0.52270  -0.51905  -0.51636
 Alpha  occ. eigenvalues --   -0.51545  -0.51408  -0.51230  -0.50722  -0.50610
 Alpha  occ. eigenvalues --   -0.50519  -0.50304  -0.49989  -0.49819  -0.49547
 Alpha  occ. eigenvalues --   -0.49462  -0.49343  -0.49288  -0.49177  -0.48981
 Alpha  occ. eigenvalues --   -0.48945  -0.48759  -0.48547  -0.48274  -0.48096
 Alpha  occ. eigenvalues --   -0.47822  -0.47724  -0.47474  -0.47374  -0.46950
 Alpha  occ. eigenvalues --   -0.46795  -0.46386  -0.46298  -0.46092  -0.45974
 Alpha  occ. eigenvalues --   -0.45369  -0.45327  -0.45226  -0.45125  -0.44944
 Alpha  occ. eigenvalues --   -0.44487  -0.44481  -0.44183  -0.44063  -0.43955
 Alpha  occ. eigenvalues --   -0.43820  -0.43692  -0.43551  -0.43286  -0.43001
 Alpha  occ. eigenvalues --   -0.42598  -0.42544  -0.42508  -0.42377  -0.42271
 Alpha  occ. eigenvalues --   -0.42248  -0.42044  -0.41609  -0.41335  -0.40984
 Alpha  occ. eigenvalues --   -0.40557  -0.40477  -0.40421  -0.40076  -0.39707
 Alpha  occ. eigenvalues --   -0.39616  -0.39564  -0.39366  -0.39290  -0.38911
 Alpha  occ. eigenvalues --   -0.38415  -0.38304  -0.38222  -0.38015  -0.37879
 Alpha  occ. eigenvalues --   -0.37257  -0.36850  -0.36494  -0.36328  -0.36248
 Alpha  occ. eigenvalues --   -0.36148  -0.35253  -0.34958  -0.34639  -0.34486
 Alpha  occ. eigenvalues --   -0.33822  -0.33170  -0.32741  -0.31656  -0.31147
 Alpha  occ. eigenvalues --   -0.30687  -0.30621  -0.30344  -0.29557  -0.24261
 Alpha  occ. eigenvalues --   -0.21212
 Alpha virt. eigenvalues --   -0.08999  -0.01851   0.00115   0.02306   0.02684
 Alpha virt. eigenvalues --    0.03856   0.04680   0.05634   0.06337   0.06782
 Alpha virt. eigenvalues --    0.06915   0.07775   0.08504   0.08641   0.08992

 Mulliken charges:
               1
     1  Mg   0.820160
     2  C    0.009599
     3  C   -0.075707
     4  C   -0.079295
     5  C   -0.054078
     6  N   -0.316009
     7  C   -0.029626
     8  C    0.010714
     9  C   -0.114267
    10  C    0.098197
    11  C    0.048111
    12  C    0.061612
    13  C    0.069712
    14  C    0.172569
    15  O   -0.241315
    16  O   -0.356849
    17  N   -0.357839
    18  C    0.139766
    19  C   -0.153588
    20  C   -0.030619
    21  C    0.126965
    22  C    0.137496
    23  C   -0.028007
    24  O   -0.212559
    25  C    0.077788
    26  N   -0.326965
    27  C    0.049318
    28  C   -0.065288
    29  C    0.016204
    30  C    0.067097
    31  C    0.065302
    32  C    0.037983
    33  C    0.008743
    34  N   -0.317848
    35  C    0.071611
    36  C   -0.187503
    37  C    0.042493
    38  C    0.071592
    39  C    0.117508
    40  C    0.037780
    41  O   -0.172506
    42  C    0.007642
    43  C    0.203191
    44  O   -0.215183
    45  O   -0.353147
    46  C    0.163187
    47  C    0.323695
    48  C   -0.174315
    49  C   -0.172230
    50  C    0.108963
    51  C    0.023974
    52  C    0.001976
    53  C    0.058773
    54  C   -0.132669
    55  C    0.082326
    56  C    0.016188
    57  C    0.032032
    58  C    0.042842
    59  C   -0.146982
    60  C    0.088275
    61  C    0.036105
    62  C    0.045168
    63  C    0.054125
    64  C   -0.170964
    65  C    0.043346
    66  C    0.031383
    67  H   -0.041326
    68  H    0.015470
    69  H   -0.045616
    70  H    0.016996
    71  H    0.017038
    72  H    0.009290
    73  H    0.012598
    74  H    0.024666
    75  H    0.009886
    76  H    0.021343
    77  H    0.021880
    78  H    0.024714
    79  H    0.018039
    80  H    0.024345
    81  H    0.026744
    82  H    0.020870
    83  H    0.030762
    84  H    0.034932
    85  H    0.015749
    86  H    0.005496
    87  H    0.034600
    88  H    0.017573
    89  H    0.010736
    90  H    0.012311
    91  H    0.011826
    92  H    0.010964
    93  H    0.013404
    94  H    0.018692
    95  H    0.049918
    96  H    0.028625
    97  H    0.015587
    98  H    0.049673
    99  H    0.053618
   100  H    0.037939
   101  H    0.038158
   102  H    0.044540
   103  H    0.021812
   104  H   -0.007386
   105  H    0.013681
   106  H    0.012025
   107  H    0.039828
   108  H    0.019284
   109  H    0.010776
   110  H   -0.006010
   111  H   -0.000276
   112  H   -0.010165
   113  H   -0.005103
   114  H   -0.006521
   115  H   -0.014532
   116  H    0.007389
   117  H   -0.002124
   118  H   -0.011647
   119  H   -0.000377
   120  H    0.002720
   121  H   -0.017704
   122  H   -0.004232
   123  H    0.006430
   124  H    0.000391
   125  H    0.004698
   126  H    0.008548
   127  H    0.004102
   128  H   -0.021483
   129  H   -0.003400
   130  H   -0.010301
   131  H    0.000368
   132  H   -0.011635
   133  H   -0.003971
   134  H    0.003643
   135  H    0.002231
   136  H   -0.004688
   137  H    0.015269
   138  H    0.006170
   139  H   -0.006162
   140  H    0.020158
 Sum of Mulliken charges =  -0.00000

 Dipole moment (field-independent basis, Debye):
    X=             -2.6455    Y=              3.8213    Z=             -0.8212  Tot=              4.7197
 Quadrupole moment (field-independent basis, Debye-Ang):
   XX=           -370.7035   YY=           -425.0999   ZZ=           -411.8609
   XY=              0.1386   XZ=             16.2913   YZ=              5.3211

 Normal termination of Gaussian 16 at Wed May  4 13:12:41 2022.
