 Gaussian 16, Revision A.03,
 Gaussian 16:  ES64L-G16RevA.03 25-Dec-2016

 ---------------------------------
 #p PBE1PBE/Def2SVP td=(nstates=5)
 ---------------------------------

 -----------------------------------------------------
 step_1751_chromophore_7 TDDFT with PBE1PBE functional
 -----------------------------------------------------
 Symbolic Z-matrix:
 Charge =  0 Multiplicity = 1

                         Standard orientation:
 ---------------------------------------------------------------------
 Center     Atomic      Atomic             Coordinates (Angstroms)
 Number     Number       Type             X           Y           Z
 ---------------------------------------------------------------------
      1         12           0        5.668003    0.572590    0.325918
      2          6           0        3.582941   -2.338600    0.166539
      3          6           0        3.119253    2.589779   -0.468453
      4          6           0        7.871348    3.324756    0.140600
      5          6           0        8.414143   -1.582903    0.180282
      6          7           0        3.594979    0.103005   -0.089029
      7          6           0        2.953244   -1.085869    0.074794
      8          6           0        1.432187   -0.825331   -0.077787
      9          6           0        1.357897    0.754744   -0.401796
     10          6           0        2.841777    1.224366   -0.402318
     11          6           0        0.721866    1.168618   -1.734207
     12          6           0        0.608091   -1.350323    1.178844
     13          6           0       -0.850893   -0.997695    1.277084
     14          6           0       -1.988054   -2.037852    1.295418
     15          8           0       -2.461385   -2.658189    2.266824
     16          8           0       -2.564992   -2.039509    0.030988
     17          7           0        5.441403    2.679911   -0.002454
     18          6           0        4.293996    3.307835   -0.309695
     19          6           0        4.524707    4.683585   -0.476891
     20          6           0        5.935888    4.881572   -0.319845
     21          6           0        6.493716    3.575646   -0.089687
     22          6           0        3.458981    5.699000   -0.804924
     23          6           0        6.705651    6.147203   -0.490464
     24          8           0        7.888287    6.182792   -0.217664
     25          6           0        6.051410    7.457074   -0.715154
     26          7           0        7.769000    0.786735    0.439030
     27          6           0        8.423237    2.024127    0.308126
     28          6           0        9.952276    1.828661    0.419153
     29          6           0       10.103132    0.283498    0.578392
     30          6           0        8.708751   -0.226149    0.469343
     31          6           0       10.682777    2.426153   -0.797757
     32          6           0       10.782555   -0.308054    1.798623
     33          6           0       11.588096   -1.612968    1.651068
     34          7           0        6.002945   -1.509190    0.215835
     35          6           0        7.152914   -2.234420    0.124318
     36          6           0        6.868431   -3.647138    0.208400
     37          6           0        5.500778   -3.776952    0.301879
     38          6           0        5.014118   -2.423807    0.142174
     39          6           0        7.913466   -4.797449   -0.050284
     40          6           0        4.366513   -4.655280    0.353632
     41          8           0        4.345080   -5.883503    0.361192
     42          6           0        3.071136   -3.780913    0.221883
     43          6           0        2.389230   -4.191149   -1.014274
     44          8           0        2.715403   -3.915693   -2.163151
     45          8           0        1.176858   -4.768936   -0.636820
     46          6           0        0.220102   -5.001425   -1.711176
     47          6           0       -3.751761   -2.896203   -0.172493
     48          6           0       -4.853557   -2.054703   -0.816297
     49          6           0       -6.148083   -2.092356   -0.703642
     50          6           0       -7.020179   -3.048145    0.139391
     51          6           0       -6.852292   -1.157029   -1.695418
     52          6           0       -8.258209   -0.650730   -1.338889
     53          6           0       -8.559805    0.727675   -1.971028
     54          6           0       -9.799105    0.735733   -2.975528
     55          6           0       -9.458623    1.548183   -4.152588
     56          6           0      -10.971525    1.381289   -2.243896
     57          6           0      -11.619063    0.324613   -1.379195
     58          6           0      -13.077406    0.599596   -1.324450
     59          6           0      -13.564108    0.521304    0.213830
     60          6           0      -14.982399   -0.039696    0.191159
     61          6           0      -13.457602    1.949213    0.835168
     62          6           0      -13.061003    2.092194    2.323537
     63          6           0      -11.550789    2.341506    2.439898
     64          6           0      -10.833462    1.311260    3.326730
     65          6           0      -10.988721    1.672202    4.832945
     66          6           0       -9.276590    1.236979    2.977646
     67          1           0        2.281940    3.220980   -0.772533
     68          1           0        8.625648    4.107573    0.037280
     69          1           0        9.167123   -2.363587    0.056347
     70          1           0        1.147536   -1.399477   -0.959749
     71          1           0        0.790881    1.351379    0.312478
     72          1           0       -0.037976    1.934404   -1.578054
     73          1           0        0.204954    0.355595   -2.244090
     74          1           0        1.442193    1.530335   -2.467103
     75          1           0        1.132716   -0.926646    2.035081
     76          1           0        0.662675   -2.437453    1.239685
     77          1           0       -1.061834   -0.200034    0.564571
     78          1           0       -1.005271   -0.542156    2.254840
     79          1           0        2.452620    5.303961   -0.943766
     80          1           0        3.791221    6.163615   -1.733095
     81          1           0        3.477305    6.462367   -0.025755
     82          1           0        5.436516    7.390811   -1.612050
     83          1           0        6.800464    8.249534   -0.728627
     84          1           0        5.422960    7.609446    0.162572
     85          1           0       10.206942    2.456430    1.272840
     86          1           0       10.632193   -0.028944   -0.321270
     87          1           0       10.309974    3.430036   -0.999109
     88          1           0       10.694728    1.759092   -1.660343
     89          1           0       11.705094    2.413203   -0.417105
     90          1           0        9.957834   -0.718992    2.380462
     91          1           0       11.360169    0.413228    2.377346
     92          1           0       11.595455   -1.892515    0.597046
     93          1           0       11.083313   -2.419711    2.182410
     94          1           0       12.588492   -1.548901    2.080851
     95          1           0        7.441400   -5.587362   -0.635591
     96          1           0        8.278172   -5.173797    0.905286
     97          1           0        8.764836   -4.329104   -0.541611
     98          1           0        2.357685   -4.047861    1.001772
     99          1           0        0.639590   -5.060111   -2.715179
    100          1           0       -0.536581   -4.227867   -1.583565
    101          1           0       -0.154147   -6.002243   -1.493899
    102          1           0       -4.275661   -3.273713    0.705346
    103          1           0       -3.420917   -3.614919   -0.921978
    104          1           0       -4.451418   -1.267646   -1.454371
    105          1           0       -6.415516   -3.904284    0.437402
    106          1           0       -7.768327   -3.431301   -0.554707
    107          1           0       -7.521508   -2.524258    0.953735
    108          1           0       -6.849965   -1.659625   -2.662387
    109          1           0       -6.201269   -0.284419   -1.732254
    110          1           0       -8.309453   -0.430045   -0.272609
    111          1           0       -8.982698   -1.420505   -1.602174
    112          1           0       -7.603195    1.005371   -2.415238
    113          1           0       -8.779398    1.392007   -1.135464
    114          1           0      -10.102374   -0.272691   -3.258605
    115          1           0      -10.139178    1.296661   -4.967121
    116          1           0       -8.454548    1.376598   -4.539574
    117          1           0       -9.761090    2.589622   -4.045719
    118          1           0      -11.630991    1.779031   -3.015313
    119          1           0      -10.617404    2.250824   -1.688890
    120          1           0      -11.081506    0.134356   -0.451081
    121          1           0      -11.539359   -0.636793   -1.887193
    122          1           0      -13.477185   -0.145752   -2.012249
    123          1           0      -13.270758    1.602274   -1.704818
    124          1           0      -12.881420   -0.135593    0.754119
    125          1           0      -14.932333   -0.809178    0.962454
    126          1           0      -15.240496   -0.481486   -0.771473
    127          1           0      -15.694601    0.749711    0.433470
    128          1           0      -14.437776    2.425242    0.795848
    129          1           0      -12.890377    2.628648    0.198571
    130          1           0      -13.243939    1.128972    2.800143
    131          1           0      -13.696139    2.769185    2.894276
    132          1           0      -11.390397    3.294319    2.944315
    133          1           0      -11.022625    2.495970    1.499344
    134          1           0      -11.224268    0.298395    3.224334
    135          1           0      -11.705936    1.055645    5.374235
    136          1           0      -11.492715    2.629616    4.969745
    137          1           0      -10.027036    1.707068    5.344495
    138          1           0       -8.661958    1.842599    3.643122
    139          1           0       -9.104841    1.723076    2.017587
    140          1           0       -8.912870    0.210443    2.930351
 ---------------------------------------------------------------------

 SCF Done:  E(RPBE1PBE) =  -3005.34294315     A.U. after   15 cycles

 Excitation energies and oscillator strengths:

 Excited State   1:      Singlet-A      1.8275 eV  678.45 nm  f=0.3740  <S**2>=0.000
     245 -> 248        0.17448
     246 -> 247        0.69470
     246 <- 247       -0.11312
 This state for optimization and/or second-order correction.
 Total Energy, E(TD-HF/TD-DFT) =  -3005.27578505
 Copying the excited state density for this state as the 1-particle RhoCI density.

 Excited State   2:      Singlet-A      2.2193 eV  558.65 nm  f=0.1073  <S**2>=0.000
     245 -> 247        0.64875
     246 -> 248       -0.27212

 Excited State   3:      Singlet-A      2.9486 eV  420.48 nm  f=0.0002  <S**2>=0.000
     242 -> 247       -0.14165
     243 -> 247        0.39211
     244 -> 247        0.54507

 Excited State   4:      Singlet-A      2.9741 eV  416.88 nm  f=0.0003  <S**2>=0.000
     240 -> 247        0.11557
     242 -> 247        0.39976
     243 -> 247        0.48267
     244 -> 247       -0.24975

 Excited State   5:      Singlet-A      3.0027 eV  412.91 nm  f=0.0057  <S**2>=0.000
     240 -> 247        0.17006
     242 -> 247        0.48151
     243 -> 247       -0.28742
     244 -> 247        0.35021

 The electronic state is 1-A.
 Alpha  occ. eigenvalues --  -46.92076 -19.25960 -19.25595 -19.20532 -19.20292
 Alpha  occ. eigenvalues --  -19.19372 -19.18398 -14.42000 -14.41846 -14.39021
 Alpha  occ. eigenvalues --  -14.38850 -10.37223 -10.36367 -10.32413 -10.31421
 Alpha  occ. eigenvalues --  -10.29461 -10.29410 -10.29258 -10.29197 -10.28742
 Alpha  occ. eigenvalues --  -10.28602 -10.27694 -10.27420 -10.27012 -10.26614
 Alpha  occ. eigenvalues --  -10.26491 -10.26431 -10.26174 -10.26068 -10.25996
 Alpha  occ. eigenvalues --  -10.25663 -10.25411 -10.25337 -10.25203 -10.25132
 Alpha  occ. eigenvalues --  -10.24817 -10.24791 -10.24741 -10.24259 -10.24227
 Alpha  occ. eigenvalues --  -10.24113 -10.24004 -10.23869 -10.23815 -10.23693
 Alpha  occ. eigenvalues --  -10.23467 -10.23345 -10.23251 -10.23208 -10.23049
 Alpha  occ. eigenvalues --  -10.23028 -10.23007 -10.22642 -10.22514 -10.22459
 Alpha  occ. eigenvalues --  -10.22398 -10.22305 -10.22303 -10.22125 -10.22093
 Alpha  occ. eigenvalues --  -10.21842 -10.21838 -10.21672 -10.21383 -10.21356
 Alpha  occ. eigenvalues --  -10.21214  -3.14114  -1.86978  -1.86445  -1.86366
 Alpha  occ. eigenvalues --   -1.10495  -1.10052  -1.05239  -1.04444  -1.02574
 Alpha  occ. eigenvalues --   -1.01782  -0.99081  -0.98272  -0.97151  -0.96687
 Alpha  occ. eigenvalues --   -0.86987  -0.85296  -0.84478  -0.83674  -0.83348
 Alpha  occ. eigenvalues --   -0.83119  -0.83020  -0.82089  -0.81543  -0.81476
 Alpha  occ. eigenvalues --   -0.80794  -0.79818  -0.78881  -0.78521  -0.77867
 Alpha  occ. eigenvalues --   -0.77131  -0.76398  -0.75723  -0.75278  -0.75001
 Alpha  occ. eigenvalues --   -0.74586  -0.72781  -0.72296  -0.71901  -0.70920
 Alpha  occ. eigenvalues --   -0.70569  -0.69460  -0.69362  -0.68628  -0.68423
 Alpha  occ. eigenvalues --   -0.67541  -0.67016  -0.66281  -0.64830  -0.63692
 Alpha  occ. eigenvalues --   -0.63309  -0.62328  -0.61866  -0.60503  -0.59983
 Alpha  occ. eigenvalues --   -0.59804  -0.59488  -0.59177  -0.59126  -0.58163
 Alpha  occ. eigenvalues --   -0.57869  -0.57397  -0.57309  -0.56677  -0.54833
 Alpha  occ. eigenvalues --   -0.54301  -0.53666  -0.53581  -0.53101  -0.52771
 Alpha  occ. eigenvalues --   -0.52210  -0.51672  -0.50598  -0.50467  -0.49808
 Alpha  occ. eigenvalues --   -0.49519  -0.49363  -0.49076  -0.48895  -0.48618
 Alpha  occ. eigenvalues --   -0.48573  -0.48154  -0.48124  -0.47994  -0.47603
 Alpha  occ. eigenvalues --   -0.47593  -0.47128  -0.46874  -0.46445  -0.46178
 Alpha  occ. eigenvalues --   -0.46118  -0.45988  -0.45738  -0.45340  -0.45233
 Alpha  occ. eigenvalues --   -0.45119  -0.44871  -0.44591  -0.44389  -0.44176
 Alpha  occ. eigenvalues --   -0.44040  -0.43905  -0.43842  -0.43727  -0.43619
 Alpha  occ. eigenvalues --   -0.43524  -0.43314  -0.43155  -0.42947  -0.42664
 Alpha  occ. eigenvalues --   -0.42504  -0.42400  -0.42146  -0.42046  -0.41565
 Alpha  occ. eigenvalues --   -0.41444  -0.41188  -0.40940  -0.40795  -0.40778
 Alpha  occ. eigenvalues --   -0.40015  -0.39961  -0.39864  -0.39815  -0.39739
 Alpha  occ. eigenvalues --   -0.39285  -0.39176  -0.39011  -0.38903  -0.38729
 Alpha  occ. eigenvalues --   -0.38566  -0.38478  -0.38375  -0.38023  -0.37783
 Alpha  occ. eigenvalues --   -0.37369  -0.37298  -0.37251  -0.37171  -0.37085
 Alpha  occ. eigenvalues --   -0.37067  -0.36884  -0.36484  -0.36292  -0.35702
 Alpha  occ. eigenvalues --   -0.35447  -0.35277  -0.35164  -0.34982  -0.34663
 Alpha  occ. eigenvalues --   -0.34558  -0.34370  -0.34336  -0.34135  -0.33711
 Alpha  occ. eigenvalues --   -0.33206  -0.33113  -0.33101  -0.32867  -0.32834
 Alpha  occ. eigenvalues --   -0.32064  -0.31935  -0.31399  -0.31272  -0.31205
 Alpha  occ. eigenvalues --   -0.31070  -0.30160  -0.29930  -0.29455  -0.29396
 Alpha  occ. eigenvalues --   -0.28918  -0.28747  -0.27719  -0.27047  -0.26460
 Alpha  occ. eigenvalues --   -0.25931  -0.25662  -0.25421  -0.25204  -0.21202
 Alpha  occ. eigenvalues --   -0.18877
 Alpha virt. eigenvalues --   -0.11432  -0.05349  -0.04107  -0.02131  -0.00647
 Alpha virt. eigenvalues --   -0.00255   0.00241   0.01332   0.01921   0.03117
 Alpha virt. eigenvalues --    0.03731   0.03841   0.04561   0.05348   0.05541

 Mulliken charges:
               1
     1  Mg   0.966906
     2  C    0.004587
     3  C   -0.064598
     4  C   -0.062539
     5  C   -0.050128
     6  N   -0.428141
     7  C    0.040636
     8  C   -0.059355
     9  C   -0.191965
    10  C    0.132453
    11  C   -0.006634
    12  C    0.004801
    13  C   -0.006501
    14  C    0.239254
    15  O   -0.274954
    16  O   -0.385173
    17  N   -0.475387
    18  C    0.168654
    19  C   -0.182017
    20  C   -0.081726
    21  C    0.157120
    22  C    0.076316
    23  C    0.026262
    24  O   -0.248932
    25  C   -0.000500
    26  N   -0.429735
    27  C    0.083408
    28  C   -0.141407
    29  C   -0.062057
    30  C    0.099693
    31  C    0.004827
    32  C   -0.022402
    33  C   -0.061727
    34  N   -0.436116
    35  C    0.091165
    36  C   -0.195304
    37  C   -0.002407
    38  C    0.120282
    39  C    0.060899
    40  C    0.129062
    41  O   -0.218917
    42  C   -0.110739
    43  C    0.300886
    44  O   -0.250579
    45  O   -0.385601
    46  C    0.108486
    47  C    0.278594
    48  C   -0.190618
    49  C   -0.200767
    50  C    0.041758
    51  C   -0.042808
    52  C   -0.063042
    53  C    0.009513
    54  C   -0.226160
    55  C    0.022335
    56  C   -0.042913
    57  C   -0.021332
    58  C   -0.014075
    59  C   -0.236095
    60  C    0.030050
    61  C   -0.014373
    62  C   -0.016186
    63  C   -0.002357
    64  C   -0.266294
    65  C   -0.011964
    66  C   -0.028873
    67  H   -0.007485
    68  H    0.045515
    69  H   -0.009426
    70  H    0.056597
    71  H    0.053576
    72  H    0.036049
    73  H    0.040419
    74  H    0.052321
    75  H    0.042476
    76  H    0.058642
    77  H    0.055265
    78  H    0.057344
    79  H    0.045352
    80  H    0.053577
    81  H    0.055548
    82  H    0.048323
    83  H    0.058437
    84  H    0.062806
    85  H    0.052506
    86  H    0.043491
    87  H    0.062507
    88  H    0.045562
    89  H    0.040987
    90  H    0.047575
    91  H    0.043588
    92  H    0.037188
    93  H    0.040770
    94  H    0.046730
    95  H    0.076518
    96  H    0.056529
    97  H    0.041533
    98  H    0.085029
    99  H    0.074050
   100  H    0.061311
   101  H    0.060097
   102  H    0.071075
   103  H    0.050859
   104  H    0.021639
   105  H    0.041074
   106  H    0.041011
   107  H    0.066483
   108  H    0.053233
   109  H    0.042721
   110  H    0.029223
   111  H    0.031230
   112  H    0.021356
   113  H    0.028095
   114  H    0.030309
   115  H    0.015408
   116  H    0.035166
   117  H    0.025752
   118  H    0.021952
   119  H    0.032462
   120  H    0.034768
   121  H    0.015542
   122  H    0.027833
   123  H    0.038175
   124  H    0.038588
   125  H    0.032178
   126  H    0.035552
   127  H    0.030644
   128  H    0.011561
   129  H    0.028966
   130  H    0.023873
   131  H    0.031282
   132  H    0.022376
   133  H    0.027377
   134  H    0.040556
   135  H    0.029509
   136  H    0.022034
   137  H    0.041687
   138  H    0.033235
   139  H    0.022367
   140  H    0.046991
 Sum of Mulliken charges =  -0.00000

 Dipole moment (field-independent basis, Debye):
    X=             -2.6245    Y=              3.9914    Z=             -0.8464  Tot=              4.8514
 Quadrupole moment (field-independent basis, Debye-Ang):
   XX=           -364.3394   YY=           -422.4767   ZZ=           -409.4181
   XY=              0.5630   XZ=             16.7619   YZ=              5.2928

 Normal termination of Gaussian 16 at Wed May  4 13:29:02 2022.
