 Gaussian 16, Revision A.03,
 Gaussian 16:  ES64L-G16RevA.03 25-Dec-2016

 --------------------------------
 #p wB97XD/Def2SVP td=(nstates=5)
 --------------------------------

 ----------------------------------------------------
 step_1751_chromophore_7 TDDFT with wB97XD functional
 ----------------------------------------------------
 Symbolic Z-matrix:
 Charge =  0 Multiplicity = 1

                         Standard orientation:
 ---------------------------------------------------------------------
 Center     Atomic      Atomic             Coordinates (Angstroms)
 Number     Number       Type             X           Y           Z
 ---------------------------------------------------------------------
      1         12           0        5.668003    0.572590    0.325918
      2          6           0        3.582941   -2.338600    0.166539
      3          6           0        3.119253    2.589779   -0.468453
      4          6           0        7.871348    3.324756    0.140600
      5          6           0        8.414143   -1.582903    0.180282
      6          7           0        3.594979    0.103005   -0.089029
      7          6           0        2.953244   -1.085869    0.074794
      8          6           0        1.432187   -0.825331   -0.077787
      9          6           0        1.357897    0.754744   -0.401796
     10          6           0        2.841777    1.224366   -0.402318
     11          6           0        0.721866    1.168618   -1.734207
     12          6           0        0.608091   -1.350323    1.178844
     13          6           0       -0.850893   -0.997695    1.277084
     14          6           0       -1.988054   -2.037852    1.295418
     15          8           0       -2.461385   -2.658189    2.266824
     16          8           0       -2.564992   -2.039509    0.030988
     17          7           0        5.441403    2.679911   -0.002454
     18          6           0        4.293996    3.307835   -0.309695
     19          6           0        4.524707    4.683585   -0.476891
     20          6           0        5.935888    4.881572   -0.319845
     21          6           0        6.493716    3.575646   -0.089687
     22          6           0        3.458981    5.699000   -0.804924
     23          6           0        6.705651    6.147203   -0.490464
     24          8           0        7.888287    6.182792   -0.217664
     25          6           0        6.051410    7.457074   -0.715154
     26          7           0        7.769000    0.786735    0.439030
     27          6           0        8.423237    2.024127    0.308126
     28          6           0        9.952276    1.828661    0.419153
     29          6           0       10.103132    0.283498    0.578392
     30          6           0        8.708751   -0.226149    0.469343
     31          6           0       10.682777    2.426153   -0.797757
     32          6           0       10.782555   -0.308054    1.798623
     33          6           0       11.588096   -1.612968    1.651068
     34          7           0        6.002945   -1.509190    0.215835
     35          6           0        7.152914   -2.234420    0.124318
     36          6           0        6.868431   -3.647138    0.208400
     37          6           0        5.500778   -3.776952    0.301879
     38          6           0        5.014118   -2.423807    0.142174
     39          6           0        7.913466   -4.797449   -0.050284
     40          6           0        4.366513   -4.655280    0.353632
     41          8           0        4.345080   -5.883503    0.361192
     42          6           0        3.071136   -3.780913    0.221883
     43          6           0        2.389230   -4.191149   -1.014274
     44          8           0        2.715403   -3.915693   -2.163151
     45          8           0        1.176858   -4.768936   -0.636820
     46          6           0        0.220102   -5.001425   -1.711176
     47          6           0       -3.751761   -2.896203   -0.172493
     48          6           0       -4.853557   -2.054703   -0.816297
     49          6           0       -6.148083   -2.092356   -0.703642
     50          6           0       -7.020179   -3.048145    0.139391
     51          6           0       -6.852292   -1.157029   -1.695418
     52          6           0       -8.258209   -0.650730   -1.338889
     53          6           0       -8.559805    0.727675   -1.971028
     54          6           0       -9.799105    0.735733   -2.975528
     55          6           0       -9.458623    1.548183   -4.152588
     56          6           0      -10.971525    1.381289   -2.243896
     57          6           0      -11.619063    0.324613   -1.379195
     58          6           0      -13.077406    0.599596   -1.324450
     59          6           0      -13.564108    0.521304    0.213830
     60          6           0      -14.982399   -0.039696    0.191159
     61          6           0      -13.457602    1.949213    0.835168
     62          6           0      -13.061003    2.092194    2.323537
     63          6           0      -11.550789    2.341506    2.439898
     64          6           0      -10.833462    1.311260    3.326730
     65          6           0      -10.988721    1.672202    4.832945
     66          6           0       -9.276590    1.236979    2.977646
     67          1           0        2.281940    3.220980   -0.772533
     68          1           0        8.625648    4.107573    0.037280
     69          1           0        9.167123   -2.363587    0.056347
     70          1           0        1.147536   -1.399477   -0.959749
     71          1           0        0.790881    1.351379    0.312478
     72          1           0       -0.037976    1.934404   -1.578054
     73          1           0        0.204954    0.355595   -2.244090
     74          1           0        1.442193    1.530335   -2.467103
     75          1           0        1.132716   -0.926646    2.035081
     76          1           0        0.662675   -2.437453    1.239685
     77          1           0       -1.061834   -0.200034    0.564571
     78          1           0       -1.005271   -0.542156    2.254840
     79          1           0        2.452620    5.303961   -0.943766
     80          1           0        3.791221    6.163615   -1.733095
     81          1           0        3.477305    6.462367   -0.025755
     82          1           0        5.436516    7.390811   -1.612050
     83          1           0        6.800464    8.249534   -0.728627
     84          1           0        5.422960    7.609446    0.162572
     85          1           0       10.206942    2.456430    1.272840
     86          1           0       10.632193   -0.028944   -0.321270
     87          1           0       10.309974    3.430036   -0.999109
     88          1           0       10.694728    1.759092   -1.660343
     89          1           0       11.705094    2.413203   -0.417105
     90          1           0        9.957834   -0.718992    2.380462
     91          1           0       11.360169    0.413228    2.377346
     92          1           0       11.595455   -1.892515    0.597046
     93          1           0       11.083313   -2.419711    2.182410
     94          1           0       12.588492   -1.548901    2.080851
     95          1           0        7.441400   -5.587362   -0.635591
     96          1           0        8.278172   -5.173797    0.905286
     97          1           0        8.764836   -4.329104   -0.541611
     98          1           0        2.357685   -4.047861    1.001772
     99          1           0        0.639590   -5.060111   -2.715179
    100          1           0       -0.536581   -4.227867   -1.583565
    101          1           0       -0.154147   -6.002243   -1.493899
    102          1           0       -4.275661   -3.273713    0.705346
    103          1           0       -3.420917   -3.614919   -0.921978
    104          1           0       -4.451418   -1.267646   -1.454371
    105          1           0       -6.415516   -3.904284    0.437402
    106          1           0       -7.768327   -3.431301   -0.554707
    107          1           0       -7.521508   -2.524258    0.953735
    108          1           0       -6.849965   -1.659625   -2.662387
    109          1           0       -6.201269   -0.284419   -1.732254
    110          1           0       -8.309453   -0.430045   -0.272609
    111          1           0       -8.982698   -1.420505   -1.602174
    112          1           0       -7.603195    1.005371   -2.415238
    113          1           0       -8.779398    1.392007   -1.135464
    114          1           0      -10.102374   -0.272691   -3.258605
    115          1           0      -10.139178    1.296661   -4.967121
    116          1           0       -8.454548    1.376598   -4.539574
    117          1           0       -9.761090    2.589622   -4.045719
    118          1           0      -11.630991    1.779031   -3.015313
    119          1           0      -10.617404    2.250824   -1.688890
    120          1           0      -11.081506    0.134356   -0.451081
    121          1           0      -11.539359   -0.636793   -1.887193
    122          1           0      -13.477185   -0.145752   -2.012249
    123          1           0      -13.270758    1.602274   -1.704818
    124          1           0      -12.881420   -0.135593    0.754119
    125          1           0      -14.932333   -0.809178    0.962454
    126          1           0      -15.240496   -0.481486   -0.771473
    127          1           0      -15.694601    0.749711    0.433470
    128          1           0      -14.437776    2.425242    0.795848
    129          1           0      -12.890377    2.628648    0.198571
    130          1           0      -13.243939    1.128972    2.800143
    131          1           0      -13.696139    2.769185    2.894276
    132          1           0      -11.390397    3.294319    2.944315
    133          1           0      -11.022625    2.495970    1.499344
    134          1           0      -11.224268    0.298395    3.224334
    135          1           0      -11.705936    1.055645    5.374235
    136          1           0      -11.492715    2.629616    4.969745
    137          1           0      -10.027036    1.707068    5.344495
    138          1           0       -8.661958    1.842599    3.643122
    139          1           0       -9.104841    1.723076    2.017587
    140          1           0       -8.912870    0.210443    2.930351
 ---------------------------------------------------------------------

 SCF Done:  E(RwB97XD) =  -3007.85071224     A.U. after   20 cycles

 Excitation energies and oscillator strengths:

 Excited State   1:      Singlet-A      1.6012 eV  774.30 nm  f=0.3877  <S**2>=0.000
     245 -> 248       -0.18559
     246 -> 247        0.68489
     245 <- 248       -0.12085
 This state for optimization and/or second-order correction.
 Total Energy, E(TD-HF/TD-DFT) =  -3007.79186797
 Copying the excited state density for this state as the 1-particle RhoCI density.

 Excited State   2:      Singlet-A      2.1485 eV  577.08 nm  f=0.1083  <S**2>=0.000
     245 -> 247        0.63660
     246 -> 248        0.29737

 Excited State   3:      Singlet-A      3.3274 eV  372.62 nm  f=0.0081  <S**2>=0.000
     243 -> 247       -0.16443
     244 -> 247        0.65304
     246 -> 248       -0.14932

 Excited State   4:      Singlet-A      3.4380 eV  360.63 nm  f=0.0250  <S**2>=0.000
     239 -> 247        0.11267
     239 -> 249        0.13054
     240 -> 247        0.10770
     240 -> 249        0.14479
     242 -> 247       -0.18716
     243 -> 247        0.53955
     243 -> 249        0.14394
     244 -> 247        0.10954
     246 -> 248       -0.20801

 Excited State   5:      Singlet-A      3.5496 eV  349.29 nm  f=0.5537  <S**2>=0.000
     239 -> 247        0.19618
     239 -> 249        0.13941
     240 -> 247        0.26258
     240 -> 249        0.12126
     244 -> 247        0.12696
     245 -> 247       -0.24214
     246 -> 248        0.51213
     245 <- 247        0.10057

 The electronic state is 1-A.
 Alpha  occ. eigenvalues --  -46.95032 -19.30506 -19.30201 -19.25223 -19.25080
 Alpha  occ. eigenvalues --  -19.24325 -19.23121 -14.47074 -14.46894 -14.44030
 Alpha  occ. eigenvalues --  -14.43744 -10.44028 -10.43269 -10.39396 -10.38183
 Alpha  occ. eigenvalues --  -10.35910 -10.35817 -10.35518 -10.35482 -10.35130
 Alpha  occ. eigenvalues --  -10.34948 -10.33965 -10.33815 -10.33406 -10.32861
 Alpha  occ. eigenvalues --  -10.32781 -10.32763 -10.32680 -10.32634 -10.32219
 Alpha  occ. eigenvalues --  -10.32034 -10.31750 -10.31587 -10.31586 -10.31423
 Alpha  occ. eigenvalues --  -10.31247 -10.31193 -10.31184 -10.30582 -10.30559
 Alpha  occ. eigenvalues --  -10.30536 -10.30388 -10.30326 -10.30071 -10.29990
 Alpha  occ. eigenvalues --  -10.29787 -10.29741 -10.29677 -10.29573 -10.29482
 Alpha  occ. eigenvalues --  -10.29403 -10.29400 -10.28908 -10.28882 -10.28837
 Alpha  occ. eigenvalues --  -10.28734 -10.28677 -10.28665 -10.28512 -10.28449
 Alpha  occ. eigenvalues --  -10.28195 -10.28185 -10.28082 -10.27791 -10.27767
 Alpha  occ. eigenvalues --  -10.27651  -3.20927  -1.94539  -1.94007  -1.93928
 Alpha  occ. eigenvalues --   -1.17962  -1.17448  -1.12641  -1.12058  -1.10013
 Alpha  occ. eigenvalues --   -1.09147  -1.06502  -1.05575  -1.04563  -1.04077
 Alpha  occ. eigenvalues --   -0.94689  -0.92950  -0.92134  -0.91246  -0.91026
 Alpha  occ. eigenvalues --   -0.90779  -0.90582  -0.89683  -0.89159  -0.89129
 Alpha  occ. eigenvalues --   -0.88461  -0.87437  -0.86531  -0.86165  -0.85484
 Alpha  occ. eigenvalues --   -0.84777  -0.84085  -0.83384  -0.82876  -0.82657
 Alpha  occ. eigenvalues --   -0.82242  -0.80402  -0.79972  -0.79493  -0.78601
 Alpha  occ. eigenvalues --   -0.78237  -0.77051  -0.77024  -0.76291  -0.76074
 Alpha  occ. eigenvalues --   -0.75127  -0.74627  -0.73798  -0.72453  -0.71250
 Alpha  occ. eigenvalues --   -0.70861  -0.69977  -0.69357  -0.68075  -0.67499
 Alpha  occ. eigenvalues --   -0.67430  -0.67027  -0.66649  -0.66569  -0.65814
 Alpha  occ. eigenvalues --   -0.65518  -0.65017  -0.64848  -0.64143  -0.62265
 Alpha  occ. eigenvalues --   -0.61710  -0.61188  -0.60976  -0.60524  -0.60264
 Alpha  occ. eigenvalues --   -0.59737  -0.59157  -0.58030  -0.57905  -0.57212
 Alpha  occ. eigenvalues --   -0.56920  -0.56771  -0.56486  -0.56305  -0.56038
 Alpha  occ. eigenvalues --   -0.55974  -0.55606  -0.55463  -0.55360  -0.55150
 Alpha  occ. eigenvalues --   -0.54970  -0.54533  -0.54199  -0.53808  -0.53501
 Alpha  occ. eigenvalues --   -0.53465  -0.53364  -0.53155  -0.52644  -0.52530
 Alpha  occ. eigenvalues --   -0.52428  -0.52200  -0.51939  -0.51719  -0.51467
 Alpha  occ. eigenvalues --   -0.51388  -0.51294  -0.51225  -0.51094  -0.50872
 Alpha  occ. eigenvalues --   -0.50845  -0.50624  -0.50432  -0.50203  -0.49960
 Alpha  occ. eigenvalues --   -0.49777  -0.49647  -0.49407  -0.49299  -0.48898
 Alpha  occ. eigenvalues --   -0.48722  -0.48318  -0.48167  -0.48032  -0.47899
 Alpha  occ. eigenvalues --   -0.47331  -0.47216  -0.47086  -0.47045  -0.46887
 Alpha  occ. eigenvalues --   -0.46423  -0.46338  -0.46112  -0.45989  -0.45852
 Alpha  occ. eigenvalues --   -0.45704  -0.45582  -0.45491  -0.45271  -0.44925
 Alpha  occ. eigenvalues --   -0.44525  -0.44450  -0.44361  -0.44280  -0.44202
 Alpha  occ. eigenvalues --   -0.44174  -0.44053  -0.43538  -0.43299  -0.42827
 Alpha  occ. eigenvalues --   -0.42429  -0.42358  -0.42279  -0.41970  -0.41642
 Alpha  occ. eigenvalues --   -0.41514  -0.41408  -0.41277  -0.41177  -0.40770
 Alpha  occ. eigenvalues --   -0.40263  -0.40145  -0.40117  -0.39892  -0.39808
 Alpha  occ. eigenvalues --   -0.39108  -0.39004  -0.38530  -0.38295  -0.38111
 Alpha  occ. eigenvalues --   -0.38064  -0.37083  -0.36826  -0.36598  -0.36441
 Alpha  occ. eigenvalues --   -0.35805  -0.35439  -0.34580  -0.33778  -0.33313
 Alpha  occ. eigenvalues --   -0.32723  -0.32528  -0.32496  -0.31732  -0.26185
 Alpha  occ. eigenvalues --   -0.23013
 Alpha virt. eigenvalues --   -0.07369   0.00061   0.02160   0.04412   0.05787
 Alpha virt. eigenvalues --    0.06198   0.06816   0.08038   0.08676   0.09597
 Alpha virt. eigenvalues --    0.10264   0.10432   0.11361   0.12110   0.12293

 Mulliken charges:
               1
     1  Mg   0.957386
     2  C   -0.003947
     3  C   -0.082541
     4  C   -0.081590
     5  C   -0.061565
     6  N   -0.391187
     7  C    0.011917
     8  C   -0.034680
     9  C   -0.166999
    10  C    0.122282
    11  C    0.001467
    12  C    0.020618
    13  C    0.010431
    14  C    0.228861
    15  O   -0.272523
    16  O   -0.385378
    17  N   -0.439998
    18  C    0.157864
    19  C   -0.172143
    20  C   -0.074617
    21  C    0.147849
    22  C    0.090238
    23  C    0.020527
    24  O   -0.244300
    25  C    0.013887
    26  N   -0.399922
    27  C    0.071880
    28  C   -0.117035
    29  C   -0.036866
    30  C    0.093740
    31  C    0.016567
    32  C   -0.007670
    33  C   -0.047439
    34  N   -0.401279
    35  C    0.084647
    36  C   -0.195813
    37  C   -0.000292
    38  C    0.105125
    39  C    0.074212
    40  C    0.113297
    41  O   -0.208511
    42  C   -0.066903
    43  C    0.273086
    44  O   -0.244701
    45  O   -0.384070
    46  C    0.122257
    47  C    0.295080
    48  C   -0.196140
    49  C   -0.196574
    50  C    0.056518
    51  C   -0.017903
    52  C   -0.045610
    53  C    0.023898
    54  C   -0.190389
    55  C    0.032878
    56  C   -0.023416
    57  C   -0.007269
    58  C    0.005686
    59  C   -0.204714
    60  C    0.041764
    61  C   -0.000393
    62  C    0.000955
    63  C    0.015256
    64  C   -0.235794
    65  C   -0.002142
    66  C   -0.013873
    67  H   -0.018111
    68  H    0.039487
    69  H   -0.022442
    70  H    0.044324
    71  H    0.043031
    72  H    0.030939
    73  H    0.034922
    74  H    0.045948
    75  H    0.035588
    76  H    0.045463
    77  H    0.047285
    78  H    0.052275
    79  H    0.042452
    80  H    0.045746
    81  H    0.048816
    82  H    0.041771
    83  H    0.057517
    84  H    0.056020
    85  H    0.043612
    86  H    0.030153
    87  H    0.056727
    88  H    0.039604
    89  H    0.033928
    90  H    0.036041
    91  H    0.037887
    92  H    0.029955
    93  H    0.034928
    94  H    0.042472
    95  H    0.073385
    96  H    0.052089
    97  H    0.036182
    98  H    0.079922
    99  H    0.070501
   100  H    0.059040
   101  H    0.056172
   102  H    0.064280
   103  H    0.046514
   104  H    0.018209
   105  H    0.035856
   106  H    0.034407
   107  H    0.061764
   108  H    0.045188
   109  H    0.030780
   110  H    0.018939
   111  H    0.020463
   112  H    0.010887
   113  H    0.017806
   114  H    0.017502
   115  H    0.008825
   116  H    0.030013
   117  H    0.019365
   118  H    0.011201
   119  H    0.021403
   120  H    0.022077
   121  H    0.004898
   122  H    0.020278
   123  H    0.026699
   124  H    0.023789
   125  H    0.026820
   126  H    0.029615
   127  H    0.024555
   128  H    0.002514
   129  H    0.017135
   130  H    0.011002
   131  H    0.026354
   132  H    0.012462
   133  H    0.014783
   134  H    0.028722
   135  H    0.024182
   136  H    0.014662
   137  H    0.035975
   138  H    0.026538
   139  H    0.014121
   140  H    0.041804
 Sum of Mulliken charges =  -0.00000

 Dipole moment (field-independent basis, Debye):
    X=             -2.6779    Y=              3.8451    Z=             -0.8556  Tot=              4.7632
 Quadrupole moment (field-independent basis, Debye-Ang):
   XX=           -365.3751   YY=           -420.8890   ZZ=           -409.1362
   XY=             -0.1451   XZ=             16.8189   YZ=              5.1974

 Normal termination of Gaussian 16 at Wed May  4 13:57:32 2022.
