 Gaussian 16, Revision A.03,
 Gaussian 16:  ES64L-G16RevA.03 25-Dec-2016

 --------------------
 #p ZINDO=(nstates=5)
 --------------------

 -----------------------------
 step_1751_chromophore_7 ZINDO
 -----------------------------
 Symbolic Z-matrix:
 Charge =  0 Multiplicity = 1

                         Standard orientation:
 ---------------------------------------------------------------------
 Center     Atomic      Atomic             Coordinates (Angstroms)
 Number     Number       Type             X           Y           Z
 ---------------------------------------------------------------------
      1         12           0        5.668003    0.572590    0.325918
      2          6           0        3.582941   -2.338600    0.166539
      3          6           0        3.119253    2.589779   -0.468453
      4          6           0        7.871348    3.324756    0.140600
      5          6           0        8.414143   -1.582903    0.180282
      6          7           0        3.594979    0.103005   -0.089029
      7          6           0        2.953244   -1.085869    0.074794
      8          6           0        1.432187   -0.825331   -0.077787
      9          6           0        1.357897    0.754744   -0.401796
     10          6           0        2.841777    1.224366   -0.402318
     11          6           0        0.721866    1.168618   -1.734207
     12          6           0        0.608091   -1.350323    1.178844
     13          6           0       -0.850893   -0.997695    1.277084
     14          6           0       -1.988054   -2.037852    1.295418
     15          8           0       -2.461385   -2.658189    2.266824
     16          8           0       -2.564992   -2.039509    0.030988
     17          7           0        5.441403    2.679911   -0.002454
     18          6           0        4.293996    3.307835   -0.309695
     19          6           0        4.524707    4.683585   -0.476891
     20          6           0        5.935888    4.881572   -0.319845
     21          6           0        6.493716    3.575646   -0.089687
     22          6           0        3.458981    5.699000   -0.804924
     23          6           0        6.705651    6.147203   -0.490464
     24          8           0        7.888287    6.182792   -0.217664
     25          6           0        6.051410    7.457074   -0.715154
     26          7           0        7.769000    0.786735    0.439030
     27          6           0        8.423237    2.024127    0.308126
     28          6           0        9.952276    1.828661    0.419153
     29          6           0       10.103132    0.283498    0.578392
     30          6           0        8.708751   -0.226149    0.469343
     31          6           0       10.682777    2.426153   -0.797757
     32          6           0       10.782555   -0.308054    1.798623
     33          6           0       11.588096   -1.612968    1.651068
     34          7           0        6.002945   -1.509190    0.215835
     35          6           0        7.152914   -2.234420    0.124318
     36          6           0        6.868431   -3.647138    0.208400
     37          6           0        5.500778   -3.776952    0.301879
     38          6           0        5.014118   -2.423807    0.142174
     39          6           0        7.913466   -4.797449   -0.050284
     40          6           0        4.366513   -4.655280    0.353632
     41          8           0        4.345080   -5.883503    0.361192
     42          6           0        3.071136   -3.780913    0.221883
     43          6           0        2.389230   -4.191149   -1.014274
     44          8           0        2.715403   -3.915693   -2.163151
     45          8           0        1.176858   -4.768936   -0.636820
     46          6           0        0.220102   -5.001425   -1.711176
     47          6           0       -3.751761   -2.896203   -0.172493
     48          6           0       -4.853557   -2.054703   -0.816297
     49          6           0       -6.148083   -2.092356   -0.703642
     50          6           0       -7.020179   -3.048145    0.139391
     51          6           0       -6.852292   -1.157029   -1.695418
     52          6           0       -8.258209   -0.650730   -1.338889
     53          6           0       -8.559805    0.727675   -1.971028
     54          6           0       -9.799105    0.735733   -2.975528
     55          6           0       -9.458623    1.548183   -4.152588
     56          6           0      -10.971525    1.381289   -2.243896
     57          6           0      -11.619063    0.324613   -1.379195
     58          6           0      -13.077406    0.599596   -1.324450
     59          6           0      -13.564108    0.521304    0.213830
     60          6           0      -14.982399   -0.039696    0.191159
     61          6           0      -13.457602    1.949213    0.835168
     62          6           0      -13.061003    2.092194    2.323537
     63          6           0      -11.550789    2.341506    2.439898
     64          6           0      -10.833462    1.311260    3.326730
     65          6           0      -10.988721    1.672202    4.832945
     66          6           0       -9.276590    1.236979    2.977646
     67          1           0        2.281940    3.220980   -0.772533
     68          1           0        8.625648    4.107573    0.037280
     69          1           0        9.167123   -2.363587    0.056347
     70          1           0        1.147536   -1.399477   -0.959749
     71          1           0        0.790881    1.351379    0.312478
     72          1           0       -0.037976    1.934404   -1.578054
     73          1           0        0.204954    0.355595   -2.244090
     74          1           0        1.442193    1.530335   -2.467103
     75          1           0        1.132716   -0.926646    2.035081
     76          1           0        0.662675   -2.437453    1.239685
     77          1           0       -1.061834   -0.200034    0.564571
     78          1           0       -1.005271   -0.542156    2.254840
     79          1           0        2.452620    5.303961   -0.943766
     80          1           0        3.791221    6.163615   -1.733095
     81          1           0        3.477305    6.462367   -0.025755
     82          1           0        5.436516    7.390811   -1.612050
     83          1           0        6.800464    8.249534   -0.728627
     84          1           0        5.422960    7.609446    0.162572
     85          1           0       10.206942    2.456430    1.272840
     86          1           0       10.632193   -0.028944   -0.321270
     87          1           0       10.309974    3.430036   -0.999109
     88          1           0       10.694728    1.759092   -1.660343
     89          1           0       11.705094    2.413203   -0.417105
     90          1           0        9.957834   -0.718992    2.380462
     91          1           0       11.360169    0.413228    2.377346
     92          1           0       11.595455   -1.892515    0.597046
     93          1           0       11.083313   -2.419711    2.182410
     94          1           0       12.588492   -1.548901    2.080851
     95          1           0        7.441400   -5.587362   -0.635591
     96          1           0        8.278172   -5.173797    0.905286
     97          1           0        8.764836   -4.329104   -0.541611
     98          1           0        2.357685   -4.047861    1.001772
     99          1           0        0.639590   -5.060111   -2.715179
    100          1           0       -0.536581   -4.227867   -1.583565
    101          1           0       -0.154147   -6.002243   -1.493899
    102          1           0       -4.275661   -3.273713    0.705346
    103          1           0       -3.420917   -3.614919   -0.921978
    104          1           0       -4.451418   -1.267646   -1.454371
    105          1           0       -6.415516   -3.904284    0.437402
    106          1           0       -7.768327   -3.431301   -0.554707
    107          1           0       -7.521508   -2.524258    0.953735
    108          1           0       -6.849965   -1.659625   -2.662387
    109          1           0       -6.201269   -0.284419   -1.732254
    110          1           0       -8.309453   -0.430045   -0.272609
    111          1           0       -8.982698   -1.420505   -1.602174
    112          1           0       -7.603195    1.005371   -2.415238
    113          1           0       -8.779398    1.392007   -1.135464
    114          1           0      -10.102374   -0.272691   -3.258605
    115          1           0      -10.139178    1.296661   -4.967121
    116          1           0       -8.454548    1.376598   -4.539574
    117          1           0       -9.761090    2.589622   -4.045719
    118          1           0      -11.630991    1.779031   -3.015313
    119          1           0      -10.617404    2.250824   -1.688890
    120          1           0      -11.081506    0.134356   -0.451081
    121          1           0      -11.539359   -0.636793   -1.887193
    122          1           0      -13.477185   -0.145752   -2.012249
    123          1           0      -13.270758    1.602274   -1.704818
    124          1           0      -12.881420   -0.135593    0.754119
    125          1           0      -14.932333   -0.809178    0.962454
    126          1           0      -15.240496   -0.481486   -0.771473
    127          1           0      -15.694601    0.749711    0.433470
    128          1           0      -14.437776    2.425242    0.795848
    129          1           0      -12.890377    2.628648    0.198571
    130          1           0      -13.243939    1.128972    2.800143
    131          1           0      -13.696139    2.769185    2.894276
    132          1           0      -11.390397    3.294319    2.944315
    133          1           0      -11.022625    2.495970    1.499344
    134          1           0      -11.224268    0.298395    3.224334
    135          1           0      -11.705936    1.055645    5.374235
    136          1           0      -11.492715    2.629616    4.969745
    137          1           0      -10.027036    1.707068    5.344495
    138          1           0       -8.661958    1.842599    3.643122
    139          1           0       -9.104841    1.723076    2.017587
    140          1           0       -8.912870    0.210443    2.930351
 ---------------------------------------------------------------------

 SCF Done:  E(RZINDO/S) =  -474.394310438     A.U. after   20 cycles

 Excitation energies and oscillator strengths:

 Excited State   1:      Singlet-A      1.2182 eV 1017.75 nm  f=0.6144  <S**2>=0.000
     175 ->178        -0.18332
     176 ->177         0.66401
 This state for optimization and/or second-order correction.
 Total Energy, E(CIS/TDA) =  -474.349541600
 Copying the excited state density for this state as the 1-particle RhoCI density.

 Excited State   2:      Singlet-A      1.9034 eV  651.39 nm  f=0.0459  <S**2>=0.000
     175 ->177         0.54585
     176 ->178         0.41461
     176 ->179        -0.10032

 Excited State   3:      Singlet-A      2.8648 eV  432.79 nm  f=0.0005  <S**2>=0.000
     170 ->177         0.28635
     170 ->179         0.27574
     170 ->181         0.42085
     170 ->182         0.11540
     170 ->185        -0.21111
     170 ->187        -0.21408

 Excited State   4:      Singlet-A      2.8997 eV  427.57 nm  f=0.1507  <S**2>=0.000
     167 ->179        -0.12483
     168 ->177         0.23974
     168 ->178        -0.14674
     168 ->179        -0.27807
     168 ->181         0.12262
     168 ->185         0.12214
     171 ->177        -0.16040
     171 ->179         0.10334
     175 ->177         0.15872
     176 ->178        -0.27829
     176 ->179        -0.26501

 Excited State   5:      Singlet-A      2.9448 eV  421.02 nm  f=0.4045  <S**2>=0.000
     168 ->177         0.21397
     168 ->178        -0.11791
     168 ->179        -0.23994
     168 ->181         0.10041
     168 ->185         0.10605
     175 ->177        -0.23727
     176 ->178         0.38227
     176 ->179         0.28439

 The electronic state is 1-A.
 Alpha  occ. eigenvalues --   -1.84473  -1.81107  -1.78794  -1.72640  -1.71347
 Alpha  occ. eigenvalues --   -1.69863  -1.68560  -1.61248  -1.61031  -1.59030
 Alpha  occ. eigenvalues --   -1.55908  -1.52006  -1.48567  -1.48112  -1.47183
 Alpha  occ. eigenvalues --   -1.44205  -1.43608  -1.40967  -1.40027  -1.38600
 Alpha  occ. eigenvalues --   -1.37798  -1.34220  -1.32992  -1.32206  -1.29719
 Alpha  occ. eigenvalues --   -1.28127  -1.25584  -1.21856  -1.21166  -1.18936
 Alpha  occ. eigenvalues --   -1.18486  -1.17345  -1.15421  -1.15261  -1.12625
 Alpha  occ. eigenvalues --   -1.11110  -1.10637  -1.09771  -1.04137  -1.04024
 Alpha  occ. eigenvalues --   -1.02538  -1.00451  -0.98510  -0.98100  -0.97511
 Alpha  occ. eigenvalues --   -0.95984  -0.94836  -0.93899  -0.92221  -0.91939
 Alpha  occ. eigenvalues --   -0.91395  -0.89920  -0.89319  -0.87891  -0.87372
 Alpha  occ. eigenvalues --   -0.86060  -0.84091  -0.83194  -0.82277  -0.79847
 Alpha  occ. eigenvalues --   -0.79565  -0.79283  -0.77327  -0.76470  -0.76077
 Alpha  occ. eigenvalues --   -0.75852  -0.75595  -0.75192  -0.74284  -0.73106
 Alpha  occ. eigenvalues --   -0.72640  -0.72458  -0.72389  -0.71158  -0.70417
 Alpha  occ. eigenvalues --   -0.69684  -0.69358  -0.68620  -0.68367  -0.67733
 Alpha  occ. eigenvalues --   -0.67116  -0.66731  -0.66555  -0.66320  -0.66088
 Alpha  occ. eigenvalues --   -0.65975  -0.65790  -0.64874  -0.64135  -0.63748
 Alpha  occ. eigenvalues --   -0.63677  -0.63246  -0.62704  -0.62445  -0.62393
 Alpha  occ. eigenvalues --   -0.62036  -0.61052  -0.60858  -0.60470  -0.60100
 Alpha  occ. eigenvalues --   -0.59689  -0.59279  -0.58886  -0.58441  -0.57902
 Alpha  occ. eigenvalues --   -0.57846  -0.57382  -0.57067  -0.56763  -0.56384
 Alpha  occ. eigenvalues --   -0.56060  -0.55526  -0.55400  -0.55188  -0.55137
 Alpha  occ. eigenvalues --   -0.54475  -0.53706  -0.53640  -0.53470  -0.53090
 Alpha  occ. eigenvalues --   -0.52878  -0.52576  -0.52440  -0.52099  -0.51677
 Alpha  occ. eigenvalues --   -0.51522  -0.50657  -0.50437  -0.50342  -0.50100
 Alpha  occ. eigenvalues --   -0.50048  -0.49544  -0.49367  -0.49167  -0.48936
 Alpha  occ. eigenvalues --   -0.48612  -0.48439  -0.48076  -0.48015  -0.47416
 Alpha  occ. eigenvalues --   -0.47264  -0.47128  -0.46878  -0.46850  -0.46604
 Alpha  occ. eigenvalues --   -0.46525  -0.46305  -0.45772  -0.45386  -0.45114
 Alpha  occ. eigenvalues --   -0.44999  -0.44854  -0.44485  -0.44450  -0.43439
 Alpha  occ. eigenvalues --   -0.43272  -0.42806  -0.42676  -0.42335  -0.41849
 Alpha  occ. eigenvalues --   -0.41650  -0.41320  -0.39516  -0.39432  -0.39008
 Alpha  occ. eigenvalues --   -0.38479  -0.36715  -0.35937  -0.34755  -0.33980
 Alpha  occ. eigenvalues --   -0.33596  -0.33094  -0.32417  -0.32058  -0.26766
 Alpha  occ. eigenvalues --   -0.21744
 Alpha virt. eigenvalues --   -0.08753  -0.02205  -0.00738   0.00967   0.01274
 Alpha virt. eigenvalues --    0.02011   0.02346   0.02690   0.04662   0.05744
 Alpha virt. eigenvalues --    0.06171   0.06641   0.07534   0.07637   0.08358

 Mulliken charges:
               1
     1  Mg   0.421293
     2  C   -0.049530
     3  C   -0.057614
     4  C   -0.065956
     5  C   -0.081128
     6  N   -0.280261
     7  C    0.138203
     8  C   -0.001407
     9  C   -0.003206
    10  C    0.104048
    11  C   -0.050858
    12  C   -0.014232
    13  C    0.008163
    14  C    0.468039
    15  O   -0.514193
    16  O   -0.273695
    17  N   -0.329707
    18  C    0.105668
    19  C   -0.004752
    20  C   -0.059176
    21  C    0.131046
    22  C   -0.045222
    23  C    0.324000
    24  O   -0.537918
    25  C   -0.027797
    26  N   -0.278994
    27  C    0.110173
    28  C   -0.001788
    29  C    0.017461
    30  C    0.157848
    31  C   -0.053118
    32  C   -0.030063
    33  C   -0.057675
    34  N   -0.317578
    35  C    0.113955
    36  C    0.040358
    37  C   -0.042401
    38  C    0.117819
    39  C   -0.043369
    40  C    0.341555
    41  O   -0.514504
    42  C    0.064282
    43  C    0.491981
    44  O   -0.519853
    45  O   -0.276774
    46  C    0.072495
    47  C    0.094255
    48  C   -0.082988
    49  C   -0.015138
    50  C   -0.043262
    51  C   -0.027608
    52  C   -0.041823
    53  C   -0.047542
    54  C   -0.011366
    55  C   -0.056235
    56  C   -0.030178
    57  C   -0.036680
    58  C   -0.043042
    59  C   -0.013742
    60  C   -0.058451
    61  C   -0.036014
    62  C   -0.033904
    63  C   -0.028016
    64  C   -0.010384
    65  C   -0.062531
    66  C   -0.066946
    67  H    0.021311
    68  H    0.063335
    69  H    0.028166
    70  H    0.037572
    71  H    0.029789
    72  H    0.015064
    73  H    0.015117
    74  H    0.025028
    75  H    0.025485
    76  H    0.028865
    77  H    0.036853
    78  H    0.032290
    79  H    0.027130
    80  H    0.027456
    81  H    0.029567
    82  H    0.034359
    83  H    0.039675
    84  H    0.038626
    85  H    0.037083
    86  H    0.028751
    87  H    0.039768
    88  H    0.025735
    89  H    0.011243
    90  H    0.020958
    91  H    0.026715
    92  H    0.019961
    93  H    0.016927
    94  H    0.023130
    95  H    0.044328
    96  H    0.033629
    97  H    0.025451
    98  H    0.060273
    99  H    0.055650
   100  H    0.039203
   101  H    0.032454
   102  H    0.068526
   103  H    0.047427
   104  H    0.021946
   105  H    0.025522
   106  H    0.022141
   107  H    0.039904
   108  H    0.029248
   109  H    0.022834
   110  H    0.016195
   111  H    0.022549
   112  H    0.022777
   113  H    0.019677
   114  H    0.028417
   115  H    0.000371
   116  H    0.018649
   117  H    0.021821
   118  H    0.014288
   119  H    0.021083
   120  H    0.025603
   121  H    0.007503
   122  H    0.022771
   123  H    0.022781
   124  H    0.026523
   125  H    0.016349
   126  H    0.022756
   127  H    0.023750
   128  H    0.004885
   129  H    0.019336
   130  H    0.013138
   131  H    0.026578
   132  H    0.011238
   133  H    0.022438
   134  H    0.023476
   135  H    0.014694
   136  H    0.013096
   137  H    0.023917
   138  H    0.020828
   139  H    0.011621
   140  H    0.022381
 Sum of Mulliken charges =  -0.00000

 Dipole moment (field-independent basis, Debye):
    X=             -3.0878    Y=              3.8831    Z=             -1.1043  Tot=              5.0825
 N-N= 4.289230566511D+03 E-N= 0.000000000000D+00  KE=-9.252748321932D+03
 Leave Link  601 at Wed May  4 14:12:00 2022, MaxMem=  6710886400 cpu:               0.8 elap:               0.0
 (Enter /sw/apps/gaussian-16.0/g16/l9999.exe)
 1\1\GINC-BP1-COMPUTE128\SP\RZINDO CIS\STO-3G\C55H74Mg1N4O6\OF15641\04-
 May-2022\0\\#p ZINDO=(nstates=5)\\step_1751_chromophore_7 ZINDO\\0,1\M
 g,0,26.405,0.553,30.048\C,0,28.591,-0.081,32.817\C,0,23.752,0.878,32.0
 61\C,0,24.275,0.795,27.243\C,0,28.913,-0.73,27.981\N,0,26.264,0.405,32
 .204\C,0,27.277,0.322,33.109\C,0,26.668,0.536,34.519\C,0,25.092,0.717,
 34.218\C,0,24.971,0.584,32.672\C,0,24.134,-0.291,34.864\C,0,27.397,1.7
 08,35.312\C,0,26.8,2.173,36.612\C,0,27.524,2.089,37.97\O,0,28.319,2.90

 Normal termination of Gaussian 16 at Wed May  4 14:12:00 2022.
