 Gaussian 16, Revision A.03,
 Gaussian 16:  ES64L-G16RevA.03 25-Dec-2016

 ------------------------------
 #p blyp/Def2SVP td=(nstates=5)
 ------------------------------

 --------------------------------------------------
 step_351_chromophore_22 TDDFT with blyp functional
 --------------------------------------------------
 Symbolic Z-matrix:
 Charge =  0 Multiplicity = 1

                         Standard orientation:
 ---------------------------------------------------------------------
 Center     Atomic      Atomic             Coordinates (Angstroms)
 Number     Number       Type             X           Y           Z
 ---------------------------------------------------------------------
      1         12           0       -5.971872    0.606073    0.089747
      2          6           0       -3.903446   -2.144250    0.672027
      3          6           0       -3.650421    2.557846    1.548683
      4          6           0       -8.148486    3.193522   -0.261439
      5          6           0       -8.556232   -1.594596   -0.600300
      6          7           0       -4.115257    0.200925    0.965270
      7          6           0       -3.394125   -0.978238    1.095587
      8          6           0       -1.887418   -0.673441    1.522904
      9          6           0       -2.019402    0.737423    2.191095
     10          6           0       -3.378844    1.216071    1.555795
     11          6           0       -2.035013    0.675404    3.761653
     12          6           0       -0.884759   -0.683306    0.260903
     13          6           0        0.475927   -1.421025    0.439093
     14          6           0        1.495712   -1.349948   -0.679463
     15          8           0        1.338161   -0.829910   -1.807619
     16          8           0        2.655694   -1.960506   -0.262542
     17          7           0       -5.807097    2.668781    0.442017
     18          6           0       -4.776656    3.298741    1.073066
     19          6           0       -4.982994    4.697188    1.046432
     20          6           0       -6.152599    4.923565    0.237594
     21          6           0       -6.756569    3.571499    0.134908
     22          6           0       -4.092931    5.697065    1.576394
     23          6           0       -6.743288    6.229769   -0.200436
     24          8           0       -7.779861    6.284373   -0.807947
     25          6           0       -6.039109    7.598887   -0.079412
     26          7           0       -8.004232    0.783309   -0.346982
     27          6           0       -8.639831    1.918623   -0.501264
     28          6           0      -10.209819    1.651235   -0.724782
     29          6           0      -10.232586    0.170334   -1.037838
     30          6           0       -8.841086   -0.281198   -0.659417
     31          6           0      -10.914660    2.022306    0.654967
     32          6           0      -10.523405   -0.157451   -2.526300
     33          6           0      -11.663836   -1.110723   -2.791933
     34          7           0       -6.276832   -1.485855    0.095910
     35          6           0       -7.348328   -2.223632   -0.190588
     36          6           0       -7.011816   -3.691305   -0.145857
     37          6           0       -5.650029   -3.723345    0.263041
     38          6           0       -5.233224   -2.342104    0.255641
     39          6           0       -8.148162   -4.753058   -0.167167
     40          6           0       -4.515940   -4.563862    0.480119
     41          8           0       -4.410500   -5.784561    0.460175
     42          6           0       -3.282527   -3.601147    0.760107
     43          6           0       -2.241233   -3.797229   -0.293757
     44          8           0       -2.154020   -3.290426   -1.396338
     45          8           0       -1.352790   -4.730239    0.182735
     46          6           0       -0.319761   -5.221835   -0.692950
     47          6           0        3.769693   -1.764831   -1.232718
     48          6           0        5.005686   -1.829343   -0.449887
     49          6           0        5.625996   -3.016114   -0.123581
     50          6           0        5.215175   -4.435154   -0.490968
     51          6           0        7.056723   -2.933800    0.473525
     52          6           0        8.127634   -2.018392   -0.198299
     53          6           0        8.283606   -0.655334    0.457540
     54          6           0        9.756565   -0.258836    0.602883
     55          6           0       10.272316   -0.518716    2.075432
     56          6           0       10.009042    1.273193    0.182195
     57          6           0       10.549810    1.571317   -1.242969
     58          6           0       11.659494    2.615568   -1.138329
     59          6           0       12.698209    2.647390   -2.215475
     60          6           0       12.404416    3.706244   -3.326762
     61          6           0       14.090092    2.984045   -1.548770
     62          6           0       14.987683    1.771661   -1.171229
     63          6           0       15.387198    1.618376    0.343209
     64          6           0       15.099816    0.195458    0.959228
     65          6           0       13.609888   -0.206232    0.662508
     66          6           0       15.321158    0.107022    2.502822
     67          1           0       -2.807351    3.139522    1.928771
     68          1           0       -8.858903    4.007623   -0.104577
     69          1           0       -9.348594   -2.252886   -0.961413
     70          1           0       -1.553760   -1.321762    2.332556
     71          1           0       -1.180548    1.425672    2.088940
     72          1           0       -1.570201   -0.235735    4.138723
     73          1           0       -3.062955    0.640573    4.123685
     74          1           0       -1.391152    1.471049    4.136551
     75          1           0       -0.559393    0.353146    0.175833
     76          1           0       -1.544550   -0.882956   -0.582901
     77          1           0        0.251075   -2.468965    0.636413
     78          1           0        0.864287   -0.942205    1.337658
     79          1           0       -3.538069    5.230078    2.389924
     80          1           0       -4.506015    6.631069    1.958178
     81          1           0       -3.387167    6.043490    0.820910
     82          1           0       -5.850205    7.854519    0.963508
     83          1           0       -6.727988    8.285297   -0.571111
     84          1           0       -5.234011    7.461071   -0.800185
     85          1           0      -10.645605    2.214337   -1.549354
     86          1           0      -10.890387   -0.364874   -0.352152
     87          1           0      -11.634995    1.220902    0.820047
     88          1           0      -11.554510    2.884642    0.467313
     89          1           0      -10.296317    2.217324    1.530858
     90          1           0       -9.619094   -0.575012   -2.969392
     91          1           0      -10.693734    0.739082   -3.122083
     92          1           0      -12.250561   -0.610635   -3.562684
     93          1           0      -12.345531   -1.229858   -1.950230
     94          1           0      -11.345711   -2.098295   -3.126535
     95          1           0       -8.945794   -4.303131   -0.759159
     96          1           0       -8.543396   -5.030495    0.810501
     97          1           0       -7.628341   -5.644933   -0.518061
     98          1           0       -2.851662   -3.666498    1.758857
     99          1           0        0.273596   -6.071392   -0.354953
    100          1           0        0.417494   -4.426619   -0.804594
    101          1           0       -0.639744   -5.475003   -1.703847
    102          1           0        3.775002   -0.744498   -1.614671
    103          1           0        3.749826   -2.435178   -2.091986
    104          1           0        5.496336   -0.905857   -0.140685
    105          1           0        4.261813   -4.348160   -1.012311
    106          1           0        5.070904   -4.928347    0.470691
    107          1           0        5.992793   -5.003774   -1.000813
    108          1           0        7.446022   -3.944921    0.588096
    109          1           0        6.890255   -2.563216    1.485161
    110          1           0        7.697278   -1.754959   -1.164428
    111          1           0        9.009881   -2.655605   -0.263741
    112          1           0        7.668011   -0.641949    1.356949
    113          1           0        7.740991   -0.045506   -0.265478
    114          1           0       10.354227   -0.953565    0.011231
    115          1           0       11.147865   -1.165834    2.133728
    116          1           0        9.513855   -1.074931    2.625352
    117          1           0       10.320472    0.382065    2.686352
    118          1           0       10.473578    1.863407    0.971477
    119          1           0        9.032282    1.728292    0.017610
    120          1           0        9.766358    1.906432   -1.923036
    121          1           0       10.995901    0.664185   -1.651631
    122          1           0       12.081344    2.622708   -0.133682
    123          1           0       11.246019    3.622202   -1.084449
    124          1           0       12.626206    1.681191   -2.716120
    125          1           0       13.002956    4.608069   -3.200575
    126          1           0       11.348997    3.981530   -3.337215
    127          1           0       12.765302    3.342298   -4.288817
    128          1           0       13.895142    3.502639   -0.610085
    129          1           0       14.687703    3.614896   -2.207802
    130          1           0       15.861217    1.814860   -1.821972
    131          1           0       14.448611    0.861278   -1.432665
    132          1           0       14.914609    2.358206    0.990831
    133          1           0       16.476811    1.636408    0.363888
    134          1           0       15.793840   -0.472740    0.447853
    135          1           0       12.908623    0.606971    0.474538
    136          1           0       13.191496   -0.853309    1.434107
    137          1           0       13.713408   -0.900406   -0.171744
    138          1           0       16.201564   -0.503596    2.707792
    139          1           0       14.471629   -0.328007    3.029365
    140          1           0       15.533737    1.047893    3.009955
 ---------------------------------------------------------------------

 SCF Done:  E(RB-LYP) =  -3007.34090408     A.U. after   22 cycles

 Excitation energies and oscillator strengths:

 Excited State   1:      Singlet-A      1.5800 eV  784.73 nm  f=0.0097  <S**2>=0.000
     244 -> 247        0.56050
     245 -> 247        0.42755
 This state for optimization and/or second-order correction.
 Total Energy, E(TD-HF/TD-DFT) =  -3007.28284141
 Copying the excited state density for this state as the 1-particle RhoCI density.

 Excited State   2:      Singlet-A      1.7799 eV  696.59 nm  f=0.3465  <S**2>=0.000
     245 -> 249       -0.15476
     246 -> 247        0.70061
     246 <- 247       -0.17216

 Excited State   3:      Singlet-A      1.9440 eV  637.77 nm  f=0.0517  <S**2>=0.000
     243 -> 247        0.49492
     244 -> 247        0.30476
     245 -> 247       -0.36935
     246 -> 249       -0.11540

 Excited State   4:      Singlet-A      2.0279 eV  611.39 nm  f=0.0539  <S**2>=0.000
     243 -> 247        0.50059
     244 -> 247       -0.28021
     245 -> 247        0.37006
     246 -> 249        0.15359

 Excited State   5:      Singlet-A      2.1866 eV  567.02 nm  f=0.0006  <S**2>=0.000
     242 -> 247        0.70536

 The electronic state is 1-A.
 Alpha  occ. eigenvalues --  -46.26647 -18.82114 -18.81923 -18.76831 -18.76637
 Alpha  occ. eigenvalues --  -18.76001 -18.74726 -14.03548 -14.03103 -14.01098
 Alpha  occ. eigenvalues --  -14.00977 -10.04082 -10.03994 -10.00091  -9.99050
 Alpha  occ. eigenvalues --   -9.97333  -9.97212  -9.96553  -9.96440  -9.96382
 Alpha  occ. eigenvalues --   -9.96334  -9.95849  -9.95610  -9.95356  -9.94808
 Alpha  occ. eigenvalues --   -9.94520  -9.94429  -9.94334  -9.94205  -9.93909
 Alpha  occ. eigenvalues --   -9.93889  -9.93624  -9.93370  -9.93143  -9.93055
 Alpha  occ. eigenvalues --   -9.92830  -9.92810  -9.92774  -9.92689  -9.92593
 Alpha  occ. eigenvalues --   -9.92562  -9.92551  -9.92539  -9.92475  -9.92423
 Alpha  occ. eigenvalues --   -9.92365  -9.92317  -9.92294  -9.91812  -9.91808
 Alpha  occ. eigenvalues --   -9.91775  -9.91565  -9.91559  -9.91553  -9.91523
 Alpha  occ. eigenvalues --   -9.91316  -9.91227  -9.91214  -9.91209  -9.91094
 Alpha  occ. eigenvalues --   -9.91041  -9.90894  -9.90712  -9.90598  -9.90510
 Alpha  occ. eigenvalues --   -9.90319  -2.91428  -1.71853  -1.71265  -1.71182
 Alpha  occ. eigenvalues --   -0.97875  -0.96886  -0.92132  -0.91357  -0.90017
 Alpha  occ. eigenvalues --   -0.88408  -0.87124  -0.86297  -0.86049  -0.84688
 Alpha  occ. eigenvalues --   -0.75353  -0.73629  -0.73207  -0.72860  -0.71986
 Alpha  occ. eigenvalues --   -0.71643  -0.71434  -0.70821  -0.70701  -0.70620
 Alpha  occ. eigenvalues --   -0.69161  -0.69022  -0.67966  -0.67640  -0.67150
 Alpha  occ. eigenvalues --   -0.66456  -0.65603  -0.65126  -0.65072  -0.64248
 Alpha  occ. eigenvalues --   -0.64205  -0.62587  -0.62300  -0.61947  -0.60862
 Alpha  occ. eigenvalues --   -0.60429  -0.59868  -0.59663  -0.59368  -0.58812
 Alpha  occ. eigenvalues --   -0.58121  -0.57364  -0.56032  -0.55164  -0.54530
 Alpha  occ. eigenvalues --   -0.54187  -0.53889  -0.53008  -0.51933  -0.51678
 Alpha  occ. eigenvalues --   -0.51222  -0.51008  -0.50651  -0.50427  -0.50418
 Alpha  occ. eigenvalues --   -0.49357  -0.49279  -0.48703  -0.48225  -0.46661
 Alpha  occ. eigenvalues --   -0.46135  -0.45949  -0.45690  -0.45287  -0.44580
 Alpha  occ. eigenvalues --   -0.44132  -0.43664  -0.43240  -0.42711  -0.42307
 Alpha  occ. eigenvalues --   -0.41910  -0.41658  -0.41353  -0.41225  -0.40946
 Alpha  occ. eigenvalues --   -0.40731  -0.40331  -0.40193  -0.40136  -0.40002
 Alpha  occ. eigenvalues --   -0.39814  -0.39686  -0.39538  -0.39385  -0.39238
 Alpha  occ. eigenvalues --   -0.38849  -0.38602  -0.38547  -0.38311  -0.38063
 Alpha  occ. eigenvalues --   -0.37871  -0.37817  -0.37772  -0.37267  -0.37107
 Alpha  occ. eigenvalues --   -0.36943  -0.36794  -0.36612  -0.36476  -0.36307
 Alpha  occ. eigenvalues --   -0.36073  -0.36023  -0.35989  -0.35794  -0.35261
 Alpha  occ. eigenvalues --   -0.35107  -0.34885  -0.34767  -0.34711  -0.34671
 Alpha  occ. eigenvalues --   -0.34453  -0.34411  -0.34323  -0.34251  -0.34076
 Alpha  occ. eigenvalues --   -0.33833  -0.33588  -0.33501  -0.33301  -0.33181
 Alpha  occ. eigenvalues --   -0.32954  -0.32705  -0.32566  -0.32374  -0.32328
 Alpha  occ. eigenvalues --   -0.32161  -0.31886  -0.31803  -0.31265  -0.31072
 Alpha  occ. eigenvalues --   -0.31040  -0.30869  -0.30724  -0.30608  -0.30563
 Alpha  occ. eigenvalues --   -0.30157  -0.30058  -0.29988  -0.29747  -0.29531
 Alpha  occ. eigenvalues --   -0.29433  -0.29256  -0.28927  -0.28895  -0.28739
 Alpha  occ. eigenvalues --   -0.28458  -0.28372  -0.28124  -0.28039  -0.27999
 Alpha  occ. eigenvalues --   -0.27642  -0.27588  -0.27416  -0.26540  -0.26534
 Alpha  occ. eigenvalues --   -0.26147  -0.25962  -0.25830  -0.25629  -0.25129
 Alpha  occ. eigenvalues --   -0.24963  -0.24841  -0.24230  -0.23813  -0.23784
 Alpha  occ. eigenvalues --   -0.23359  -0.22325  -0.22072  -0.21999  -0.20959
 Alpha  occ. eigenvalues --   -0.20222  -0.20060  -0.19187  -0.17899  -0.17198
 Alpha  occ. eigenvalues --   -0.15987
 Alpha virt. eigenvalues --   -0.12027  -0.06502  -0.06111  -0.04535  -0.03898
 Alpha virt. eigenvalues --   -0.02809  -0.02433  -0.02169  -0.01189   0.00314
 Alpha virt. eigenvalues --    0.01341   0.02220   0.02415   0.02634   0.02797

 Mulliken charges:
               1
     1  Mg   0.713523
     2  C    0.004075
     3  C   -0.098021
     4  C   -0.027642
     5  C   -0.071847
     6  N   -0.262987
     7  C   -0.078183
     8  C    0.031963
     9  C   -0.057212
    10  C    0.104044
    11  C    0.113341
    12  C    0.130429
    13  C    0.094592
    14  C    0.122321
    15  O   -0.212883
    16  O   -0.280421
    17  N   -0.261149
    18  C    0.154728
    19  C   -0.127917
    20  C    0.034778
    21  C    0.052026
    22  C    0.171841
    23  C   -0.129687
    24  O   -0.157039
    25  C    0.138878
    26  N   -0.217565
    27  C    0.047802
    28  C   -0.008208
    29  C    0.049854
    30  C    0.031510
    31  C    0.113678
    32  C    0.093735
    33  C    0.068689
    34  N   -0.211949
    35  C    0.083323
    36  C   -0.167041
    37  C    0.077700
    38  C    0.062809
    39  C    0.139282
    40  C   -0.017368
    41  O   -0.128309
    42  C    0.047988
    43  C    0.121630
    44  O   -0.169714
    45  O   -0.263109
    46  C    0.229177
    47  C    0.329695
    48  C   -0.118428
    49  C   -0.158665
    50  C    0.162044
    51  C    0.093299
    52  C    0.065312
    53  C    0.096298
    54  C   -0.043499
    55  C    0.096767
    56  C    0.092743
    57  C    0.098690
    58  C    0.057715
    59  C   -0.051625
    60  C    0.105719
    61  C    0.107259
    62  C    0.069063
    63  C    0.103640
    64  C   -0.117063
    65  C    0.074532
    66  C    0.106350
    67  H   -0.067075
    68  H   -0.028762
    69  H   -0.069528
    70  H   -0.047111
    71  H   -0.028241
    72  H   -0.017707
    73  H    0.001086
    74  H   -0.007059
    75  H   -0.028468
    76  H    0.016502
    77  H    0.012181
    78  H    0.001246
    79  H   -0.009017
    80  H   -0.015946
    81  H    0.000322
    82  H    0.016703
    83  H   -0.013993
    84  H    0.005063
    85  H   -0.023278
    86  H   -0.024366
    87  H   -0.020706
    88  H   -0.008612
    89  H    0.020896
    90  H   -0.017595
    91  H   -0.024146
    92  H   -0.012284
    93  H   -0.014222
    94  H    0.003224
    95  H    0.000766
    96  H    0.013788
    97  H    0.015686
    98  H    0.003334
    99  H    0.010910
   100  H   -0.007857
   101  H    0.012069
   102  H   -0.011900
   103  H    0.007943
   104  H   -0.037198
   105  H   -0.007728
   106  H    0.000742
   107  H    0.009873
   108  H   -0.051173
   109  H   -0.017120
   110  H   -0.024941
   111  H   -0.016864
   112  H   -0.023279
   113  H   -0.027084
   114  H   -0.022663
   115  H   -0.003640
   116  H   -0.042325
   117  H   -0.015123
   118  H   -0.025656
   119  H   -0.040040
   120  H   -0.022583
   121  H   -0.031435
   122  H   -0.035966
   123  H   -0.057921
   124  H   -0.036682
   125  H   -0.023590
   126  H   -0.015544
   127  H   -0.019892
   128  H   -0.033489
   129  H   -0.037706
   130  H   -0.034305
   131  H   -0.035233
   132  H   -0.022140
   133  H   -0.034174
   134  H   -0.029773
   135  H    0.017582
   136  H   -0.023914
   137  H   -0.016819
   138  H   -0.019712
   139  H   -0.017385
   140  H   -0.024259
 Sum of Mulliken charges =  -0.00000

 Dipole moment (field-independent basis, Debye):
    X=              2.2589    Y=              0.7516    Z=              2.9435  Tot=              3.7857
 Quadrupole moment (field-independent basis, Debye-Ang):
   XX=           -364.5075   YY=           -424.7447   ZZ=           -407.2655
   XY=             -5.4971   XZ=             -2.8795   YZ=             10.9141

 Normal termination of Gaussian 16 at Fri Apr 29 16:09:04 2022.
