 Gaussian 16, Revision A.03,
 Gaussian 16:  ES64L-G16RevA.03 25-Dec-2016

 -----------------------------------
 #p cam-b3lyp/Def2SVP td=(nstates=5)
 -----------------------------------

 -------------------------------------------------------
 step_351_chromophore_22 TDDFT with cam-b3lyp functional
 -------------------------------------------------------
 Symbolic Z-matrix:
 Charge =  0 Multiplicity = 1

                         Standard orientation:
 ---------------------------------------------------------------------
 Center     Atomic      Atomic             Coordinates (Angstroms)
 Number     Number       Type             X           Y           Z
 ---------------------------------------------------------------------
      1         12           0       -5.971872    0.606073    0.089747
      2          6           0       -3.903446   -2.144250    0.672027
      3          6           0       -3.650421    2.557846    1.548683
      4          6           0       -8.148486    3.193522   -0.261439
      5          6           0       -8.556232   -1.594596   -0.600300
      6          7           0       -4.115257    0.200925    0.965270
      7          6           0       -3.394125   -0.978238    1.095587
      8          6           0       -1.887418   -0.673441    1.522904
      9          6           0       -2.019402    0.737423    2.191095
     10          6           0       -3.378844    1.216071    1.555795
     11          6           0       -2.035013    0.675404    3.761653
     12          6           0       -0.884759   -0.683306    0.260903
     13          6           0        0.475927   -1.421025    0.439093
     14          6           0        1.495712   -1.349948   -0.679463
     15          8           0        1.338161   -0.829910   -1.807619
     16          8           0        2.655694   -1.960506   -0.262542
     17          7           0       -5.807097    2.668781    0.442017
     18          6           0       -4.776656    3.298741    1.073066
     19          6           0       -4.982994    4.697188    1.046432
     20          6           0       -6.152599    4.923565    0.237594
     21          6           0       -6.756569    3.571499    0.134908
     22          6           0       -4.092931    5.697065    1.576394
     23          6           0       -6.743288    6.229769   -0.200436
     24          8           0       -7.779861    6.284373   -0.807947
     25          6           0       -6.039109    7.598887   -0.079412
     26          7           0       -8.004232    0.783309   -0.346982
     27          6           0       -8.639831    1.918623   -0.501264
     28          6           0      -10.209819    1.651235   -0.724782
     29          6           0      -10.232586    0.170334   -1.037838
     30          6           0       -8.841086   -0.281198   -0.659417
     31          6           0      -10.914660    2.022306    0.654967
     32          6           0      -10.523405   -0.157451   -2.526300
     33          6           0      -11.663836   -1.110723   -2.791933
     34          7           0       -6.276832   -1.485855    0.095910
     35          6           0       -7.348328   -2.223632   -0.190588
     36          6           0       -7.011816   -3.691305   -0.145857
     37          6           0       -5.650029   -3.723345    0.263041
     38          6           0       -5.233224   -2.342104    0.255641
     39          6           0       -8.148162   -4.753058   -0.167167
     40          6           0       -4.515940   -4.563862    0.480119
     41          8           0       -4.410500   -5.784561    0.460175
     42          6           0       -3.282527   -3.601147    0.760107
     43          6           0       -2.241233   -3.797229   -0.293757
     44          8           0       -2.154020   -3.290426   -1.396338
     45          8           0       -1.352790   -4.730239    0.182735
     46          6           0       -0.319761   -5.221835   -0.692950
     47          6           0        3.769693   -1.764831   -1.232718
     48          6           0        5.005686   -1.829343   -0.449887
     49          6           0        5.625996   -3.016114   -0.123581
     50          6           0        5.215175   -4.435154   -0.490968
     51          6           0        7.056723   -2.933800    0.473525
     52          6           0        8.127634   -2.018392   -0.198299
     53          6           0        8.283606   -0.655334    0.457540
     54          6           0        9.756565   -0.258836    0.602883
     55          6           0       10.272316   -0.518716    2.075432
     56          6           0       10.009042    1.273193    0.182195
     57          6           0       10.549810    1.571317   -1.242969
     58          6           0       11.659494    2.615568   -1.138329
     59          6           0       12.698209    2.647390   -2.215475
     60          6           0       12.404416    3.706244   -3.326762
     61          6           0       14.090092    2.984045   -1.548770
     62          6           0       14.987683    1.771661   -1.171229
     63          6           0       15.387198    1.618376    0.343209
     64          6           0       15.099816    0.195458    0.959228
     65          6           0       13.609888   -0.206232    0.662508
     66          6           0       15.321158    0.107022    2.502822
     67          1           0       -2.807351    3.139522    1.928771
     68          1           0       -8.858903    4.007623   -0.104577
     69          1           0       -9.348594   -2.252886   -0.961413
     70          1           0       -1.553760   -1.321762    2.332556
     71          1           0       -1.180548    1.425672    2.088940
     72          1           0       -1.570201   -0.235735    4.138723
     73          1           0       -3.062955    0.640573    4.123685
     74          1           0       -1.391152    1.471049    4.136551
     75          1           0       -0.559393    0.353146    0.175833
     76          1           0       -1.544550   -0.882956   -0.582901
     77          1           0        0.251075   -2.468965    0.636413
     78          1           0        0.864287   -0.942205    1.337658
     79          1           0       -3.538069    5.230078    2.389924
     80          1           0       -4.506015    6.631069    1.958178
     81          1           0       -3.387167    6.043490    0.820910
     82          1           0       -5.850205    7.854519    0.963508
     83          1           0       -6.727988    8.285297   -0.571111
     84          1           0       -5.234011    7.461071   -0.800185
     85          1           0      -10.645605    2.214337   -1.549354
     86          1           0      -10.890387   -0.364874   -0.352152
     87          1           0      -11.634995    1.220902    0.820047
     88          1           0      -11.554510    2.884642    0.467313
     89          1           0      -10.296317    2.217324    1.530858
     90          1           0       -9.619094   -0.575012   -2.969392
     91          1           0      -10.693734    0.739082   -3.122083
     92          1           0      -12.250561   -0.610635   -3.562684
     93          1           0      -12.345531   -1.229858   -1.950230
     94          1           0      -11.345711   -2.098295   -3.126535
     95          1           0       -8.945794   -4.303131   -0.759159
     96          1           0       -8.543396   -5.030495    0.810501
     97          1           0       -7.628341   -5.644933   -0.518061
     98          1           0       -2.851662   -3.666498    1.758857
     99          1           0        0.273596   -6.071392   -0.354953
    100          1           0        0.417494   -4.426619   -0.804594
    101          1           0       -0.639744   -5.475003   -1.703847
    102          1           0        3.775002   -0.744498   -1.614671
    103          1           0        3.749826   -2.435178   -2.091986
    104          1           0        5.496336   -0.905857   -0.140685
    105          1           0        4.261813   -4.348160   -1.012311
    106          1           0        5.070904   -4.928347    0.470691
    107          1           0        5.992793   -5.003774   -1.000813
    108          1           0        7.446022   -3.944921    0.588096
    109          1           0        6.890255   -2.563216    1.485161
    110          1           0        7.697278   -1.754959   -1.164428
    111          1           0        9.009881   -2.655605   -0.263741
    112          1           0        7.668011   -0.641949    1.356949
    113          1           0        7.740991   -0.045506   -0.265478
    114          1           0       10.354227   -0.953565    0.011231
    115          1           0       11.147865   -1.165834    2.133728
    116          1           0        9.513855   -1.074931    2.625352
    117          1           0       10.320472    0.382065    2.686352
    118          1           0       10.473578    1.863407    0.971477
    119          1           0        9.032282    1.728292    0.017610
    120          1           0        9.766358    1.906432   -1.923036
    121          1           0       10.995901    0.664185   -1.651631
    122          1           0       12.081344    2.622708   -0.133682
    123          1           0       11.246019    3.622202   -1.084449
    124          1           0       12.626206    1.681191   -2.716120
    125          1           0       13.002956    4.608069   -3.200575
    126          1           0       11.348997    3.981530   -3.337215
    127          1           0       12.765302    3.342298   -4.288817
    128          1           0       13.895142    3.502639   -0.610085
    129          1           0       14.687703    3.614896   -2.207802
    130          1           0       15.861217    1.814860   -1.821972
    131          1           0       14.448611    0.861278   -1.432665
    132          1           0       14.914609    2.358206    0.990831
    133          1           0       16.476811    1.636408    0.363888
    134          1           0       15.793840   -0.472740    0.447853
    135          1           0       12.908623    0.606971    0.474538
    136          1           0       13.191496   -0.853309    1.434107
    137          1           0       13.713408   -0.900406   -0.171744
    138          1           0       16.201564   -0.503596    2.707792
    139          1           0       14.471629   -0.328007    3.029365
    140          1           0       15.533737    1.047893    3.009955
 ---------------------------------------------------------------------

 SCF Done:  E(RCAM-B3LYP) =  -3007.13093499     A.U. after   18 cycles

 Excitation energies and oscillator strengths:

 Excited State   1:      Singlet-A      1.6445 eV  753.93 nm  f=0.4312  <S**2>=0.000
     245 -> 248        0.15579
     246 -> 247        0.69301
     245 <- 248        0.10337
 This state for optimization and/or second-order correction.
 Total Energy, E(TD-HF/TD-DFT) =  -3007.07050078
 Copying the excited state density for this state as the 1-particle RhoCI density.

 Excited State   2:      Singlet-A      2.1623 eV  573.39 nm  f=0.1793  <S**2>=0.000
     245 -> 247        0.66712
     246 -> 248       -0.21874

 Excited State   3:      Singlet-A      3.1279 eV  396.39 nm  f=0.0119  <S**2>=0.000
     244 -> 247        0.67576

 Excited State   4:      Singlet-A      3.3698 eV  367.92 nm  f=0.0029  <S**2>=0.000
     241 -> 247        0.40078
     241 -> 249       -0.11149
     241 -> 250        0.14059
     242 -> 247        0.46911

 Excited State   5:      Singlet-A      3.4950 eV  354.75 nm  f=0.0071  <S**2>=0.000
     239 -> 247        0.14393
     240 -> 249        0.10322
     241 -> 247        0.47202
     242 -> 247       -0.46737

 The electronic state is 1-A.
 Alpha  occ. eigenvalues --  -46.88107 -19.25051 -19.24887 -19.20052 -19.19598
 Alpha  occ. eigenvalues --  -19.19162 -19.17942 -14.42558 -14.41781 -14.39510
 Alpha  occ. eigenvalues --  -14.39456 -10.39550 -10.39450 -10.35443 -10.34206
 Alpha  occ. eigenvalues --  -10.31356 -10.31307 -10.31135 -10.30999 -10.30867
 Alpha  occ. eigenvalues --  -10.30775 -10.30066 -10.29762 -10.29739 -10.29002
 Alpha  occ. eigenvalues --  -10.28906 -10.28764 -10.28717 -10.28327 -10.28086
 Alpha  occ. eigenvalues --  -10.27912 -10.27890 -10.27835 -10.27456 -10.26923
 Alpha  occ. eigenvalues --  -10.26914 -10.26809 -10.26604 -10.26552 -10.26543
 Alpha  occ. eigenvalues --  -10.26527 -10.26484 -10.26460 -10.26331 -10.26194
 Alpha  occ. eigenvalues --  -10.26084 -10.26012 -10.25985 -10.25863 -10.25716
 Alpha  occ. eigenvalues --  -10.25555 -10.25450 -10.25295 -10.25272 -10.25186
 Alpha  occ. eigenvalues --  -10.24970 -10.24933 -10.24930 -10.24877 -10.24738
 Alpha  occ. eigenvalues --  -10.24729 -10.24580 -10.24321 -10.24203 -10.24145
 Alpha  occ. eigenvalues --  -10.23940  -3.16799  -1.91700  -1.91227  -1.91137
 Alpha  occ. eigenvalues --   -1.16489  -1.15311  -1.10618  -1.09730  -1.08037
 Alpha  occ. eigenvalues --   -1.06235  -1.04786  -1.03879  -1.03694  -1.02261
 Alpha  occ. eigenvalues --   -0.92482  -0.90501  -0.89860  -0.89663  -0.88738
 Alpha  occ. eigenvalues --   -0.88415  -0.88113  -0.87518  -0.87213  -0.87204
 Alpha  occ. eigenvalues --   -0.85590  -0.85428  -0.84241  -0.83742  -0.83240
 Alpha  occ. eigenvalues --   -0.82495  -0.81658  -0.81058  -0.80911  -0.80342
 Alpha  occ. eigenvalues --   -0.80039  -0.78407  -0.77980  -0.77422  -0.76283
 Alpha  occ. eigenvalues --   -0.75781  -0.75132  -0.74995  -0.74651  -0.74048
 Alpha  occ. eigenvalues --   -0.73172  -0.72353  -0.70794  -0.69957  -0.69156
 Alpha  occ. eigenvalues --   -0.68687  -0.68488  -0.67605  -0.66290  -0.65673
 Alpha  occ. eigenvalues --   -0.65344  -0.65219  -0.64615  -0.64513  -0.64490
 Alpha  occ. eigenvalues --   -0.63266  -0.63132  -0.62371  -0.62091  -0.60331
 Alpha  occ. eigenvalues --   -0.59780  -0.59420  -0.59203  -0.58678  -0.58184
 Alpha  occ. eigenvalues --   -0.57546  -0.57028  -0.56614  -0.55816  -0.55543
 Alpha  occ. eigenvalues --   -0.54860  -0.54548  -0.54436  -0.54243  -0.53772
 Alpha  occ. eigenvalues --   -0.53693  -0.53401  -0.53034  -0.52992  -0.52791
 Alpha  occ. eigenvalues --   -0.52685  -0.52221  -0.52001  -0.51941  -0.51777
 Alpha  occ. eigenvalues --   -0.51666  -0.51175  -0.50967  -0.50811  -0.50634
 Alpha  occ. eigenvalues --   -0.50432  -0.50258  -0.50171  -0.49659  -0.49451
 Alpha  occ. eigenvalues --   -0.49272  -0.49056  -0.48955  -0.48818  -0.48588
 Alpha  occ. eigenvalues --   -0.48464  -0.48253  -0.48065  -0.47851  -0.47570
 Alpha  occ. eigenvalues --   -0.47112  -0.47014  -0.46743  -0.46701  -0.46535
 Alpha  occ. eigenvalues --   -0.46418  -0.46300  -0.46201  -0.46025  -0.45812
 Alpha  occ. eigenvalues --   -0.45511  -0.45396  -0.45267  -0.45077  -0.44901
 Alpha  occ. eigenvalues --   -0.44669  -0.44449  -0.44369  -0.44139  -0.44072
 Alpha  occ. eigenvalues --   -0.43954  -0.43487  -0.43463  -0.42854  -0.42815
 Alpha  occ. eigenvalues --   -0.42535  -0.42466  -0.42273  -0.41834  -0.41775
 Alpha  occ. eigenvalues --   -0.41740  -0.41455  -0.41188  -0.41153  -0.41012
 Alpha  occ. eigenvalues --   -0.40555  -0.40461  -0.40268  -0.40017  -0.39841
 Alpha  occ. eigenvalues --   -0.39473  -0.39448  -0.39140  -0.39047  -0.38960
 Alpha  occ. eigenvalues --   -0.38524  -0.38468  -0.38275  -0.37720  -0.37287
 Alpha  occ. eigenvalues --   -0.37016  -0.36687  -0.36560  -0.36457  -0.36311
 Alpha  occ. eigenvalues --   -0.36164  -0.35548  -0.34729  -0.34683  -0.34470
 Alpha  occ. eigenvalues --   -0.34224  -0.34054  -0.32832  -0.31657  -0.31135
 Alpha  occ. eigenvalues --   -0.30158  -0.30101  -0.29838  -0.29424  -0.24136
 Alpha  occ. eigenvalues --   -0.21337
 Alpha virt. eigenvalues --   -0.09397  -0.00647   0.00068   0.02155   0.03132
 Alpha virt. eigenvalues --    0.03550   0.04831   0.05476   0.05671   0.06276
 Alpha virt. eigenvalues --    0.08217   0.08742   0.08931   0.09126   0.09208

 Mulliken charges:
               1
     1  Mg   0.848091
     2  C   -0.024187
     3  C   -0.102596
     4  C   -0.040738
     5  C   -0.079315
     6  N   -0.333614
     7  C   -0.039856
     8  C   -0.012610
     9  C   -0.107087
    10  C    0.112122
    11  C    0.059755
    12  C    0.076026
    13  C    0.030656
    14  C    0.200969
    15  O   -0.254428
    16  O   -0.342275
    17  N   -0.348641
    18  C    0.160680
    19  C   -0.132840
    20  C   -0.028835
    21  C    0.077658
    22  C    0.107318
    23  C   -0.056966
    24  O   -0.196572
    25  C    0.060991
    26  N   -0.294170
    27  C    0.064517
    28  C   -0.054786
    29  C   -0.013939
    30  C    0.048996
    31  C    0.056366
    32  C    0.037961
    33  C    0.005035
    34  N   -0.297706
    35  C    0.086790
    36  C   -0.156274
    37  C    0.004410
    38  C    0.098107
    39  C    0.094081
    40  C    0.073612
    41  O   -0.167247
    42  C   -0.024529
    43  C    0.208902
    44  O   -0.204108
    45  O   -0.326389
    46  C    0.192172
    47  C    0.289438
    48  C   -0.142878
    49  C   -0.167961
    50  C    0.098402
    51  C    0.036018
    52  C    0.008137
    53  C    0.044490
    54  C   -0.099455
    55  C    0.041728
    56  C    0.033897
    57  C    0.051954
    58  C    0.002332
    59  C   -0.109775
    60  C    0.049347
    61  C    0.054420
    62  C    0.013041
    63  C    0.051211
    64  C   -0.168259
    65  C    0.021398
    66  C    0.045738
    67  H   -0.031371
    68  H    0.007123
    69  H   -0.036530
    70  H   -0.012245
    71  H    0.006630
    72  H    0.006926
    73  H    0.027025
    74  H    0.016505
    75  H    0.002101
    76  H    0.048316
    77  H    0.037822
    78  H    0.032105
    79  H    0.018173
    80  H    0.012046
    81  H    0.029765
    82  H    0.041382
    83  H    0.022836
    84  H    0.032584
    85  H    0.012164
    86  H    0.011106
    87  H    0.003462
    88  H    0.015613
    89  H    0.045161
    90  H    0.013773
    91  H    0.004890
    92  H    0.011986
    93  H    0.009031
    94  H    0.025283
    95  H    0.020697
    96  H    0.038547
    97  H    0.040326
    98  H    0.046265
    99  H    0.035218
   100  H    0.008675
   101  H    0.037012
   102  H    0.021616
   103  H    0.035297
   104  H   -0.005642
   105  H    0.015811
   106  H    0.025289
   107  H    0.034291
   108  H   -0.018508
   109  H    0.011517
   110  H    0.005931
   111  H    0.011112
   112  H    0.003413
   113  H   -0.000527
   114  H    0.007022
   115  H    0.017570
   116  H   -0.016717
   117  H    0.008817
   118  H    0.002419
   119  H   -0.009701
   120  H    0.003983
   121  H   -0.006026
   122  H   -0.010362
   123  H   -0.026377
   124  H   -0.005268
   125  H    0.000638
   126  H    0.008077
   127  H    0.005053
   128  H   -0.005865
   129  H   -0.007406
   130  H   -0.003964
   131  H   -0.007321
   132  H    0.003239
   133  H   -0.004322
   134  H    0.001257
   135  H    0.030336
   136  H   -0.002106
   137  H    0.006444
   138  H    0.004490
   139  H    0.006525
   140  H    0.000832
 Sum of Mulliken charges =  -0.00000

 Dipole moment (field-independent basis, Debye):
    X=              2.5307    Y=              1.3522    Z=              3.2293  Tot=              4.3199
 Quadrupole moment (field-independent basis, Debye-Ang):
   XX=           -365.3388   YY=           -419.8672   ZZ=           -407.0519
   XY=             -8.2796   XZ=             -3.1770   YZ=             11.8625

 Normal termination of Gaussian 16 at Fri Apr 29 14:47:45 2022.
