 Gaussian 16, Revision A.03,
 Gaussian 16:  ES64L-G16RevA.03 25-Dec-2016

 ---------------------------------
 #p PBE1PBE/Def2SVP td=(nstates=5)
 ---------------------------------

 -----------------------------------------------------
 step_351_chromophore_22 TDDFT with PBE1PBE functional
 -----------------------------------------------------
 Symbolic Z-matrix:
 Charge =  0 Multiplicity = 1

                         Standard orientation:
 ---------------------------------------------------------------------
 Center     Atomic      Atomic             Coordinates (Angstroms)
 Number     Number       Type             X           Y           Z
 ---------------------------------------------------------------------
      1         12           0       -5.971872    0.606073    0.089747
      2          6           0       -3.903446   -2.144250    0.672027
      3          6           0       -3.650421    2.557846    1.548683
      4          6           0       -8.148486    3.193522   -0.261439
      5          6           0       -8.556232   -1.594596   -0.600300
      6          7           0       -4.115257    0.200925    0.965270
      7          6           0       -3.394125   -0.978238    1.095587
      8          6           0       -1.887418   -0.673441    1.522904
      9          6           0       -2.019402    0.737423    2.191095
     10          6           0       -3.378844    1.216071    1.555795
     11          6           0       -2.035013    0.675404    3.761653
     12          6           0       -0.884759   -0.683306    0.260903
     13          6           0        0.475927   -1.421025    0.439093
     14          6           0        1.495712   -1.349948   -0.679463
     15          8           0        1.338161   -0.829910   -1.807619
     16          8           0        2.655694   -1.960506   -0.262542
     17          7           0       -5.807097    2.668781    0.442017
     18          6           0       -4.776656    3.298741    1.073066
     19          6           0       -4.982994    4.697188    1.046432
     20          6           0       -6.152599    4.923565    0.237594
     21          6           0       -6.756569    3.571499    0.134908
     22          6           0       -4.092931    5.697065    1.576394
     23          6           0       -6.743288    6.229769   -0.200436
     24          8           0       -7.779861    6.284373   -0.807947
     25          6           0       -6.039109    7.598887   -0.079412
     26          7           0       -8.004232    0.783309   -0.346982
     27          6           0       -8.639831    1.918623   -0.501264
     28          6           0      -10.209819    1.651235   -0.724782
     29          6           0      -10.232586    0.170334   -1.037838
     30          6           0       -8.841086   -0.281198   -0.659417
     31          6           0      -10.914660    2.022306    0.654967
     32          6           0      -10.523405   -0.157451   -2.526300
     33          6           0      -11.663836   -1.110723   -2.791933
     34          7           0       -6.276832   -1.485855    0.095910
     35          6           0       -7.348328   -2.223632   -0.190588
     36          6           0       -7.011816   -3.691305   -0.145857
     37          6           0       -5.650029   -3.723345    0.263041
     38          6           0       -5.233224   -2.342104    0.255641
     39          6           0       -8.148162   -4.753058   -0.167167
     40          6           0       -4.515940   -4.563862    0.480119
     41          8           0       -4.410500   -5.784561    0.460175
     42          6           0       -3.282527   -3.601147    0.760107
     43          6           0       -2.241233   -3.797229   -0.293757
     44          8           0       -2.154020   -3.290426   -1.396338
     45          8           0       -1.352790   -4.730239    0.182735
     46          6           0       -0.319761   -5.221835   -0.692950
     47          6           0        3.769693   -1.764831   -1.232718
     48          6           0        5.005686   -1.829343   -0.449887
     49          6           0        5.625996   -3.016114   -0.123581
     50          6           0        5.215175   -4.435154   -0.490968
     51          6           0        7.056723   -2.933800    0.473525
     52          6           0        8.127634   -2.018392   -0.198299
     53          6           0        8.283606   -0.655334    0.457540
     54          6           0        9.756565   -0.258836    0.602883
     55          6           0       10.272316   -0.518716    2.075432
     56          6           0       10.009042    1.273193    0.182195
     57          6           0       10.549810    1.571317   -1.242969
     58          6           0       11.659494    2.615568   -1.138329
     59          6           0       12.698209    2.647390   -2.215475
     60          6           0       12.404416    3.706244   -3.326762
     61          6           0       14.090092    2.984045   -1.548770
     62          6           0       14.987683    1.771661   -1.171229
     63          6           0       15.387198    1.618376    0.343209
     64          6           0       15.099816    0.195458    0.959228
     65          6           0       13.609888   -0.206232    0.662508
     66          6           0       15.321158    0.107022    2.502822
     67          1           0       -2.807351    3.139522    1.928771
     68          1           0       -8.858903    4.007623   -0.104577
     69          1           0       -9.348594   -2.252886   -0.961413
     70          1           0       -1.553760   -1.321762    2.332556
     71          1           0       -1.180548    1.425672    2.088940
     72          1           0       -1.570201   -0.235735    4.138723
     73          1           0       -3.062955    0.640573    4.123685
     74          1           0       -1.391152    1.471049    4.136551
     75          1           0       -0.559393    0.353146    0.175833
     76          1           0       -1.544550   -0.882956   -0.582901
     77          1           0        0.251075   -2.468965    0.636413
     78          1           0        0.864287   -0.942205    1.337658
     79          1           0       -3.538069    5.230078    2.389924
     80          1           0       -4.506015    6.631069    1.958178
     81          1           0       -3.387167    6.043490    0.820910
     82          1           0       -5.850205    7.854519    0.963508
     83          1           0       -6.727988    8.285297   -0.571111
     84          1           0       -5.234011    7.461071   -0.800185
     85          1           0      -10.645605    2.214337   -1.549354
     86          1           0      -10.890387   -0.364874   -0.352152
     87          1           0      -11.634995    1.220902    0.820047
     88          1           0      -11.554510    2.884642    0.467313
     89          1           0      -10.296317    2.217324    1.530858
     90          1           0       -9.619094   -0.575012   -2.969392
     91          1           0      -10.693734    0.739082   -3.122083
     92          1           0      -12.250561   -0.610635   -3.562684
     93          1           0      -12.345531   -1.229858   -1.950230
     94          1           0      -11.345711   -2.098295   -3.126535
     95          1           0       -8.945794   -4.303131   -0.759159
     96          1           0       -8.543396   -5.030495    0.810501
     97          1           0       -7.628341   -5.644933   -0.518061
     98          1           0       -2.851662   -3.666498    1.758857
     99          1           0        0.273596   -6.071392   -0.354953
    100          1           0        0.417494   -4.426619   -0.804594
    101          1           0       -0.639744   -5.475003   -1.703847
    102          1           0        3.775002   -0.744498   -1.614671
    103          1           0        3.749826   -2.435178   -2.091986
    104          1           0        5.496336   -0.905857   -0.140685
    105          1           0        4.261813   -4.348160   -1.012311
    106          1           0        5.070904   -4.928347    0.470691
    107          1           0        5.992793   -5.003774   -1.000813
    108          1           0        7.446022   -3.944921    0.588096
    109          1           0        6.890255   -2.563216    1.485161
    110          1           0        7.697278   -1.754959   -1.164428
    111          1           0        9.009881   -2.655605   -0.263741
    112          1           0        7.668011   -0.641949    1.356949
    113          1           0        7.740991   -0.045506   -0.265478
    114          1           0       10.354227   -0.953565    0.011231
    115          1           0       11.147865   -1.165834    2.133728
    116          1           0        9.513855   -1.074931    2.625352
    117          1           0       10.320472    0.382065    2.686352
    118          1           0       10.473578    1.863407    0.971477
    119          1           0        9.032282    1.728292    0.017610
    120          1           0        9.766358    1.906432   -1.923036
    121          1           0       10.995901    0.664185   -1.651631
    122          1           0       12.081344    2.622708   -0.133682
    123          1           0       11.246019    3.622202   -1.084449
    124          1           0       12.626206    1.681191   -2.716120
    125          1           0       13.002956    4.608069   -3.200575
    126          1           0       11.348997    3.981530   -3.337215
    127          1           0       12.765302    3.342298   -4.288817
    128          1           0       13.895142    3.502639   -0.610085
    129          1           0       14.687703    3.614896   -2.207802
    130          1           0       15.861217    1.814860   -1.821972
    131          1           0       14.448611    0.861278   -1.432665
    132          1           0       14.914609    2.358206    0.990831
    133          1           0       16.476811    1.636408    0.363888
    134          1           0       15.793840   -0.472740    0.447853
    135          1           0       12.908623    0.606971    0.474538
    136          1           0       13.191496   -0.853309    1.434107
    137          1           0       13.713408   -0.900406   -0.171744
    138          1           0       16.201564   -0.503596    2.707792
    139          1           0       14.471629   -0.328007    3.029365
    140          1           0       15.533737    1.047893    3.009955
 ---------------------------------------------------------------------

 SCF Done:  E(RPBE1PBE) =  -3005.31961965     A.U. after   15 cycles

 Excitation energies and oscillator strengths:

 Excited State   1:      Singlet-A      1.8073 eV  686.01 nm  f=0.4140  <S**2>=0.000
     245 -> 248       -0.13250
     246 -> 247        0.70172
     246 <- 247       -0.12870
 This state for optimization and/or second-order correction.
 Total Energy, E(TD-HF/TD-DFT) =  -3005.25320172
 Copying the excited state density for this state as the 1-particle RhoCI density.

 Excited State   2:      Singlet-A      2.1675 eV  572.00 nm  f=0.1613  <S**2>=0.000
     245 -> 247        0.67372
     246 -> 248        0.17445

 Excited State   3:      Singlet-A      2.6767 eV  463.20 nm  f=0.0028  <S**2>=0.000
     244 -> 247        0.69028

 Excited State   4:      Singlet-A      2.8957 eV  428.17 nm  f=0.0091  <S**2>=0.000
     242 -> 247        0.68343

 Excited State   5:      Singlet-A      3.0266 eV  409.64 nm  f=0.0005  <S**2>=0.000
     240 -> 247        0.54941
     240 -> 249       -0.16492
     241 -> 247       -0.38180

 The electronic state is 1-A.
 Alpha  occ. eigenvalues --  -46.91531 -19.25736 -19.25495 -19.20190 -19.19901
 Alpha  occ. eigenvalues --  -19.19429 -19.18102 -14.42039 -14.41348 -14.39185
 Alpha  occ. eigenvalues --  -14.39074 -10.36490 -10.36482 -10.32597 -10.31295
 Alpha  occ. eigenvalues --  -10.28802 -10.28736 -10.28680 -10.28620 -10.28491
 Alpha  occ. eigenvalues --  -10.28452 -10.27881 -10.27578 -10.27345 -10.26835
 Alpha  occ. eigenvalues --  -10.26612 -10.26563 -10.26531 -10.26127 -10.25682
 Alpha  occ. eigenvalues --  -10.25584 -10.25581 -10.25373 -10.25224 -10.24688
 Alpha  occ. eigenvalues --  -10.24574 -10.24452 -10.24355 -10.24266 -10.24178
 Alpha  occ. eigenvalues --  -10.23975 -10.23893 -10.23883 -10.23841 -10.23789
 Alpha  occ. eigenvalues --  -10.23756 -10.23696 -10.23671 -10.23520 -10.23150
 Alpha  occ. eigenvalues --  -10.23038 -10.22969 -10.22961 -10.22768 -10.22759
 Alpha  occ. eigenvalues --  -10.22551 -10.22508 -10.22493 -10.22462 -10.22323
 Alpha  occ. eigenvalues --  -10.22161 -10.22119 -10.21712 -10.21604 -10.21545
 Alpha  occ. eigenvalues --  -10.21499  -3.13796  -1.86639  -1.86144  -1.86057
 Alpha  occ. eigenvalues --   -1.11202  -1.10110  -1.05327  -1.04505  -1.02797
 Alpha  occ. eigenvalues --   -1.01081  -0.99452  -0.98595  -0.98329  -0.96865
 Alpha  occ. eigenvalues --   -0.86856  -0.84632  -0.84214  -0.83761  -0.82935
 Alpha  occ. eigenvalues --   -0.82630  -0.82264  -0.81787  -0.81561  -0.81309
 Alpha  occ. eigenvalues --   -0.79961  -0.79631  -0.78409  -0.78028  -0.77521
 Alpha  occ. eigenvalues --   -0.76701  -0.75919  -0.75279  -0.75210  -0.74524
 Alpha  occ. eigenvalues --   -0.74174  -0.72660  -0.72221  -0.71748  -0.70595
 Alpha  occ. eigenvalues --   -0.69951  -0.69500  -0.69065  -0.68792  -0.68215
 Alpha  occ. eigenvalues --   -0.67602  -0.66710  -0.65243  -0.64273  -0.63664
 Alpha  occ. eigenvalues --   -0.63043  -0.62740  -0.62009  -0.60544  -0.60113
 Alpha  occ. eigenvalues --   -0.59820  -0.59437  -0.59163  -0.59032  -0.58619
 Alpha  occ. eigenvalues --   -0.57661  -0.57432  -0.56966  -0.56272  -0.54827
 Alpha  occ. eigenvalues --   -0.54310  -0.53766  -0.53756  -0.53325  -0.52620
 Alpha  occ. eigenvalues --   -0.52126  -0.51442  -0.50950  -0.50438  -0.50058
 Alpha  occ. eigenvalues --   -0.49336  -0.49117  -0.48840  -0.48723  -0.48366
 Alpha  occ. eigenvalues --   -0.48189  -0.47872  -0.47578  -0.47349  -0.47326
 Alpha  occ. eigenvalues --   -0.47283  -0.46779  -0.46610  -0.46448  -0.46311
 Alpha  occ. eigenvalues --   -0.46163  -0.45875  -0.45480  -0.45373  -0.45140
 Alpha  occ. eigenvalues --   -0.44952  -0.44815  -0.44719  -0.44268  -0.44066
 Alpha  occ. eigenvalues --   -0.43821  -0.43608  -0.43521  -0.43403  -0.43223
 Alpha  occ. eigenvalues --   -0.43083  -0.42887  -0.42678  -0.42533  -0.42158
 Alpha  occ. eigenvalues --   -0.41763  -0.41706  -0.41493  -0.41356  -0.41178
 Alpha  occ. eigenvalues --   -0.41138  -0.40996  -0.40955  -0.40616  -0.40454
 Alpha  occ. eigenvalues --   -0.40185  -0.40079  -0.39992  -0.39748  -0.39666
 Alpha  occ. eigenvalues --   -0.39500  -0.39156  -0.39104  -0.38868  -0.38838
 Alpha  occ. eigenvalues --   -0.38682  -0.38314  -0.38176  -0.37659  -0.37529
 Alpha  occ. eigenvalues --   -0.37286  -0.37266  -0.37080  -0.36673  -0.36586
 Alpha  occ. eigenvalues --   -0.36533  -0.36252  -0.36082  -0.36047  -0.35868
 Alpha  occ. eigenvalues --   -0.35369  -0.35226  -0.35199  -0.34772  -0.34744
 Alpha  occ. eigenvalues --   -0.34437  -0.34239  -0.34105  -0.33899  -0.33763
 Alpha  occ. eigenvalues --   -0.33418  -0.33279  -0.33044  -0.32752  -0.32096
 Alpha  occ. eigenvalues --   -0.32067  -0.31693  -0.31584  -0.31324  -0.31230
 Alpha  occ. eigenvalues --   -0.31055  -0.30423  -0.29847  -0.29639  -0.29290
 Alpha  occ. eigenvalues --   -0.29136  -0.28815  -0.28466  -0.27205  -0.26131
 Alpha  occ. eigenvalues --   -0.25810  -0.25316  -0.25188  -0.24566  -0.21027
 Alpha  occ. eigenvalues --   -0.18950
 Alpha virt. eigenvalues --   -0.11745  -0.04344  -0.04155  -0.02054  -0.00967
 Alpha virt. eigenvalues --    0.00032   0.00434   0.00843   0.01495   0.02924
 Alpha virt. eigenvalues --    0.04329   0.05159   0.05396   0.05620   0.05729

 Mulliken charges:
               1
     1  Mg   1.000015
     2  C   -0.048025
     3  C   -0.087179
     4  C   -0.026771
     5  C   -0.074240
     6  N   -0.440141
     7  C    0.035649
     8  C   -0.080298
     9  C   -0.181189
    10  C    0.141091
    11  C    0.007800
    12  C    0.028431
    13  C   -0.049109
    14  C    0.262723
    15  O   -0.285868
    16  O   -0.368708
    17  N   -0.462343
    18  C    0.184644
    19  C   -0.170647
    20  C   -0.071685
    21  C    0.108709
    22  C    0.051223
    23  C   -0.006618
    24  O   -0.230725
    25  C   -0.017598
    26  N   -0.400722
    27  C    0.095036
    28  C   -0.127600
    29  C   -0.094393
    30  C    0.076994
    31  C    0.000073
    32  C   -0.015330
    33  C   -0.067167
    34  N   -0.420110
    35  C    0.118077
    36  C   -0.161665
    37  C   -0.037605
    38  C    0.152416
    39  C    0.034936
    40  C    0.159526
    41  O   -0.212140
    42  C   -0.131234
    43  C    0.300456
    44  O   -0.239830
    45  O   -0.359474
    46  C    0.134184
    47  C    0.240558
    48  C   -0.160893
    49  C   -0.199895
    50  C    0.028736
    51  C   -0.022052
    52  C   -0.056526
    53  C   -0.008706
    54  C   -0.185459
    55  C   -0.015483
    56  C   -0.023881
    57  C   -0.008054
    58  C   -0.046541
    59  C   -0.198334
    60  C   -0.009844
    61  C   -0.001601
    62  C   -0.047469
    63  C   -0.005639
    64  C   -0.257035
    65  C   -0.053990
    66  C   -0.012822
    67  H   -0.000287
    68  H    0.037677
    69  H   -0.002511
    70  H    0.024778
    71  H    0.040979
    72  H    0.033915
    73  H    0.054387
    74  H    0.042948
    75  H    0.036508
    76  H    0.080134
    77  H    0.073265
    78  H    0.064185
    79  H    0.045325
    80  H    0.039595
    81  H    0.057406
    82  H    0.066627
    83  H    0.050847
    84  H    0.060706
    85  H    0.046530
    86  H    0.047076
    87  H    0.031830
    88  H    0.043763
    89  H    0.071723
    90  H    0.047119
    91  H    0.036744
    92  H    0.040262
    93  H    0.036574
    94  H    0.051751
    95  H    0.048196
    96  H    0.066544
    97  H    0.068571
    98  H    0.081665
    99  H    0.057155
   100  H    0.033937
   101  H    0.058825
   102  H    0.049563
   103  H    0.060557
   104  H    0.027310
   105  H    0.044453
   106  H    0.054665
   107  H    0.061211
   108  H    0.013518
   109  H    0.045570
   110  H    0.041023
   111  H    0.041871
   112  H    0.033470
   113  H    0.031124
   114  H    0.043572
   115  H    0.044742
   116  H    0.012119
   117  H    0.035451
   118  H    0.032510
   119  H    0.024396
   120  H    0.035636
   121  H    0.025613
   122  H    0.017211
   123  H    0.008124
   124  H    0.031029
   125  H    0.027880
   126  H    0.035444
   127  H    0.033251
   128  H    0.027066
   129  H    0.025224
   130  H    0.028696
   131  H    0.027078
   132  H    0.033776
   133  H    0.030308
   134  H    0.038164
   135  H    0.070373
   136  H    0.028768
   137  H    0.033561
   138  H    0.032170
   139  H    0.032586
   140  H    0.027528
 Sum of Mulliken charges =  -0.00000

 Dipole moment (field-independent basis, Debye):
    X=              2.4049    Y=              1.1853    Z=              3.1970  Tot=              4.1724
 Quadrupole moment (field-independent basis, Debye-Ang):
   XX=           -358.2743   YY=           -417.5589   ZZ=           -404.3788
   XY=             -7.1017   XZ=             -2.2362   YZ=             11.7678

 Normal termination of Gaussian 16 at Fri Apr 29 15:11:32 2022.
