 Gaussian 16, Revision A.03,
 Gaussian 16:  ES64L-G16RevA.03 25-Dec-2016

 --------------------------------
 #p wB97XD/Def2SVP td=(nstates=5)
 --------------------------------

 ----------------------------------------------------
 step_351_chromophore_22 TDDFT with wB97XD functional
 ----------------------------------------------------
 Symbolic Z-matrix:
 Charge =  0 Multiplicity = 1

                         Standard orientation:
 ---------------------------------------------------------------------
 Center     Atomic      Atomic             Coordinates (Angstroms)
 Number     Number       Type             X           Y           Z
 ---------------------------------------------------------------------
      1         12           0       -5.971872    0.606073    0.089747
      2          6           0       -3.903446   -2.144250    0.672027
      3          6           0       -3.650421    2.557846    1.548683
      4          6           0       -8.148486    3.193522   -0.261439
      5          6           0       -8.556232   -1.594596   -0.600300
      6          7           0       -4.115257    0.200925    0.965270
      7          6           0       -3.394125   -0.978238    1.095587
      8          6           0       -1.887418   -0.673441    1.522904
      9          6           0       -2.019402    0.737423    2.191095
     10          6           0       -3.378844    1.216071    1.555795
     11          6           0       -2.035013    0.675404    3.761653
     12          6           0       -0.884759   -0.683306    0.260903
     13          6           0        0.475927   -1.421025    0.439093
     14          6           0        1.495712   -1.349948   -0.679463
     15          8           0        1.338161   -0.829910   -1.807619
     16          8           0        2.655694   -1.960506   -0.262542
     17          7           0       -5.807097    2.668781    0.442017
     18          6           0       -4.776656    3.298741    1.073066
     19          6           0       -4.982994    4.697188    1.046432
     20          6           0       -6.152599    4.923565    0.237594
     21          6           0       -6.756569    3.571499    0.134908
     22          6           0       -4.092931    5.697065    1.576394
     23          6           0       -6.743288    6.229769   -0.200436
     24          8           0       -7.779861    6.284373   -0.807947
     25          6           0       -6.039109    7.598887   -0.079412
     26          7           0       -8.004232    0.783309   -0.346982
     27          6           0       -8.639831    1.918623   -0.501264
     28          6           0      -10.209819    1.651235   -0.724782
     29          6           0      -10.232586    0.170334   -1.037838
     30          6           0       -8.841086   -0.281198   -0.659417
     31          6           0      -10.914660    2.022306    0.654967
     32          6           0      -10.523405   -0.157451   -2.526300
     33          6           0      -11.663836   -1.110723   -2.791933
     34          7           0       -6.276832   -1.485855    0.095910
     35          6           0       -7.348328   -2.223632   -0.190588
     36          6           0       -7.011816   -3.691305   -0.145857
     37          6           0       -5.650029   -3.723345    0.263041
     38          6           0       -5.233224   -2.342104    0.255641
     39          6           0       -8.148162   -4.753058   -0.167167
     40          6           0       -4.515940   -4.563862    0.480119
     41          8           0       -4.410500   -5.784561    0.460175
     42          6           0       -3.282527   -3.601147    0.760107
     43          6           0       -2.241233   -3.797229   -0.293757
     44          8           0       -2.154020   -3.290426   -1.396338
     45          8           0       -1.352790   -4.730239    0.182735
     46          6           0       -0.319761   -5.221835   -0.692950
     47          6           0        3.769693   -1.764831   -1.232718
     48          6           0        5.005686   -1.829343   -0.449887
     49          6           0        5.625996   -3.016114   -0.123581
     50          6           0        5.215175   -4.435154   -0.490968
     51          6           0        7.056723   -2.933800    0.473525
     52          6           0        8.127634   -2.018392   -0.198299
     53          6           0        8.283606   -0.655334    0.457540
     54          6           0        9.756565   -0.258836    0.602883
     55          6           0       10.272316   -0.518716    2.075432
     56          6           0       10.009042    1.273193    0.182195
     57          6           0       10.549810    1.571317   -1.242969
     58          6           0       11.659494    2.615568   -1.138329
     59          6           0       12.698209    2.647390   -2.215475
     60          6           0       12.404416    3.706244   -3.326762
     61          6           0       14.090092    2.984045   -1.548770
     62          6           0       14.987683    1.771661   -1.171229
     63          6           0       15.387198    1.618376    0.343209
     64          6           0       15.099816    0.195458    0.959228
     65          6           0       13.609888   -0.206232    0.662508
     66          6           0       15.321158    0.107022    2.502822
     67          1           0       -2.807351    3.139522    1.928771
     68          1           0       -8.858903    4.007623   -0.104577
     69          1           0       -9.348594   -2.252886   -0.961413
     70          1           0       -1.553760   -1.321762    2.332556
     71          1           0       -1.180548    1.425672    2.088940
     72          1           0       -1.570201   -0.235735    4.138723
     73          1           0       -3.062955    0.640573    4.123685
     74          1           0       -1.391152    1.471049    4.136551
     75          1           0       -0.559393    0.353146    0.175833
     76          1           0       -1.544550   -0.882956   -0.582901
     77          1           0        0.251075   -2.468965    0.636413
     78          1           0        0.864287   -0.942205    1.337658
     79          1           0       -3.538069    5.230078    2.389924
     80          1           0       -4.506015    6.631069    1.958178
     81          1           0       -3.387167    6.043490    0.820910
     82          1           0       -5.850205    7.854519    0.963508
     83          1           0       -6.727988    8.285297   -0.571111
     84          1           0       -5.234011    7.461071   -0.800185
     85          1           0      -10.645605    2.214337   -1.549354
     86          1           0      -10.890387   -0.364874   -0.352152
     87          1           0      -11.634995    1.220902    0.820047
     88          1           0      -11.554510    2.884642    0.467313
     89          1           0      -10.296317    2.217324    1.530858
     90          1           0       -9.619094   -0.575012   -2.969392
     91          1           0      -10.693734    0.739082   -3.122083
     92          1           0      -12.250561   -0.610635   -3.562684
     93          1           0      -12.345531   -1.229858   -1.950230
     94          1           0      -11.345711   -2.098295   -3.126535
     95          1           0       -8.945794   -4.303131   -0.759159
     96          1           0       -8.543396   -5.030495    0.810501
     97          1           0       -7.628341   -5.644933   -0.518061
     98          1           0       -2.851662   -3.666498    1.758857
     99          1           0        0.273596   -6.071392   -0.354953
    100          1           0        0.417494   -4.426619   -0.804594
    101          1           0       -0.639744   -5.475003   -1.703847
    102          1           0        3.775002   -0.744498   -1.614671
    103          1           0        3.749826   -2.435178   -2.091986
    104          1           0        5.496336   -0.905857   -0.140685
    105          1           0        4.261813   -4.348160   -1.012311
    106          1           0        5.070904   -4.928347    0.470691
    107          1           0        5.992793   -5.003774   -1.000813
    108          1           0        7.446022   -3.944921    0.588096
    109          1           0        6.890255   -2.563216    1.485161
    110          1           0        7.697278   -1.754959   -1.164428
    111          1           0        9.009881   -2.655605   -0.263741
    112          1           0        7.668011   -0.641949    1.356949
    113          1           0        7.740991   -0.045506   -0.265478
    114          1           0       10.354227   -0.953565    0.011231
    115          1           0       11.147865   -1.165834    2.133728
    116          1           0        9.513855   -1.074931    2.625352
    117          1           0       10.320472    0.382065    2.686352
    118          1           0       10.473578    1.863407    0.971477
    119          1           0        9.032282    1.728292    0.017610
    120          1           0        9.766358    1.906432   -1.923036
    121          1           0       10.995901    0.664185   -1.651631
    122          1           0       12.081344    2.622708   -0.133682
    123          1           0       11.246019    3.622202   -1.084449
    124          1           0       12.626206    1.681191   -2.716120
    125          1           0       13.002956    4.608069   -3.200575
    126          1           0       11.348997    3.981530   -3.337215
    127          1           0       12.765302    3.342298   -4.288817
    128          1           0       13.895142    3.502639   -0.610085
    129          1           0       14.687703    3.614896   -2.207802
    130          1           0       15.861217    1.814860   -1.821972
    131          1           0       14.448611    0.861278   -1.432665
    132          1           0       14.914609    2.358206    0.990831
    133          1           0       16.476811    1.636408    0.363888
    134          1           0       15.793840   -0.472740    0.447853
    135          1           0       12.908623    0.606971    0.474538
    136          1           0       13.191496   -0.853309    1.434107
    137          1           0       13.713408   -0.900406   -0.171744
    138          1           0       16.201564   -0.503596    2.707792
    139          1           0       14.471629   -0.328007    3.029365
    140          1           0       15.533737    1.047893    3.009955
 ---------------------------------------------------------------------

 SCF Done:  E(RwB97XD) =  -3007.83065897     A.U. after   19 cycles

 Excitation energies and oscillator strengths:

 Excited State   1:      Singlet-A      1.5872 eV  781.14 nm  f=0.4309  <S**2>=0.000
     245 -> 248        0.16171
     246 -> 247        0.69023
     245 <- 248        0.11206
 This state for optimization and/or second-order correction.
 Total Energy, E(TD-HF/TD-DFT) =  -3007.77232969
 Copying the excited state density for this state as the 1-particle RhoCI density.

 Excited State   2:      Singlet-A      2.1078 eV  588.22 nm  f=0.1746  <S**2>=0.000
     245 -> 247        0.66471
     246 -> 248       -0.22328

 Excited State   3:      Singlet-A      3.1523 eV  393.32 nm  f=0.0110  <S**2>=0.000
     242 -> 247       -0.23406
     244 -> 247        0.63726

 Excited State   4:      Singlet-A      3.4024 eV  364.40 nm  f=0.0038  <S**2>=0.000
     242 -> 247        0.57670
     242 -> 249       -0.13234
     242 -> 250        0.16938
     244 -> 247        0.17363
     244 -> 250        0.14775

 Excited State   5:      Singlet-A      3.5478 eV  349.46 nm  f=0.0029  <S**2>=0.000
     239 -> 247       -0.14134
     240 -> 249       -0.14078
     241 -> 247        0.63250
     242 -> 247        0.12641
     246 -> 248        0.11418

 The electronic state is 1-A.
 Alpha  occ. eigenvalues --  -46.94473 -19.30303 -19.30095 -19.24958 -19.24555
 Alpha  occ. eigenvalues --  -19.24207 -19.22972 -14.47211 -14.46360 -14.44071
 Alpha  occ. eigenvalues --  -14.44065 -10.43375 -10.43273 -10.39440 -10.38183
 Alpha  occ. eigenvalues --  -10.35268 -10.35200 -10.35096 -10.35032 -10.34876
 Alpha  occ. eigenvalues --  -10.34797 -10.34031 -10.33832 -10.33699 -10.32968
 Alpha  occ. eigenvalues --  -10.32943 -10.32887 -10.32813 -10.32398 -10.32255
 Alpha  occ. eigenvalues --  -10.31913 -10.31874 -10.31832 -10.31551 -10.31060
 Alpha  occ. eigenvalues --  -10.30989 -10.30832 -10.30634 -10.30621 -10.30547
 Alpha  occ. eigenvalues --  -10.30479 -10.30324 -10.30321 -10.30201 -10.30173
 Alpha  occ. eigenvalues --  -10.30051 -10.29923 -10.29896 -10.29851 -10.29613
 Alpha  occ. eigenvalues --  -10.29497 -10.29396 -10.29252 -10.29122 -10.29088
 Alpha  occ. eigenvalues --  -10.28899 -10.28885 -10.28863 -10.28830 -10.28676
 Alpha  occ. eigenvalues --  -10.28594 -10.28497 -10.28139 -10.28037 -10.28013
 Alpha  occ. eigenvalues --  -10.27873  -3.20575  -1.94169  -1.93677  -1.93589
 Alpha  occ. eigenvalues --   -1.18636  -1.17502  -1.12851  -1.11958  -1.10206
 Alpha  occ. eigenvalues --   -1.08435  -1.06774  -1.05917  -1.05719  -1.04291
 Alpha  occ. eigenvalues --   -0.94438  -0.92303  -0.91727  -0.91432  -0.90599
 Alpha  occ. eigenvalues --   -0.90354  -0.89935  -0.89468  -0.89112  -0.88988
 Alpha  occ. eigenvalues --   -0.87522  -0.87308  -0.86075  -0.85618  -0.85132
 Alpha  occ. eigenvalues --   -0.84360  -0.83579  -0.82936  -0.82849  -0.82287
 Alpha  occ. eigenvalues --   -0.81855  -0.80381  -0.79886  -0.79333  -0.78207
 Alpha  occ. eigenvalues --   -0.77624  -0.77082  -0.76785  -0.76472  -0.75888
 Alpha  occ. eigenvalues --   -0.75131  -0.74300  -0.72760  -0.71893  -0.71146
 Alpha  occ. eigenvalues --   -0.70577  -0.70371  -0.69621  -0.68174  -0.67570
 Alpha  occ. eigenvalues --   -0.67315  -0.67080  -0.66604  -0.66513  -0.66300
 Alpha  occ. eigenvalues --   -0.65141  -0.65076  -0.64355  -0.63929  -0.62307
 Alpha  occ. eigenvalues --   -0.61757  -0.61308  -0.61190  -0.60663  -0.60122
 Alpha  occ. eigenvalues --   -0.59530  -0.58937  -0.58491  -0.57805  -0.57478
 Alpha  occ. eigenvalues --   -0.56774  -0.56531  -0.56308  -0.56151  -0.55694
 Alpha  occ. eigenvalues --   -0.55599  -0.55307  -0.54975  -0.54921  -0.54694
 Alpha  occ. eigenvalues --   -0.54620  -0.54171  -0.53893  -0.53828  -0.53717
 Alpha  occ. eigenvalues --   -0.53545  -0.53098  -0.52857  -0.52747  -0.52549
 Alpha  occ. eigenvalues --   -0.52313  -0.52169  -0.52115  -0.51635  -0.51400
 Alpha  occ. eigenvalues --   -0.51184  -0.50938  -0.50849  -0.50713  -0.50521
 Alpha  occ. eigenvalues --   -0.50375  -0.50135  -0.49943  -0.49762  -0.49523
 Alpha  occ. eigenvalues --   -0.49005  -0.48956  -0.48656  -0.48633  -0.48418
 Alpha  occ. eigenvalues --   -0.48331  -0.48207  -0.48103  -0.47870  -0.47678
 Alpha  occ. eigenvalues --   -0.47389  -0.47285  -0.47185  -0.46960  -0.46859
 Alpha  occ. eigenvalues --   -0.46623  -0.46331  -0.46289  -0.46071  -0.46000
 Alpha  occ. eigenvalues --   -0.45871  -0.45460  -0.45379  -0.44783  -0.44758
 Alpha  occ. eigenvalues --   -0.44509  -0.44386  -0.44206  -0.43741  -0.43648
 Alpha  occ. eigenvalues --   -0.43630  -0.43360  -0.43103  -0.43066  -0.42921
 Alpha  occ. eigenvalues --   -0.42439  -0.42320  -0.42174  -0.41876  -0.41769
 Alpha  occ. eigenvalues --   -0.41361  -0.41307  -0.41060  -0.40919  -0.40808
 Alpha  occ. eigenvalues --   -0.40367  -0.40353  -0.40115  -0.39643  -0.39138
 Alpha  occ. eigenvalues --   -0.38967  -0.38708  -0.38635  -0.38311  -0.38279
 Alpha  occ. eigenvalues --   -0.38037  -0.37401  -0.36678  -0.36523  -0.36416
 Alpha  occ. eigenvalues --   -0.36068  -0.35964  -0.35091  -0.33839  -0.33136
 Alpha  occ. eigenvalues --   -0.32301  -0.32168  -0.31888  -0.31556  -0.26058
 Alpha  occ. eigenvalues --   -0.23140
 Alpha virt. eigenvalues --   -0.07752   0.01291   0.02126   0.04347   0.05711
 Alpha virt. eigenvalues --    0.06166   0.07040   0.07718   0.08116   0.09125
 Alpha virt. eigenvalues --    0.11110   0.11899   0.12146   0.12383   0.12514

 Mulliken charges:
               1
     1  Mg   0.987545
     2  C   -0.041441
     3  C   -0.105106
     4  C   -0.047271
     5  C   -0.089694
     6  N   -0.407076
     7  C    0.000911
     8  C   -0.053354
     9  C   -0.154783
    10  C    0.127977
    11  C    0.014503
    12  C    0.037540
    13  C   -0.024187
    14  C    0.253544
    15  O   -0.283663
    16  O   -0.368716
    17  N   -0.429877
    18  C    0.177041
    19  C   -0.154440
    20  C   -0.067731
    21  C    0.101281
    22  C    0.060130
    23  C   -0.010949
    24  O   -0.226331
    25  C   -0.003262
    26  N   -0.368408
    27  C    0.083030
    28  C   -0.103952
    29  C   -0.065492
    30  C    0.071030
    31  C    0.009998
    32  C   -0.004644
    33  C   -0.051916
    34  N   -0.381942
    35  C    0.105190
    36  C   -0.164735
    37  C   -0.035329
    38  C    0.132107
    39  C    0.051361
    40  C    0.143346
    41  O   -0.203409
    42  C   -0.092013
    43  C    0.271884
    44  O   -0.231943
    45  O   -0.356785
    46  C    0.152055
    47  C    0.253258
    48  C   -0.162911
    49  C   -0.191112
    50  C    0.045269
    51  C   -0.005942
    52  C   -0.037386
    53  C    0.006740
    54  C   -0.155728
    55  C   -0.002808
    56  C   -0.005329
    57  C    0.008832
    58  C   -0.030025
    59  C   -0.169953
    60  C    0.002140
    61  C    0.016682
    62  C   -0.029116
    63  C    0.007682
    64  C   -0.228262
    65  C   -0.017984
    66  C   -0.001862
    67  H   -0.006205
    68  H    0.033974
    69  H   -0.012373
    70  H    0.011432
    71  H    0.032066
    72  H    0.028145
    73  H    0.049228
    74  H    0.038299
    75  H    0.026920
    76  H    0.072368
    77  H    0.059169
    78  H    0.057808
    79  H    0.040516
    80  H    0.034433
    81  H    0.053913
    82  H    0.061995
    83  H    0.049582
    84  H    0.055405
    85  H    0.038587
    86  H    0.033805
    87  H    0.025217
    88  H    0.038048
    89  H    0.066185
    90  H    0.038231
    91  H    0.028917
    92  H    0.034510
    93  H    0.029981
    94  H    0.046510
    95  H    0.041225
    96  H    0.061043
    97  H    0.063437
    98  H    0.076310
    99  H    0.054243
   100  H    0.025915
   101  H    0.055148
   102  H    0.044973
   103  H    0.056576
   104  H    0.020189
   105  H    0.037927
   106  H    0.048200
   107  H    0.056448
   108  H    0.007321
   109  H    0.034455
   110  H    0.029710
   111  H    0.035119
   112  H    0.023640
   113  H    0.020330
   114  H    0.029340
   115  H    0.038249
   116  H    0.004949
   117  H    0.029928
   118  H    0.023356
   119  H    0.014712
   120  H    0.028940
   121  H    0.014228
   122  H    0.004240
   123  H   -0.001372
   124  H    0.019064
   125  H    0.021121
   126  H    0.029554
   127  H    0.027934
   128  H    0.015129
   129  H    0.017541
   130  H    0.023002
   131  H    0.011614
   132  H    0.024189
   133  H    0.022343
   134  H    0.028622
   135  H    0.042181
   136  H    0.015348
   137  H    0.027171
   138  H    0.026615
   139  H    0.026746
   140  H    0.022174
 Sum of Mulliken charges =  -0.00000

 Dipole moment (field-independent basis, Debye):
    X=              2.5972    Y=              1.4946    Z=              3.2676  Tot=              4.4336
 Quadrupole moment (field-independent basis, Debye-Ang):
   XX=           -360.6364   YY=           -415.0390   ZZ=           -404.0785
   XY=             -8.8698   XZ=             -2.8511   YZ=             11.9990

 Normal termination of Gaussian 16 at Fri Apr 29 15:50:58 2022.
