 Gaussian 16, Revision A.03,
 Gaussian 16:  ES64L-G16RevA.03 25-Dec-2016

 --------------------
 #p ZINDO=(nstates=5)
 --------------------

 -----------------------------
 step_351_chromophore_22 ZINDO
 -----------------------------
 Symbolic Z-matrix:
 Charge =  0 Multiplicity = 1

                         Standard orientation:
 ---------------------------------------------------------------------
 Center     Atomic      Atomic             Coordinates (Angstroms)
 Number     Number       Type             X           Y           Z
 ---------------------------------------------------------------------
      1         12           0       -5.971872    0.606073    0.089747
      2          6           0       -3.903446   -2.144250    0.672027
      3          6           0       -3.650421    2.557846    1.548683
      4          6           0       -8.148486    3.193522   -0.261439
      5          6           0       -8.556232   -1.594596   -0.600300
      6          7           0       -4.115257    0.200925    0.965270
      7          6           0       -3.394125   -0.978238    1.095587
      8          6           0       -1.887418   -0.673441    1.522904
      9          6           0       -2.019402    0.737423    2.191095
     10          6           0       -3.378844    1.216071    1.555795
     11          6           0       -2.035013    0.675404    3.761653
     12          6           0       -0.884759   -0.683306    0.260903
     13          6           0        0.475927   -1.421025    0.439093
     14          6           0        1.495712   -1.349948   -0.679463
     15          8           0        1.338161   -0.829910   -1.807619
     16          8           0        2.655694   -1.960506   -0.262542
     17          7           0       -5.807097    2.668781    0.442017
     18          6           0       -4.776656    3.298741    1.073066
     19          6           0       -4.982994    4.697188    1.046432
     20          6           0       -6.152599    4.923565    0.237594
     21          6           0       -6.756569    3.571499    0.134908
     22          6           0       -4.092931    5.697065    1.576394
     23          6           0       -6.743288    6.229769   -0.200436
     24          8           0       -7.779861    6.284373   -0.807947
     25          6           0       -6.039109    7.598887   -0.079412
     26          7           0       -8.004232    0.783309   -0.346982
     27          6           0       -8.639831    1.918623   -0.501264
     28          6           0      -10.209819    1.651235   -0.724782
     29          6           0      -10.232586    0.170334   -1.037838
     30          6           0       -8.841086   -0.281198   -0.659417
     31          6           0      -10.914660    2.022306    0.654967
     32          6           0      -10.523405   -0.157451   -2.526300
     33          6           0      -11.663836   -1.110723   -2.791933
     34          7           0       -6.276832   -1.485855    0.095910
     35          6           0       -7.348328   -2.223632   -0.190588
     36          6           0       -7.011816   -3.691305   -0.145857
     37          6           0       -5.650029   -3.723345    0.263041
     38          6           0       -5.233224   -2.342104    0.255641
     39          6           0       -8.148162   -4.753058   -0.167167
     40          6           0       -4.515940   -4.563862    0.480119
     41          8           0       -4.410500   -5.784561    0.460175
     42          6           0       -3.282527   -3.601147    0.760107
     43          6           0       -2.241233   -3.797229   -0.293757
     44          8           0       -2.154020   -3.290426   -1.396338
     45          8           0       -1.352790   -4.730239    0.182735
     46          6           0       -0.319761   -5.221835   -0.692950
     47          6           0        3.769693   -1.764831   -1.232718
     48          6           0        5.005686   -1.829343   -0.449887
     49          6           0        5.625996   -3.016114   -0.123581
     50          6           0        5.215175   -4.435154   -0.490968
     51          6           0        7.056723   -2.933800    0.473525
     52          6           0        8.127634   -2.018392   -0.198299
     53          6           0        8.283606   -0.655334    0.457540
     54          6           0        9.756565   -0.258836    0.602883
     55          6           0       10.272316   -0.518716    2.075432
     56          6           0       10.009042    1.273193    0.182195
     57          6           0       10.549810    1.571317   -1.242969
     58          6           0       11.659494    2.615568   -1.138329
     59          6           0       12.698209    2.647390   -2.215475
     60          6           0       12.404416    3.706244   -3.326762
     61          6           0       14.090092    2.984045   -1.548770
     62          6           0       14.987683    1.771661   -1.171229
     63          6           0       15.387198    1.618376    0.343209
     64          6           0       15.099816    0.195458    0.959228
     65          6           0       13.609888   -0.206232    0.662508
     66          6           0       15.321158    0.107022    2.502822
     67          1           0       -2.807351    3.139522    1.928771
     68          1           0       -8.858903    4.007623   -0.104577
     69          1           0       -9.348594   -2.252886   -0.961413
     70          1           0       -1.553760   -1.321762    2.332556
     71          1           0       -1.180548    1.425672    2.088940
     72          1           0       -1.570201   -0.235735    4.138723
     73          1           0       -3.062955    0.640573    4.123685
     74          1           0       -1.391152    1.471049    4.136551
     75          1           0       -0.559393    0.353146    0.175833
     76          1           0       -1.544550   -0.882956   -0.582901
     77          1           0        0.251075   -2.468965    0.636413
     78          1           0        0.864287   -0.942205    1.337658
     79          1           0       -3.538069    5.230078    2.389924
     80          1           0       -4.506015    6.631069    1.958178
     81          1           0       -3.387167    6.043490    0.820910
     82          1           0       -5.850205    7.854519    0.963508
     83          1           0       -6.727988    8.285297   -0.571111
     84          1           0       -5.234011    7.461071   -0.800185
     85          1           0      -10.645605    2.214337   -1.549354
     86          1           0      -10.890387   -0.364874   -0.352152
     87          1           0      -11.634995    1.220902    0.820047
     88          1           0      -11.554510    2.884642    0.467313
     89          1           0      -10.296317    2.217324    1.530858
     90          1           0       -9.619094   -0.575012   -2.969392
     91          1           0      -10.693734    0.739082   -3.122083
     92          1           0      -12.250561   -0.610635   -3.562684
     93          1           0      -12.345531   -1.229858   -1.950230
     94          1           0      -11.345711   -2.098295   -3.126535
     95          1           0       -8.945794   -4.303131   -0.759159
     96          1           0       -8.543396   -5.030495    0.810501
     97          1           0       -7.628341   -5.644933   -0.518061
     98          1           0       -2.851662   -3.666498    1.758857
     99          1           0        0.273596   -6.071392   -0.354953
    100          1           0        0.417494   -4.426619   -0.804594
    101          1           0       -0.639744   -5.475003   -1.703847
    102          1           0        3.775002   -0.744498   -1.614671
    103          1           0        3.749826   -2.435178   -2.091986
    104          1           0        5.496336   -0.905857   -0.140685
    105          1           0        4.261813   -4.348160   -1.012311
    106          1           0        5.070904   -4.928347    0.470691
    107          1           0        5.992793   -5.003774   -1.000813
    108          1           0        7.446022   -3.944921    0.588096
    109          1           0        6.890255   -2.563216    1.485161
    110          1           0        7.697278   -1.754959   -1.164428
    111          1           0        9.009881   -2.655605   -0.263741
    112          1           0        7.668011   -0.641949    1.356949
    113          1           0        7.740991   -0.045506   -0.265478
    114          1           0       10.354227   -0.953565    0.011231
    115          1           0       11.147865   -1.165834    2.133728
    116          1           0        9.513855   -1.074931    2.625352
    117          1           0       10.320472    0.382065    2.686352
    118          1           0       10.473578    1.863407    0.971477
    119          1           0        9.032282    1.728292    0.017610
    120          1           0        9.766358    1.906432   -1.923036
    121          1           0       10.995901    0.664185   -1.651631
    122          1           0       12.081344    2.622708   -0.133682
    123          1           0       11.246019    3.622202   -1.084449
    124          1           0       12.626206    1.681191   -2.716120
    125          1           0       13.002956    4.608069   -3.200575
    126          1           0       11.348997    3.981530   -3.337215
    127          1           0       12.765302    3.342298   -4.288817
    128          1           0       13.895142    3.502639   -0.610085
    129          1           0       14.687703    3.614896   -2.207802
    130          1           0       15.861217    1.814860   -1.821972
    131          1           0       14.448611    0.861278   -1.432665
    132          1           0       14.914609    2.358206    0.990831
    133          1           0       16.476811    1.636408    0.363888
    134          1           0       15.793840   -0.472740    0.447853
    135          1           0       12.908623    0.606971    0.474538
    136          1           0       13.191496   -0.853309    1.434107
    137          1           0       13.713408   -0.900406   -0.171744
    138          1           0       16.201564   -0.503596    2.707792
    139          1           0       14.471629   -0.328007    3.029365
    140          1           0       15.533737    1.047893    3.009955
 ---------------------------------------------------------------------

 SCF Done:  E(RZINDO/S) =  -474.181046320     A.U. after   20 cycles

 Excitation energies and oscillator strengths:

 Excited State   1:      Singlet-A      1.2179 eV 1017.99 nm  f=0.6972  <S**2>=0.000
     175 ->178         0.15529
     176 ->177         0.66789
 This state for optimization and/or second-order correction.
 Total Energy, E(CIS/TDA) =  -474.136288050
 Copying the excited state density for this state as the 1-particle RhoCI density.

 Excited State   2:      Singlet-A      1.9224 eV  644.94 nm  f=0.1271  <S**2>=0.000
     175 ->177         0.59524
     176 ->178        -0.32759
     176 ->179         0.12416

 Excited State   3:      Singlet-A      2.8493 eV  435.15 nm  f=0.0084  <S**2>=0.000
     169 ->177         0.26187
     169 ->179         0.23749
     169 ->180         0.33791
     169 ->186        -0.19017
     172 ->177        -0.20306
     173 ->177        -0.27427

 Excited State   4:      Singlet-A      2.9389 eV  421.87 nm  f=0.2403  <S**2>=0.000
     172 ->177        -0.13085
     175 ->177         0.18139
     176 ->178         0.50941
     176 ->179         0.37072

 Excited State   5:      Singlet-A      3.0110 eV  411.77 nm  f=0.0058  <S**2>=0.000
     168 ->177        -0.16131
     168 ->178         0.14963
     168 ->179         0.16922
     169 ->177         0.16527
     169 ->179         0.12390
     169 ->180         0.14807
     171 ->177        -0.10668
     172 ->177         0.31040
     173 ->177         0.37208
     176 ->179         0.18803

 The electronic state is 1-A.
 Alpha  occ. eigenvalues --   -1.84008  -1.82013  -1.80526  -1.72610  -1.71868
 Alpha  occ. eigenvalues --   -1.70240  -1.65134  -1.60963  -1.60311  -1.57802
 Alpha  occ. eigenvalues --   -1.53861  -1.50550  -1.48628  -1.48517  -1.46555
 Alpha  occ. eigenvalues --   -1.43707  -1.41637  -1.40516  -1.38662  -1.38534
 Alpha  occ. eigenvalues --   -1.36256  -1.32732  -1.31907  -1.31308  -1.29686
 Alpha  occ. eigenvalues --   -1.28336  -1.24398  -1.23256  -1.20603  -1.18591
 Alpha  occ. eigenvalues --   -1.17898  -1.15888  -1.14783  -1.13063  -1.13037
 Alpha  occ. eigenvalues --   -1.11942  -1.11061  -1.10366  -1.05068  -1.03598
 Alpha  occ. eigenvalues --   -1.01970  -1.00338  -0.98910  -0.97713  -0.96739
 Alpha  occ. eigenvalues --   -0.95874  -0.94521  -0.94085  -0.93183  -0.91451
 Alpha  occ. eigenvalues --   -0.90624  -0.90589  -0.88849  -0.87879  -0.86233
 Alpha  occ. eigenvalues --   -0.86057  -0.84180  -0.83168  -0.81850  -0.80767
 Alpha  occ. eigenvalues --   -0.79483  -0.78320  -0.77955  -0.76917  -0.76781
 Alpha  occ. eigenvalues --   -0.75361  -0.75186  -0.74497  -0.73668  -0.73524
 Alpha  occ. eigenvalues --   -0.73202  -0.72640  -0.72020  -0.71024  -0.70587
 Alpha  occ. eigenvalues --   -0.70187  -0.69350  -0.68931  -0.68446  -0.68201
 Alpha  occ. eigenvalues --   -0.67242  -0.66977  -0.66689  -0.66019  -0.65829
 Alpha  occ. eigenvalues --   -0.65240  -0.64916  -0.64430  -0.63735  -0.63299
 Alpha  occ. eigenvalues --   -0.63018  -0.62934  -0.61994  -0.61735  -0.61734
 Alpha  occ. eigenvalues --   -0.61340  -0.60821  -0.60111  -0.60026  -0.59787
 Alpha  occ. eigenvalues --   -0.59448  -0.59319  -0.59188  -0.59008  -0.58371
 Alpha  occ. eigenvalues --   -0.57484  -0.57186  -0.57066  -0.56485  -0.55993
 Alpha  occ. eigenvalues --   -0.55907  -0.55566  -0.55320  -0.54842  -0.54752
 Alpha  occ. eigenvalues --   -0.54494  -0.54186  -0.53547  -0.53109  -0.52996
 Alpha  occ. eigenvalues --   -0.52485  -0.52230  -0.51966  -0.51459  -0.51210
 Alpha  occ. eigenvalues --   -0.50765  -0.50569  -0.50264  -0.50201  -0.49796
 Alpha  occ. eigenvalues --   -0.49618  -0.49184  -0.48965  -0.48719  -0.48554
 Alpha  occ. eigenvalues --   -0.48534  -0.48182  -0.47889  -0.47829  -0.47413
 Alpha  occ. eigenvalues --   -0.47317  -0.47088  -0.46899  -0.46734  -0.46243
 Alpha  occ. eigenvalues --   -0.46187  -0.46073  -0.45746  -0.45578  -0.45375
 Alpha  occ. eigenvalues --   -0.45230  -0.44844  -0.44621  -0.44496  -0.43882
 Alpha  occ. eigenvalues --   -0.43348  -0.42983  -0.42563  -0.42328  -0.42102
 Alpha  occ. eigenvalues --   -0.41965  -0.41541  -0.41487  -0.38874  -0.38832
 Alpha  occ. eigenvalues --   -0.38575  -0.37192  -0.35505  -0.34787  -0.34434
 Alpha  occ. eigenvalues --   -0.32971  -0.32594  -0.32217  -0.31652  -0.26796
 Alpha  occ. eigenvalues --   -0.21913
 Alpha virt. eigenvalues --   -0.09138  -0.01298  -0.00494   0.01211   0.01687
 Alpha virt. eigenvalues --    0.02395   0.02786   0.03022   0.04221   0.05288
 Alpha virt. eigenvalues --    0.06549   0.07199   0.07470   0.07982   0.08195

 Mulliken charges:
               1
     1  Mg   0.426520
     2  C   -0.027588
     3  C   -0.070346
     4  C   -0.093285
     5  C   -0.068439
     6  N   -0.280679
     7  C    0.106942
     8  C   -0.009559
     9  C   -0.012190
    10  C    0.133760
    11  C   -0.057585
    12  C   -0.033113
    13  C    0.013445
    14  C    0.469474
    15  O   -0.517320
    16  O   -0.262910
    17  N   -0.315336
    18  C    0.110656
    19  C    0.031079
    20  C   -0.057913
    21  C    0.154892
    22  C   -0.037385
    23  C    0.316863
    24  O   -0.521115
    25  C   -0.038168
    26  N   -0.269709
    27  C    0.159535
    28  C   -0.001728
    29  C    0.005436
    30  C    0.123046
    31  C   -0.056464
    32  C   -0.025287
    33  C   -0.055792
    34  N   -0.298212
    35  C    0.100548
    36  C   -0.001472
    37  C   -0.045959
    38  C    0.097455
    39  C   -0.044515
    40  C    0.344686
    41  O   -0.517056
    42  C    0.046874
    43  C    0.492691
    44  O   -0.511190
    45  O   -0.269418
    46  C    0.075972
    47  C    0.109818
    48  C   -0.094139
    49  C   -0.014774
    50  C   -0.040788
    51  C   -0.038614
    52  C   -0.037386
    53  C   -0.028377
    54  C   -0.008616
    55  C   -0.068321
    56  C   -0.050136
    57  C   -0.030064
    58  C   -0.034392
    59  C   -0.009702
    60  C   -0.061550
    61  C   -0.037224
    62  C   -0.044687
    63  C   -0.037416
    64  C   -0.014617
    65  C   -0.066379
    66  C   -0.059899
    67  H    0.018673
    68  H    0.044328
    69  H    0.021491
    70  H    0.024172
    71  H    0.034291
    72  H    0.014320
    73  H    0.027837
    74  H    0.022676
    75  H    0.016887
    76  H    0.054157
    77  H    0.046816
    78  H    0.040775
    79  H    0.019405
    80  H    0.027637
    81  H    0.033648
    82  H    0.044208
    83  H    0.038031
    84  H    0.044073
    85  H    0.038230
    86  H    0.031614
    87  H    0.015320
    88  H    0.016853
    89  H    0.039160
    90  H    0.020577
    91  H    0.020443
    92  H    0.015077
    93  H    0.017695
    94  H    0.024923
    95  H    0.033627
    96  H    0.033738
    97  H    0.037829
    98  H    0.056471
    99  H    0.035396
   100  H    0.027867
   101  H    0.047637
   102  H    0.040662
   103  H    0.055641
   104  H    0.037411
   105  H    0.027357
   106  H    0.027390
   107  H    0.036353
   108  H    0.011933
   109  H    0.019840
   110  H    0.020608
   111  H    0.026188
   112  H    0.027041
   113  H    0.014553
   114  H    0.026631
   115  H    0.026823
   116  H    0.006715
   117  H    0.023776
   118  H    0.030719
   119  H    0.010531
   120  H    0.025696
   121  H    0.016814
   122  H    0.017233
   123  H    0.007285
   124  H    0.024304
   125  H    0.016520
   126  H    0.022067
   127  H    0.015295
   128  H    0.022391
   129  H    0.017568
   130  H    0.018364
   131  H    0.019101
   132  H    0.029431
   133  H    0.014473
   134  H    0.024653
   135  H    0.034324
   136  H    0.013169
   137  H    0.012035
   138  H    0.012517
   139  H    0.020906
   140  H    0.016924
 Sum of Mulliken charges =  -0.00000

 Dipole moment (field-independent basis, Debye):
    X=              2.8803    Y=              3.7192    Z=              6.6228  Tot=              8.1234
 N-N= 4.247269843565D+03 E-N= 0.000000000000D+00  KE=-9.169089239485D+03
 Leave Link  601 at Fri Apr 29 16:09:12 2022, MaxMem=  6710886400 cpu:               0.8 elap:               0.1
 (Enter /sw/apps/gaussian-16.0/g16/l9999.exe)
 1\1\GINC-BP1-COMPUTE137\SP\RZINDO CIS\STO-3G\C55H74Mg1N4O6\OF15641\29-
 Apr-2022\0\\#p ZINDO=(nstates=5)\\step_351_chromophore_22 ZINDO\\0,1\M
 g,0,8.43,48.638,24.907\C,0,6.184,48.825,27.572\C,0,10.841,49.767,26.96
 6\C,0,10.496,48.692,22.208\C,0,5.727,48.303,22.767\N,0,8.434,49.205,26
 .921\C,0,7.435,49.193,27.885\C,0,8.055,49.389,29.342\C,0,9.412,50.104,
 29.023\C,0,9.587,49.699,27.511\C,0,9.362,51.656,29.267\C,0,8.246,47.98
 7,30.114\C,0,7.814,47.934,31.61\C,0,8.089,46.673,32.404\O,0,8.554,45.5

 Normal termination of Gaussian 16 at Fri Apr 29 16:09:12 2022.
