 Gaussian 16, Revision A.03,
 Gaussian 16:  ES64L-G16RevA.03 25-Dec-2016

 ------------------------------
 #p blyp/Def2SVP td=(nstates=5)
 ------------------------------

 --------------------------------------------------
 step_101_chromophore_21 TDDFT with blyp functional
 --------------------------------------------------
 Symbolic Z-matrix:
 Charge =  0 Multiplicity = 1

                         Standard orientation:
 ---------------------------------------------------------------------
 Center     Atomic      Atomic             Coordinates (Angstroms)
 Number     Number       Type             X           Y           Z
 ---------------------------------------------------------------------
      1         12           0        5.035479    0.836513    0.400748
      2          6           0        4.210615   -2.584974    0.266826
      3          6           0        2.198770    1.488497   -1.425419
      4          6           0        6.090308    3.934391    0.094633
      5          6           0        8.138537   -0.102441    1.758687
      6          7           0        3.438986   -0.451432   -0.549893
      7          6           0        3.198706   -1.787935   -0.271292
      8          6           0        1.710912   -2.195066   -0.522845
      9          6           0        1.183507   -0.974885   -1.335485
     10          6           0        2.282511    0.108504   -1.037689
     11          6           0        0.873991   -0.981109   -2.893403
     12          6           0        1.012592   -2.390536    0.868326
     13          6           0       -0.333656   -2.985058    0.899768
     14          6           0       -1.182407   -3.169112   -0.398990
     15          8           0       -0.843392   -3.853225   -1.319334
     16          8           0       -2.347796   -2.381770   -0.408162
     17          7           0        4.289388    2.456018   -0.571951
     18          6           0        3.057815    2.543154   -1.221705
     19          6           0        2.916963    3.862966   -1.788180
     20          6           0        4.128343    4.566138   -1.518959
     21          6           0        4.918039    3.660554   -0.615049
     22          6           0        1.736844    4.284667   -2.602753
     23          6           0        4.641170    5.951321   -1.956587
     24          8           0        5.761200    6.327612   -1.740417
     25          6           0        3.738627    6.822597   -2.752155
     26          7           0        6.927542    1.804280    0.841636
     27          6           0        7.047864    3.152992    0.769762
     28          6           0        8.362227    3.663529    1.325765
     29          6           0        9.063234    2.278480    1.682745
     30          6           0        7.992441    1.224450    1.458843
     31          6           0        9.081165    4.640782    0.350643
     32          6           0        9.700666    2.248195    3.090474
     33          6           0       11.212950    2.375890    3.026802
     34          7           0        6.054950   -0.997825    0.873644
     35          6           0        7.291459   -1.220080    1.450992
     36          6           0        7.453301   -2.628766    1.706032
     37          6           0        6.327215   -3.231589    1.216746
     38          6           0        5.461181   -2.219054    0.699104
     39          6           0        8.604709   -3.168248    2.429296
     40          6           0        5.620964   -4.447584    1.102056
     41          8           0        5.860001   -5.581550    1.565298
     42          6           0        4.244488   -4.034533    0.534723
     43          6           0        3.709814   -4.775008   -0.680326
     44          8           0        3.993419   -4.649460   -1.850674
     45          8           0        2.900016   -5.803591   -0.240392
     46          6           0        2.537957   -6.831973   -1.200168
     47          6           0       -2.994511   -2.316147   -1.770130
     48          6           0       -4.285718   -1.554974   -1.599831
     49          6           0       -5.471192   -2.160574   -1.280369
     50          6           0       -5.639859   -3.538806   -0.709280
     51          6           0       -6.755958   -1.399828   -1.490485
     52          6           0       -7.111981   -1.242152   -2.936444
     53          6           0       -7.682194    0.167674   -3.200536
     54          6           0       -9.243632    0.207286   -3.145880
     55          6           0       -9.897195   -0.232997   -4.499431
     56          6           0       -9.846287    1.530226   -2.619682
     57          6           0      -10.905731    1.318670   -1.505101
     58          6           0      -10.233003    1.113811   -0.165841
     59          6           0      -11.080463    1.542667    0.992641
     60          6           0      -10.877127    3.064724    1.019868
     61          6           0      -10.590027    0.807974    2.271609
     62          6           0      -11.665065    0.202933    3.050668
     63          6           0      -12.102718    1.154904    4.188267
     64          6           0      -13.621788    1.202331    4.304922
     65          6           0      -14.180387    2.343465    3.335593
     66          6           0      -14.013639    1.415665    5.773816
     67          1           0        1.274775    1.609994   -1.995299
     68          1           0        6.470683    4.956182    0.047101
     69          1           0        9.084637   -0.323842    2.258215
     70          1           0        1.655189   -3.060858   -1.183736
     71          1           0        0.345500   -0.606154   -0.744598
     72          1           0        1.640598   -0.356170   -3.349266
     73          1           0       -0.136507   -0.650061   -3.132195
     74          1           0        1.004172   -2.007093   -3.236910
     75          1           0        1.159152   -1.526848    1.516796
     76          1           0        1.634533   -3.101235    1.413366
     77          1           0       -0.837045   -2.249759    1.527465
     78          1           0       -0.177458   -3.938489    1.403443
     79          1           0        1.429857    5.247989   -2.195849
     80          1           0        0.899357    3.636766   -2.343271
     81          1           0        1.906923    4.364611   -3.675709
     82          1           0        2.955978    7.184891   -2.085738
     83          1           0        3.432251    6.262719   -3.635843
     84          1           0        4.365121    7.658937   -3.062725
     85          1           0        8.201285    4.246552    2.232134
     86          1           0        9.882820    2.201056    0.968887
     87          1           0        8.605051    4.558819   -0.626363
     88          1           0       10.128167    4.367971    0.221693
     89          1           0        8.791501    5.650691    0.641738
     90          1           0        9.485310    1.391839    3.729491
     91          1           0        9.332793    3.154096    3.571545
     92          1           0       11.611799    1.365719    3.115681
     93          1           0       11.568509    2.841012    3.947116
     94          1           0       11.637186    3.016027    2.252688
     95          1           0        8.470444   -2.721951    3.414799
     96          1           0        9.583674   -2.963750    1.997316
     97          1           0        8.653539   -4.255639    2.498125
     98          1           0        3.528602   -4.155809    1.347603
     99          1           0        1.469836   -6.751208   -1.404550
    100          1           0        2.725395   -7.842088   -0.833923
    101          1           0        3.002533   -6.817214   -2.185988
    102          1           0       -3.119944   -3.306626   -2.209279
    103          1           0       -2.384710   -1.721464   -2.450061
    104          1           0       -4.354028   -0.588615   -2.098741
    105          1           0       -4.684115   -4.060030   -0.761652
    106          1           0       -6.214335   -3.908292   -1.558504
    107          1           0       -6.147878   -3.718947    0.238364
    108          1           0       -6.711343   -0.473293   -0.918790
    109          1           0       -7.567692   -1.900795   -0.963378
    110          1           0       -7.847410   -1.949232   -3.321605
    111          1           0       -6.245279   -1.237638   -3.597858
    112          1           0       -7.387009    0.583417   -4.163793
    113          1           0       -7.366740    0.845327   -2.406963
    114          1           0       -9.642445   -0.621175   -2.560596
    115          1           0      -10.923513   -0.552084   -4.319071
    116          1           0       -9.360918   -1.040090   -4.999390
    117          1           0      -10.021239    0.636493   -5.143886
    118          1           0      -10.404400    2.054498   -3.395520
    119          1           0       -9.108053    2.187515   -2.158482
    120          1           0      -11.398325    0.374025   -1.733481
    121          1           0      -11.658452    2.104037   -1.576954
    122          1           0       -9.184596    1.410115   -0.204068
    123          1           0      -10.240105    0.027192   -0.087211
    124          1           0      -12.123049    1.429667    0.694167
    125          1           0      -11.763626    3.640834    0.756515
    126          1           0      -10.156049    3.427582    0.287278
    127          1           0      -10.603012    3.463870    1.995959
    128          1           0       -9.994936    1.437953    2.932069
    129          1           0       -9.986553   -0.066553    2.023718
    130          1           0      -11.232837   -0.710813    3.456618
    131          1           0      -12.466359    0.034462    2.330877
    132          1           0      -11.714615    2.168107    4.083181
    133          1           0      -11.631429    0.719038    5.070068
    134          1           0      -14.100785    0.264088    4.021603
    135          1           0      -14.832424    1.804040    2.647891
    136          1           0      -13.330636    2.885824    2.921776
    137          1           0      -14.725484    3.084727    3.921007
    138          1           0      -13.262708    1.127154    6.508496
    139          1           0      -14.945122    0.907275    6.022685
    140          1           0      -14.145516    2.435073    6.136633
 ---------------------------------------------------------------------

 SCF Done:  E(RB-LYP) =  -3007.34584854     A.U. after   22 cycles

 Excitation energies and oscillator strengths:

 Excited State   1:      Singlet-A      1.8116 eV  684.41 nm  f=0.2859  <S**2>=0.000
     245 -> 248       -0.20374
     246 -> 247        0.68037
     246 <- 247       -0.13991
 This state for optimization and/or second-order correction.
 Total Energy, E(TD-HF/TD-DFT) =  -3007.27927528
 Copying the excited state density for this state as the 1-particle RhoCI density.

 Excited State   2:      Singlet-A      1.9403 eV  638.98 nm  f=0.0658  <S**2>=0.000
     244 -> 247        0.33896
     245 -> 247        0.56922
     246 -> 248        0.18871

 Excited State   3:      Singlet-A      2.0053 eV  618.27 nm  f=0.0153  <S**2>=0.000
     244 -> 247        0.61744
     245 -> 247       -0.30049
     246 -> 248       -0.12968

 Excited State   4:      Singlet-A      2.1545 eV  575.47 nm  f=0.0031  <S**2>=0.000
     243 -> 247        0.69342
     245 -> 247        0.10339

 Excited State   5:      Singlet-A      2.5419 eV  487.76 nm  f=0.0002  <S**2>=0.000
     241 -> 247        0.67445
     242 -> 247       -0.20765

 The electronic state is 1-A.
 Alpha  occ. eigenvalues --  -46.27225 -18.81931 -18.80917 -18.77930 -18.76113
 Alpha  occ. eigenvalues --  -18.75814 -18.74937 -14.03216 -14.02216 -14.00951
 Alpha  occ. eigenvalues --  -14.00220 -10.04649 -10.03176  -9.99737  -9.98931
 Alpha  occ. eigenvalues --   -9.98078  -9.96468  -9.96223  -9.96189  -9.96025
 Alpha  occ. eigenvalues --   -9.95907  -9.95522  -9.95512  -9.94921  -9.94217
 Alpha  occ. eigenvalues --   -9.94158  -9.93983  -9.93813  -9.93747  -9.93655
 Alpha  occ. eigenvalues --   -9.93622  -9.93524  -9.93291  -9.93155  -9.93131
 Alpha  occ. eigenvalues --   -9.92839  -9.92829  -9.92785  -9.92775  -9.92658
 Alpha  occ. eigenvalues --   -9.92473  -9.92240  -9.92169  -9.92111  -9.92110
 Alpha  occ. eigenvalues --   -9.92096  -9.92002  -9.91898  -9.91841  -9.91824
 Alpha  occ. eigenvalues --   -9.91805  -9.91743  -9.91544  -9.91484  -9.91433
 Alpha  occ. eigenvalues --   -9.91210  -9.91203  -9.91183  -9.90953  -9.90688
 Alpha  occ. eigenvalues --   -9.90615  -9.90504  -9.90418  -9.90382  -9.90346
 Alpha  occ. eigenvalues --   -9.90339  -2.91775  -1.72189  -1.71662  -1.71489
 Alpha  occ. eigenvalues --   -0.97767  -0.96910  -0.92974  -0.90291  -0.89390
 Alpha  occ. eigenvalues --   -0.89039  -0.85875  -0.85179  -0.84937  -0.84131
 Alpha  occ. eigenvalues --   -0.76212  -0.74726  -0.74317  -0.73371  -0.72504
 Alpha  occ. eigenvalues --   -0.72191  -0.71708  -0.71245  -0.70730  -0.70488
 Alpha  occ. eigenvalues --   -0.69776  -0.69119  -0.68683  -0.67428  -0.67298
 Alpha  occ. eigenvalues --   -0.66534  -0.66021  -0.65719  -0.65233  -0.64414
 Alpha  occ. eigenvalues --   -0.64242  -0.62666  -0.62182  -0.61475  -0.60858
 Alpha  occ. eigenvalues --   -0.60244  -0.60148  -0.59847  -0.59624  -0.58990
 Alpha  occ. eigenvalues --   -0.58235  -0.57764  -0.56509  -0.55756  -0.54601
 Alpha  occ. eigenvalues --   -0.54045  -0.53976  -0.52544  -0.52443  -0.51471
 Alpha  occ. eigenvalues --   -0.50899  -0.50664  -0.50384  -0.50142  -0.49937
 Alpha  occ. eigenvalues --   -0.49509  -0.49353  -0.49126  -0.47988  -0.46390
 Alpha  occ. eigenvalues --   -0.46306  -0.45742  -0.45666  -0.44884  -0.44379
 Alpha  occ. eigenvalues --   -0.44027  -0.43636  -0.43443  -0.43001  -0.42714
 Alpha  occ. eigenvalues --   -0.42364  -0.41951  -0.41790  -0.41687  -0.41142
 Alpha  occ. eigenvalues --   -0.40877  -0.40642  -0.40545  -0.40407  -0.40324
 Alpha  occ. eigenvalues --   -0.40084  -0.39873  -0.39636  -0.39509  -0.39378
 Alpha  occ. eigenvalues --   -0.39230  -0.38923  -0.38862  -0.38643  -0.38485
 Alpha  occ. eigenvalues --   -0.38276  -0.37862  -0.37754  -0.37478  -0.37361
 Alpha  occ. eigenvalues --   -0.37027  -0.36761  -0.36721  -0.36589  -0.36553
 Alpha  occ. eigenvalues --   -0.36227  -0.36037  -0.35936  -0.35634  -0.35376
 Alpha  occ. eigenvalues --   -0.35328  -0.35081  -0.35002  -0.34724  -0.34685
 Alpha  occ. eigenvalues --   -0.34533  -0.34392  -0.34147  -0.34011  -0.33944
 Alpha  occ. eigenvalues --   -0.33719  -0.33664  -0.33534  -0.33385  -0.32996
 Alpha  occ. eigenvalues --   -0.32757  -0.32711  -0.32448  -0.32192  -0.32077
 Alpha  occ. eigenvalues --   -0.31897  -0.31822  -0.31695  -0.31494  -0.31304
 Alpha  occ. eigenvalues --   -0.31268  -0.31138  -0.30840  -0.30630  -0.30485
 Alpha  occ. eigenvalues --   -0.30323  -0.30116  -0.29967  -0.29776  -0.29754
 Alpha  occ. eigenvalues --   -0.29356  -0.29242  -0.29005  -0.28821  -0.28741
 Alpha  occ. eigenvalues --   -0.28450  -0.28200  -0.28150  -0.28107  -0.27992
 Alpha  occ. eigenvalues --   -0.27836  -0.27662  -0.27569  -0.26903  -0.26368
 Alpha  occ. eigenvalues --   -0.26012  -0.25890  -0.25701  -0.25472  -0.25400
 Alpha  occ. eigenvalues --   -0.25120  -0.24781  -0.23902  -0.23547  -0.23500
 Alpha  occ. eigenvalues --   -0.23109  -0.23048  -0.21837  -0.21372  -0.20748
 Alpha  occ. eigenvalues --   -0.20464  -0.20145  -0.18909  -0.18289  -0.16777
 Alpha  occ. eigenvalues --   -0.15500
 Alpha virt. eigenvalues --   -0.11113  -0.06560  -0.06103  -0.04314  -0.04101
 Alpha virt. eigenvalues --   -0.03338  -0.02993  -0.01967  -0.01402   0.00759
 Alpha virt. eigenvalues --    0.01804   0.02009   0.02119   0.02651   0.03015

 Mulliken charges:
               1
     1  Mg   0.680391
     2  C    0.059178
     3  C   -0.087287
     4  C   -0.025346
     5  C   -0.082504
     6  N   -0.204840
     7  C   -0.103132
     8  C    0.019910
     9  C    0.032429
    10  C   -0.071830
    11  C    0.144944
    12  C    0.084331
    13  C    0.203424
    14  C    0.074906
    15  O   -0.168663
    16  O   -0.296119
    17  N   -0.320623
    18  C    0.226153
    19  C   -0.166265
    20  C    0.021572
    21  C    0.131720
    22  C    0.186282
    23  C   -0.105258
    24  O   -0.138283
    25  C    0.143735
    26  N   -0.211268
    27  C   -0.036111
    28  C    0.007187
    29  C    0.047370
    30  C    0.049634
    31  C    0.127916
    32  C    0.092962
    33  C    0.056029
    34  N   -0.249530
    35  C    0.088865
    36  C   -0.165011
    37  C    0.137632
    38  C    0.019034
    39  C    0.167333
    40  C   -0.031749
    41  O   -0.154862
    42  C    0.049294
    43  C    0.101793
    44  O   -0.161230
    45  O   -0.273418
    46  C    0.204952
    47  C    0.286719
    48  C   -0.063914
    49  C   -0.179131
    50  C    0.164712
    51  C    0.144529
    52  C    0.102705
    53  C    0.094850
    54  C   -0.087735
    55  C    0.081890
    56  C    0.124617
    57  C    0.031310
    58  C    0.089849
    59  C   -0.044041
    60  C    0.098057
    61  C    0.131214
    62  C    0.086682
    63  C    0.090131
    64  C   -0.090746
    65  C    0.107215
    66  C    0.093801
    67  H   -0.066688
    68  H   -0.058941
    69  H   -0.071512
    70  H   -0.004231
    71  H   -0.035915
    72  H    0.004461
    73  H    0.005317
    74  H    0.008284
    75  H   -0.026742
    76  H   -0.044222
    77  H   -0.012217
    78  H    0.005563
    79  H   -0.011174
    80  H   -0.017771
    81  H    0.021876
    82  H    0.016190
    83  H    0.010095
    84  H   -0.014050
    85  H   -0.016352
    86  H   -0.019442
    87  H   -0.000288
    88  H   -0.003007
    89  H    0.004781
    90  H   -0.015235
    91  H   -0.033494
    92  H   -0.008658
    93  H   -0.028620
    94  H   -0.001750
    95  H    0.005440
    96  H   -0.001887
    97  H   -0.004707
    98  H    0.006702
    99  H    0.008057
   100  H    0.011302
   101  H    0.014111
   102  H    0.009952
   103  H   -0.014933
   104  H   -0.037701
   105  H   -0.015961
   106  H   -0.007491
   107  H    0.023742
   108  H   -0.009569
   109  H   -0.046950
   110  H   -0.020975
   111  H   -0.028319
   112  H   -0.033460
   113  H   -0.038696
   114  H   -0.033583
   115  H   -0.022704
   116  H   -0.011540
   117  H   -0.020853
   118  H   -0.042947
   119  H   -0.032373
   120  H   -0.036770
   121  H   -0.032273
   122  H   -0.024305
   123  H   -0.049573
   124  H   -0.029602
   125  H   -0.022929
   126  H   -0.023103
   127  H   -0.023452
   128  H   -0.038700
   129  H   -0.053646
   130  H   -0.035985
   131  H   -0.032371
   132  H   -0.024942
   133  H   -0.039326
   134  H   -0.029153
   135  H   -0.000674
   136  H   -0.009321
   137  H   -0.019221
   138  H   -0.031781
   139  H   -0.020463
   140  H   -0.031685
 Sum of Mulliken charges =  -0.00000

 Dipole moment (field-independent basis, Debye):
    X=             -5.8480    Y=              3.6161    Z=              1.4255  Tot=              7.0219
 Quadrupole moment (field-independent basis, Debye-Ang):
   XX=           -393.2129   YY=           -431.7427   ZZ=           -400.6861
   XY=             27.9275   XZ=             23.9373   YZ=              5.0162

 Normal termination of Gaussian 16 at Wed Apr 27 01:09:56 2022.
