 Gaussian 16, Revision A.03,
 Gaussian 16:  ES64L-G16RevA.03 25-Dec-2016

 -----------------------------------
 #p cam-b3lyp/Def2SVP td=(nstates=5)
 -----------------------------------

 -------------------------------------------------------
 step_101_chromophore_21 TDDFT with cam-b3lyp functional
 -------------------------------------------------------
 Symbolic Z-matrix:
 Charge =  0 Multiplicity = 1

                         Standard orientation:
 ---------------------------------------------------------------------
 Center     Atomic      Atomic             Coordinates (Angstroms)
 Number     Number       Type             X           Y           Z
 ---------------------------------------------------------------------
      1         12           0        5.035479    0.836513    0.400748
      2          6           0        4.210615   -2.584974    0.266826
      3          6           0        2.198770    1.488497   -1.425419
      4          6           0        6.090308    3.934391    0.094633
      5          6           0        8.138537   -0.102441    1.758687
      6          7           0        3.438986   -0.451432   -0.549893
      7          6           0        3.198706   -1.787935   -0.271292
      8          6           0        1.710912   -2.195066   -0.522845
      9          6           0        1.183507   -0.974885   -1.335485
     10          6           0        2.282511    0.108504   -1.037689
     11          6           0        0.873991   -0.981109   -2.893403
     12          6           0        1.012592   -2.390536    0.868326
     13          6           0       -0.333656   -2.985058    0.899768
     14          6           0       -1.182407   -3.169112   -0.398990
     15          8           0       -0.843392   -3.853225   -1.319334
     16          8           0       -2.347796   -2.381770   -0.408162
     17          7           0        4.289388    2.456018   -0.571951
     18          6           0        3.057815    2.543154   -1.221705
     19          6           0        2.916963    3.862966   -1.788180
     20          6           0        4.128343    4.566138   -1.518959
     21          6           0        4.918039    3.660554   -0.615049
     22          6           0        1.736844    4.284667   -2.602753
     23          6           0        4.641170    5.951321   -1.956587
     24          8           0        5.761200    6.327612   -1.740417
     25          6           0        3.738627    6.822597   -2.752155
     26          7           0        6.927542    1.804280    0.841636
     27          6           0        7.047864    3.152992    0.769762
     28          6           0        8.362227    3.663529    1.325765
     29          6           0        9.063234    2.278480    1.682745
     30          6           0        7.992441    1.224450    1.458843
     31          6           0        9.081165    4.640782    0.350643
     32          6           0        9.700666    2.248195    3.090474
     33          6           0       11.212950    2.375890    3.026802
     34          7           0        6.054950   -0.997825    0.873644
     35          6           0        7.291459   -1.220080    1.450992
     36          6           0        7.453301   -2.628766    1.706032
     37          6           0        6.327215   -3.231589    1.216746
     38          6           0        5.461181   -2.219054    0.699104
     39          6           0        8.604709   -3.168248    2.429296
     40          6           0        5.620964   -4.447584    1.102056
     41          8           0        5.860001   -5.581550    1.565298
     42          6           0        4.244488   -4.034533    0.534723
     43          6           0        3.709814   -4.775008   -0.680326
     44          8           0        3.993419   -4.649460   -1.850674
     45          8           0        2.900016   -5.803591   -0.240392
     46          6           0        2.537957   -6.831973   -1.200168
     47          6           0       -2.994511   -2.316147   -1.770130
     48          6           0       -4.285718   -1.554974   -1.599831
     49          6           0       -5.471192   -2.160574   -1.280369
     50          6           0       -5.639859   -3.538806   -0.709280
     51          6           0       -6.755958   -1.399828   -1.490485
     52          6           0       -7.111981   -1.242152   -2.936444
     53          6           0       -7.682194    0.167674   -3.200536
     54          6           0       -9.243632    0.207286   -3.145880
     55          6           0       -9.897195   -0.232997   -4.499431
     56          6           0       -9.846287    1.530226   -2.619682
     57          6           0      -10.905731    1.318670   -1.505101
     58          6           0      -10.233003    1.113811   -0.165841
     59          6           0      -11.080463    1.542667    0.992641
     60          6           0      -10.877127    3.064724    1.019868
     61          6           0      -10.590027    0.807974    2.271609
     62          6           0      -11.665065    0.202933    3.050668
     63          6           0      -12.102718    1.154904    4.188267
     64          6           0      -13.621788    1.202331    4.304922
     65          6           0      -14.180387    2.343465    3.335593
     66          6           0      -14.013639    1.415665    5.773816
     67          1           0        1.274775    1.609994   -1.995299
     68          1           0        6.470683    4.956182    0.047101
     69          1           0        9.084637   -0.323842    2.258215
     70          1           0        1.655189   -3.060858   -1.183736
     71          1           0        0.345500   -0.606154   -0.744598
     72          1           0        1.640598   -0.356170   -3.349266
     73          1           0       -0.136507   -0.650061   -3.132195
     74          1           0        1.004172   -2.007093   -3.236910
     75          1           0        1.159152   -1.526848    1.516796
     76          1           0        1.634533   -3.101235    1.413366
     77          1           0       -0.837045   -2.249759    1.527465
     78          1           0       -0.177458   -3.938489    1.403443
     79          1           0        1.429857    5.247989   -2.195849
     80          1           0        0.899357    3.636766   -2.343271
     81          1           0        1.906923    4.364611   -3.675709
     82          1           0        2.955978    7.184891   -2.085738
     83          1           0        3.432251    6.262719   -3.635843
     84          1           0        4.365121    7.658937   -3.062725
     85          1           0        8.201285    4.246552    2.232134
     86          1           0        9.882820    2.201056    0.968887
     87          1           0        8.605051    4.558819   -0.626363
     88          1           0       10.128167    4.367971    0.221693
     89          1           0        8.791501    5.650691    0.641738
     90          1           0        9.485310    1.391839    3.729491
     91          1           0        9.332793    3.154096    3.571545
     92          1           0       11.611799    1.365719    3.115681
     93          1           0       11.568509    2.841012    3.947116
     94          1           0       11.637186    3.016027    2.252688
     95          1           0        8.470444   -2.721951    3.414799
     96          1           0        9.583674   -2.963750    1.997316
     97          1           0        8.653539   -4.255639    2.498125
     98          1           0        3.528602   -4.155809    1.347603
     99          1           0        1.469836   -6.751208   -1.404550
    100          1           0        2.725395   -7.842088   -0.833923
    101          1           0        3.002533   -6.817214   -2.185988
    102          1           0       -3.119944   -3.306626   -2.209279
    103          1           0       -2.384710   -1.721464   -2.450061
    104          1           0       -4.354028   -0.588615   -2.098741
    105          1           0       -4.684115   -4.060030   -0.761652
    106          1           0       -6.214335   -3.908292   -1.558504
    107          1           0       -6.147878   -3.718947    0.238364
    108          1           0       -6.711343   -0.473293   -0.918790
    109          1           0       -7.567692   -1.900795   -0.963378
    110          1           0       -7.847410   -1.949232   -3.321605
    111          1           0       -6.245279   -1.237638   -3.597858
    112          1           0       -7.387009    0.583417   -4.163793
    113          1           0       -7.366740    0.845327   -2.406963
    114          1           0       -9.642445   -0.621175   -2.560596
    115          1           0      -10.923513   -0.552084   -4.319071
    116          1           0       -9.360918   -1.040090   -4.999390
    117          1           0      -10.021239    0.636493   -5.143886
    118          1           0      -10.404400    2.054498   -3.395520
    119          1           0       -9.108053    2.187515   -2.158482
    120          1           0      -11.398325    0.374025   -1.733481
    121          1           0      -11.658452    2.104037   -1.576954
    122          1           0       -9.184596    1.410115   -0.204068
    123          1           0      -10.240105    0.027192   -0.087211
    124          1           0      -12.123049    1.429667    0.694167
    125          1           0      -11.763626    3.640834    0.756515
    126          1           0      -10.156049    3.427582    0.287278
    127          1           0      -10.603012    3.463870    1.995959
    128          1           0       -9.994936    1.437953    2.932069
    129          1           0       -9.986553   -0.066553    2.023718
    130          1           0      -11.232837   -0.710813    3.456618
    131          1           0      -12.466359    0.034462    2.330877
    132          1           0      -11.714615    2.168107    4.083181
    133          1           0      -11.631429    0.719038    5.070068
    134          1           0      -14.100785    0.264088    4.021603
    135          1           0      -14.832424    1.804040    2.647891
    136          1           0      -13.330636    2.885824    2.921776
    137          1           0      -14.725484    3.084727    3.921007
    138          1           0      -13.262708    1.127154    6.508496
    139          1           0      -14.945122    0.907275    6.022685
    140          1           0      -14.145516    2.435073    6.136633
 ---------------------------------------------------------------------

 SCF Done:  E(RCAM-B3LYP) =  -3007.14843424     A.U. after   17 cycles

 Excitation energies and oscillator strengths:

 Excited State   1:      Singlet-A      1.7549 eV  706.52 nm  f=0.3721  <S**2>=0.000
     245 -> 248        0.18936
     246 -> 247        0.68275
     245 <- 248        0.10663
 This state for optimization and/or second-order correction.
 Total Energy, E(TD-HF/TD-DFT) =  -3007.08394421
 Copying the excited state density for this state as the 1-particle RhoCI density.

 Excited State   2:      Singlet-A      2.2285 eV  556.36 nm  f=0.0914  <S**2>=0.000
     245 -> 247        0.63742
     246 -> 248       -0.29546

 Excited State   3:      Singlet-A      3.4653 eV  357.79 nm  f=0.3419  <S**2>=0.000
     241 -> 247        0.27347
     241 -> 249        0.15408
     241 -> 251        0.10166
     242 -> 247        0.11419
     243 -> 247       -0.10267
     244 -> 247        0.22893
     245 -> 247        0.20890
     246 -> 248        0.48530

 Excited State   4:      Singlet-A      3.5095 eV  353.29 nm  f=0.1302  <S**2>=0.000
     241 -> 247        0.31531
     241 -> 249        0.23387
     241 -> 251        0.14407
     242 -> 247        0.22104
     242 -> 249        0.11819
     243 -> 247       -0.21356
     243 -> 249       -0.11275
     244 -> 247       -0.22431
     245 -> 247       -0.13193
     246 -> 248       -0.30043

 Excited State   5:      Singlet-A      3.5250 eV  351.73 nm  f=0.1009  <S**2>=0.000
     240 -> 247        0.11368
     241 -> 247       -0.19464
     242 -> 247        0.23616
     243 -> 247       -0.20163
     244 -> 247        0.52861
     246 -> 248       -0.21105

 The electronic state is 1-A.
 Alpha  occ. eigenvalues --  -46.88824 -19.24756 -19.23742 -19.20921 -19.19337
 Alpha  occ. eigenvalues --  -19.19216 -19.17857 -14.42361 -14.40881 -14.39538
 Alpha  occ. eigenvalues --  -14.38518 -10.39951 -10.38638 -10.35178 -10.34088
 Alpha  occ. eigenvalues --  -10.32255 -10.31266 -10.30753 -10.30743 -10.30438
 Alpha  occ. eigenvalues --  -10.30228 -10.30085 -10.29595 -10.29123 -10.28748
 Alpha  occ. eigenvalues --  -10.28330 -10.28305 -10.28017 -10.27681 -10.27617
 Alpha  occ. eigenvalues --  -10.27558 -10.27493 -10.27407 -10.27403 -10.27368
 Alpha  occ. eigenvalues --  -10.27297 -10.27083 -10.26740 -10.26695 -10.26499
 Alpha  occ. eigenvalues --  -10.26380 -10.26094 -10.25900 -10.25865 -10.25851
 Alpha  occ. eigenvalues --  -10.25841 -10.25742 -10.25712 -10.25703 -10.25606
 Alpha  occ. eigenvalues --  -10.25488 -10.25370 -10.25268 -10.25120 -10.25016
 Alpha  occ. eigenvalues --  -10.24902 -10.24876 -10.24820 -10.24626 -10.24335
 Alpha  occ. eigenvalues --  -10.24223 -10.24139 -10.24048 -10.24015 -10.23995
 Alpha  occ. eigenvalues --  -10.23941  -3.17272  -1.92162  -1.91720  -1.91574
 Alpha  occ. eigenvalues --   -1.16244  -1.15429  -1.11742  -1.08064  -1.07504
 Alpha  occ. eigenvalues --   -1.06918  -1.03575  -1.02833  -1.02590  -1.01642
 Alpha  occ. eigenvalues --   -0.93277  -0.91651  -0.91197  -0.90148  -0.89246
 Alpha  occ. eigenvalues --   -0.89022  -0.88389  -0.87843  -0.87301  -0.87182
 Alpha  occ. eigenvalues --   -0.86281  -0.85509  -0.85047  -0.83586  -0.83375
 Alpha  occ. eigenvalues --   -0.82784  -0.82279  -0.81631  -0.81157  -0.80207
 Alpha  occ. eigenvalues --   -0.79972  -0.78404  -0.78085  -0.76918  -0.76211
 Alpha  occ. eigenvalues --   -0.75583  -0.75512  -0.75170  -0.74874  -0.74238
 Alpha  occ. eigenvalues --   -0.73268  -0.72724  -0.71427  -0.70566  -0.69276
 Alpha  occ. eigenvalues --   -0.68682  -0.68420  -0.67126  -0.66904  -0.65629
 Alpha  occ. eigenvalues --   -0.65054  -0.64791  -0.64490  -0.64202  -0.63781
 Alpha  occ. eigenvalues --   -0.63481  -0.63334  -0.62812  -0.61618  -0.60096
 Alpha  occ. eigenvalues --   -0.59808  -0.59384  -0.59222  -0.58160  -0.57910
 Alpha  occ. eigenvalues --   -0.57306  -0.56898  -0.56657  -0.56317  -0.55737
 Alpha  occ. eigenvalues --   -0.55206  -0.55002  -0.54839  -0.54626  -0.53904
 Alpha  occ. eigenvalues --   -0.53820  -0.53711  -0.53468  -0.53134  -0.53100
 Alpha  occ. eigenvalues --   -0.52754  -0.52686  -0.52591  -0.52447  -0.51967
 Alpha  occ. eigenvalues --   -0.51844  -0.51549  -0.51312  -0.51138  -0.50927
 Alpha  occ. eigenvalues --   -0.50886  -0.50321  -0.50090  -0.49997  -0.49673
 Alpha  occ. eigenvalues --   -0.49522  -0.49174  -0.48947  -0.48857  -0.48744
 Alpha  occ. eigenvalues --   -0.48609  -0.48371  -0.48290  -0.48043  -0.47627
 Alpha  occ. eigenvalues --   -0.47355  -0.47308  -0.46891  -0.46829  -0.46474
 Alpha  occ. eigenvalues --   -0.46353  -0.46249  -0.45985  -0.45886  -0.45694
 Alpha  occ. eigenvalues --   -0.45636  -0.45390  -0.45370  -0.44990  -0.44850
 Alpha  occ. eigenvalues --   -0.44403  -0.44352  -0.44116  -0.43998  -0.43778
 Alpha  occ. eigenvalues --   -0.43567  -0.43382  -0.43279  -0.43183  -0.43072
 Alpha  occ. eigenvalues --   -0.42922  -0.42758  -0.42387  -0.42085  -0.41851
 Alpha  occ. eigenvalues --   -0.41576  -0.41437  -0.41182  -0.40992  -0.40901
 Alpha  occ. eigenvalues --   -0.40761  -0.40497  -0.40372  -0.40304  -0.39869
 Alpha  occ. eigenvalues --   -0.39453  -0.39394  -0.39119  -0.39003  -0.38835
 Alpha  occ. eigenvalues --   -0.38745  -0.38603  -0.38480  -0.37665  -0.37480
 Alpha  occ. eigenvalues --   -0.36978  -0.36790  -0.36662  -0.36534  -0.36305
 Alpha  occ. eigenvalues --   -0.35700  -0.35383  -0.35350  -0.34797  -0.34135
 Alpha  occ. eigenvalues --   -0.33974  -0.33862  -0.32666  -0.31454  -0.31055
 Alpha  occ. eigenvalues --   -0.30377  -0.30160  -0.30086  -0.29203  -0.23598
 Alpha  occ. eigenvalues --   -0.20816
 Alpha virt. eigenvalues --   -0.08058  -0.01522   0.00347   0.01645   0.02705
 Alpha virt. eigenvalues --    0.03346   0.04590   0.05764   0.05897   0.07609
 Alpha virt. eigenvalues --    0.08262   0.08367   0.08523   0.09173   0.09362

 Mulliken charges:
               1
     1  Mg   0.809424
     2  C    0.032150
     3  C   -0.102460
     4  C   -0.059287
     5  C   -0.090887
     6  N   -0.263708
     7  C   -0.066620
     8  C   -0.032948
     9  C   -0.020098
    10  C   -0.050009
    11  C    0.084624
    12  C    0.035432
    13  C    0.134849
    14  C    0.149736
    15  O   -0.208048
    16  O   -0.360143
    17  N   -0.412021
    18  C    0.232663
    19  C   -0.167114
    20  C   -0.044956
    21  C    0.163811
    22  C    0.127200
    23  C   -0.020134
    24  O   -0.176449
    25  C    0.058542
    26  N   -0.288624
    27  C   -0.002342
    28  C   -0.041986
    29  C   -0.009799
    30  C    0.071454
    31  C    0.065372
    32  C    0.032228
    33  C   -0.003668
    34  N   -0.333019
    35  C    0.094025
    36  C   -0.163555
    37  C    0.055213
    38  C    0.052983
    39  C    0.110849
    40  C    0.070339
    41  O   -0.195362
    42  C   -0.031787
    43  C    0.187851
    44  O   -0.198397
    45  O   -0.336677
    46  C    0.167697
    47  C    0.253456
    48  C   -0.085632
    49  C   -0.192221
    50  C    0.100953
    51  C    0.084476
    52  C    0.043104
    53  C    0.043340
    54  C   -0.143818
    55  C    0.031432
    56  C    0.067431
    57  C   -0.016792
    58  C    0.036775
    59  C   -0.103990
    60  C    0.040685
    61  C    0.074709
    62  C    0.032054
    63  C    0.034618
    64  C   -0.152140
    65  C    0.051886
    66  C    0.034835
    67  H   -0.029610
    68  H   -0.021092
    69  H   -0.037336
    70  H    0.031545
    71  H    0.000247
    72  H    0.030933
    73  H    0.025664
    74  H    0.034743
    75  H    0.005096
    76  H   -0.013581
    77  H    0.022467
    78  H    0.038227
    79  H    0.017334
    80  H    0.011955
    81  H    0.049735
    82  H    0.043788
    83  H    0.036644
    84  H    0.023464
    85  H    0.018059
    86  H    0.014590
    87  H    0.027070
    88  H    0.021297
    89  H    0.028497
    90  H    0.014627
    91  H   -0.004908
    92  H    0.014437
    93  H   -0.002473
    94  H    0.019005
    95  H    0.029029
    96  H    0.022661
    97  H    0.023960
    98  H    0.050660
    99  H    0.028949
   100  H    0.032794
   101  H    0.040100
   102  H    0.039322
   103  H    0.010254
   104  H   -0.007581
   105  H    0.009313
   106  H    0.014253
   107  H    0.048419
   108  H    0.020534
   109  H   -0.015190
   110  H    0.005534
   111  H    0.002515
   112  H   -0.003724
   113  H   -0.011747
   114  H   -0.004626
   115  H    0.001044
   116  H    0.011709
   117  H    0.002326
   118  H   -0.011715
   119  H   -0.005004
   120  H   -0.009482
   121  H   -0.003505
   122  H    0.001187
   123  H   -0.020910
   124  H    0.002486
   125  H    0.000868
   126  H    0.001480
   127  H   -0.000126
   128  H   -0.009208
   129  H   -0.021019
   130  H   -0.005397
   131  H   -0.005161
   132  H    0.000786
   133  H   -0.008566
   134  H    0.002962
   135  H    0.021408
   136  H    0.009762
   137  H    0.005793
   138  H   -0.006498
   139  H    0.004600
   140  H   -0.007177
 Sum of Mulliken charges =  -0.00000

 Dipole moment (field-independent basis, Debye):
    X=             -6.4564    Y=              4.6556    Z=              0.9822  Tot=              8.0202
 Quadrupole moment (field-independent basis, Debye-Ang):
   XX=           -397.4433   YY=           -427.4450   ZZ=           -399.0409
   XY=             32.0091   XZ=             23.2759   YZ=              3.4572

 Normal termination of Gaussian 16 at Wed Apr 27 00:08:21 2022.
