 Gaussian 16, Revision A.03,
 Gaussian 16:  ES64L-G16RevA.03 25-Dec-2016

 ---------------------------------
 #p PBE1PBE/Def2SVP td=(nstates=5)
 ---------------------------------

 -----------------------------------------------------
 step_101_chromophore_21 TDDFT with PBE1PBE functional
 -----------------------------------------------------
 Symbolic Z-matrix:
 Charge =  0 Multiplicity = 1

                         Standard orientation:
 ---------------------------------------------------------------------
 Center     Atomic      Atomic             Coordinates (Angstroms)
 Number     Number       Type             X           Y           Z
 ---------------------------------------------------------------------
      1         12           0        5.035479    0.836513    0.400748
      2          6           0        4.210615   -2.584974    0.266826
      3          6           0        2.198770    1.488497   -1.425419
      4          6           0        6.090308    3.934391    0.094633
      5          6           0        8.138537   -0.102441    1.758687
      6          7           0        3.438986   -0.451432   -0.549893
      7          6           0        3.198706   -1.787935   -0.271292
      8          6           0        1.710912   -2.195066   -0.522845
      9          6           0        1.183507   -0.974885   -1.335485
     10          6           0        2.282511    0.108504   -1.037689
     11          6           0        0.873991   -0.981109   -2.893403
     12          6           0        1.012592   -2.390536    0.868326
     13          6           0       -0.333656   -2.985058    0.899768
     14          6           0       -1.182407   -3.169112   -0.398990
     15          8           0       -0.843392   -3.853225   -1.319334
     16          8           0       -2.347796   -2.381770   -0.408162
     17          7           0        4.289388    2.456018   -0.571951
     18          6           0        3.057815    2.543154   -1.221705
     19          6           0        2.916963    3.862966   -1.788180
     20          6           0        4.128343    4.566138   -1.518959
     21          6           0        4.918039    3.660554   -0.615049
     22          6           0        1.736844    4.284667   -2.602753
     23          6           0        4.641170    5.951321   -1.956587
     24          8           0        5.761200    6.327612   -1.740417
     25          6           0        3.738627    6.822597   -2.752155
     26          7           0        6.927542    1.804280    0.841636
     27          6           0        7.047864    3.152992    0.769762
     28          6           0        8.362227    3.663529    1.325765
     29          6           0        9.063234    2.278480    1.682745
     30          6           0        7.992441    1.224450    1.458843
     31          6           0        9.081165    4.640782    0.350643
     32          6           0        9.700666    2.248195    3.090474
     33          6           0       11.212950    2.375890    3.026802
     34          7           0        6.054950   -0.997825    0.873644
     35          6           0        7.291459   -1.220080    1.450992
     36          6           0        7.453301   -2.628766    1.706032
     37          6           0        6.327215   -3.231589    1.216746
     38          6           0        5.461181   -2.219054    0.699104
     39          6           0        8.604709   -3.168248    2.429296
     40          6           0        5.620964   -4.447584    1.102056
     41          8           0        5.860001   -5.581550    1.565298
     42          6           0        4.244488   -4.034533    0.534723
     43          6           0        3.709814   -4.775008   -0.680326
     44          8           0        3.993419   -4.649460   -1.850674
     45          8           0        2.900016   -5.803591   -0.240392
     46          6           0        2.537957   -6.831973   -1.200168
     47          6           0       -2.994511   -2.316147   -1.770130
     48          6           0       -4.285718   -1.554974   -1.599831
     49          6           0       -5.471192   -2.160574   -1.280369
     50          6           0       -5.639859   -3.538806   -0.709280
     51          6           0       -6.755958   -1.399828   -1.490485
     52          6           0       -7.111981   -1.242152   -2.936444
     53          6           0       -7.682194    0.167674   -3.200536
     54          6           0       -9.243632    0.207286   -3.145880
     55          6           0       -9.897195   -0.232997   -4.499431
     56          6           0       -9.846287    1.530226   -2.619682
     57          6           0      -10.905731    1.318670   -1.505101
     58          6           0      -10.233003    1.113811   -0.165841
     59          6           0      -11.080463    1.542667    0.992641
     60          6           0      -10.877127    3.064724    1.019868
     61          6           0      -10.590027    0.807974    2.271609
     62          6           0      -11.665065    0.202933    3.050668
     63          6           0      -12.102718    1.154904    4.188267
     64          6           0      -13.621788    1.202331    4.304922
     65          6           0      -14.180387    2.343465    3.335593
     66          6           0      -14.013639    1.415665    5.773816
     67          1           0        1.274775    1.609994   -1.995299
     68          1           0        6.470683    4.956182    0.047101
     69          1           0        9.084637   -0.323842    2.258215
     70          1           0        1.655189   -3.060858   -1.183736
     71          1           0        0.345500   -0.606154   -0.744598
     72          1           0        1.640598   -0.356170   -3.349266
     73          1           0       -0.136507   -0.650061   -3.132195
     74          1           0        1.004172   -2.007093   -3.236910
     75          1           0        1.159152   -1.526848    1.516796
     76          1           0        1.634533   -3.101235    1.413366
     77          1           0       -0.837045   -2.249759    1.527465
     78          1           0       -0.177458   -3.938489    1.403443
     79          1           0        1.429857    5.247989   -2.195849
     80          1           0        0.899357    3.636766   -2.343271
     81          1           0        1.906923    4.364611   -3.675709
     82          1           0        2.955978    7.184891   -2.085738
     83          1           0        3.432251    6.262719   -3.635843
     84          1           0        4.365121    7.658937   -3.062725
     85          1           0        8.201285    4.246552    2.232134
     86          1           0        9.882820    2.201056    0.968887
     87          1           0        8.605051    4.558819   -0.626363
     88          1           0       10.128167    4.367971    0.221693
     89          1           0        8.791501    5.650691    0.641738
     90          1           0        9.485310    1.391839    3.729491
     91          1           0        9.332793    3.154096    3.571545
     92          1           0       11.611799    1.365719    3.115681
     93          1           0       11.568509    2.841012    3.947116
     94          1           0       11.637186    3.016027    2.252688
     95          1           0        8.470444   -2.721951    3.414799
     96          1           0        9.583674   -2.963750    1.997316
     97          1           0        8.653539   -4.255639    2.498125
     98          1           0        3.528602   -4.155809    1.347603
     99          1           0        1.469836   -6.751208   -1.404550
    100          1           0        2.725395   -7.842088   -0.833923
    101          1           0        3.002533   -6.817214   -2.185988
    102          1           0       -3.119944   -3.306626   -2.209279
    103          1           0       -2.384710   -1.721464   -2.450061
    104          1           0       -4.354028   -0.588615   -2.098741
    105          1           0       -4.684115   -4.060030   -0.761652
    106          1           0       -6.214335   -3.908292   -1.558504
    107          1           0       -6.147878   -3.718947    0.238364
    108          1           0       -6.711343   -0.473293   -0.918790
    109          1           0       -7.567692   -1.900795   -0.963378
    110          1           0       -7.847410   -1.949232   -3.321605
    111          1           0       -6.245279   -1.237638   -3.597858
    112          1           0       -7.387009    0.583417   -4.163793
    113          1           0       -7.366740    0.845327   -2.406963
    114          1           0       -9.642445   -0.621175   -2.560596
    115          1           0      -10.923513   -0.552084   -4.319071
    116          1           0       -9.360918   -1.040090   -4.999390
    117          1           0      -10.021239    0.636493   -5.143886
    118          1           0      -10.404400    2.054498   -3.395520
    119          1           0       -9.108053    2.187515   -2.158482
    120          1           0      -11.398325    0.374025   -1.733481
    121          1           0      -11.658452    2.104037   -1.576954
    122          1           0       -9.184596    1.410115   -0.204068
    123          1           0      -10.240105    0.027192   -0.087211
    124          1           0      -12.123049    1.429667    0.694167
    125          1           0      -11.763626    3.640834    0.756515
    126          1           0      -10.156049    3.427582    0.287278
    127          1           0      -10.603012    3.463870    1.995959
    128          1           0       -9.994936    1.437953    2.932069
    129          1           0       -9.986553   -0.066553    2.023718
    130          1           0      -11.232837   -0.710813    3.456618
    131          1           0      -12.466359    0.034462    2.330877
    132          1           0      -11.714615    2.168107    4.083181
    133          1           0      -11.631429    0.719038    5.070068
    134          1           0      -14.100785    0.264088    4.021603
    135          1           0      -14.832424    1.804040    2.647891
    136          1           0      -13.330636    2.885824    2.921776
    137          1           0      -14.725484    3.084727    3.921007
    138          1           0      -13.262708    1.127154    6.508496
    139          1           0      -14.945122    0.907275    6.022685
    140          1           0      -14.145516    2.435073    6.136633
 ---------------------------------------------------------------------

 SCF Done:  E(RPBE1PBE) =  -3005.33842633     A.U. after   15 cycles

 Excitation energies and oscillator strengths:

 Excited State   1:      Singlet-A      1.8777 eV  660.31 nm  f=0.3609  <S**2>=0.000
     245 -> 248        0.18430
     246 -> 247        0.68933
 This state for optimization and/or second-order correction.
 Total Energy, E(TD-HF/TD-DFT) =  -3005.26942339
 Copying the excited state density for this state as the 1-particle RhoCI density.

 Excited State   2:      Singlet-A      2.2036 eV  562.66 nm  f=0.0956  <S**2>=0.000
     245 -> 247        0.65311
     246 -> 248       -0.26077

 Excited State   3:      Singlet-A      3.0243 eV  409.96 nm  f=0.0023  <S**2>=0.000
     243 -> 247        0.63992
     243 -> 249        0.19829
     244 -> 247       -0.11561

 Excited State   4:      Singlet-A      3.1476 eV  393.90 nm  f=0.0061  <S**2>=0.000
     241 -> 247       -0.10109
     243 -> 247        0.11639
     244 -> 247        0.66256
     246 -> 248        0.16569

 Excited State   5:      Singlet-A      3.2442 eV  382.17 nm  f=0.0262  <S**2>=0.000
     240 -> 247        0.64156
     240 -> 249       -0.15857
     246 -> 248       -0.16822

 The electronic state is 1-A.
 Alpha  occ. eigenvalues --  -46.92212 -19.25458 -19.24450 -19.21167 -19.19462
 Alpha  occ. eigenvalues --  -19.19344 -19.18279 -14.41750 -14.40489 -14.39115
 Alpha  occ. eigenvalues --  -14.38271 -10.37005 -10.35679 -10.32103 -10.31339
 Alpha  occ. eigenvalues --  -10.29655 -10.28867 -10.28422 -10.28273 -10.28160
 Alpha  occ. eigenvalues --  -10.27632 -10.27467 -10.27350 -10.26761 -10.26429
 Alpha  occ. eigenvalues --  -10.26151 -10.26066 -10.25670 -10.25372 -10.25354
 Alpha  occ. eigenvalues --  -10.25157 -10.25145 -10.25111 -10.25076 -10.24989
 Alpha  occ. eigenvalues --  -10.24734 -10.24652 -10.24564 -10.24471 -10.23904
 Alpha  occ. eigenvalues --  -10.23764 -10.23678 -10.23613 -10.23545 -10.23380
 Alpha  occ. eigenvalues --  -10.23375 -10.23306 -10.23298 -10.23210 -10.23172
 Alpha  occ. eigenvalues --  -10.23096 -10.23092 -10.22841 -10.22733 -10.22500
 Alpha  occ. eigenvalues --  -10.22477 -10.22281 -10.22207 -10.22168 -10.21970
 Alpha  occ. eigenvalues --  -10.21889 -10.21691 -10.21615 -10.21542 -10.21505
 Alpha  occ. eigenvalues --  -10.21321  -3.14242  -1.87071  -1.86607  -1.86466
 Alpha  occ. eigenvalues --   -1.11024  -1.10228  -1.06302  -1.02942  -1.02377
 Alpha  occ. eigenvalues --   -1.01786  -0.98182  -0.97438  -0.97213  -0.96308
 Alpha  occ. eigenvalues --   -0.87765  -0.85768  -0.85313  -0.84367  -0.83348
 Alpha  occ. eigenvalues --   -0.83235  -0.82663  -0.81963  -0.81644  -0.81434
 Alpha  occ. eigenvalues --   -0.80644  -0.79700  -0.79219  -0.77804  -0.77673
 Alpha  occ. eigenvalues --   -0.77005  -0.76448  -0.75843  -0.75484  -0.74373
 Alpha  occ. eigenvalues --   -0.74326  -0.72660  -0.72243  -0.71277  -0.70389
 Alpha  occ. eigenvalues --   -0.69950  -0.69575  -0.69273  -0.69250  -0.68408
 Alpha  occ. eigenvalues --   -0.67560  -0.67221  -0.65849  -0.64858  -0.63507
 Alpha  occ. eigenvalues --   -0.63127  -0.62876  -0.61471  -0.61128  -0.60155
 Alpha  occ. eigenvalues --   -0.59451  -0.59234  -0.58677  -0.58395  -0.58296
 Alpha  occ. eigenvalues --   -0.57643  -0.57514  -0.57335  -0.56241  -0.54575
 Alpha  occ. eigenvalues --   -0.54197  -0.53923  -0.53723  -0.52813  -0.52385
 Alpha  occ. eigenvalues --   -0.51949  -0.51373  -0.51080  -0.50821  -0.50236
 Alpha  occ. eigenvalues --   -0.49640  -0.49532  -0.49435  -0.49058  -0.48422
 Alpha  occ. eigenvalues --   -0.48315  -0.47968  -0.47890  -0.47749  -0.47552
 Alpha  occ. eigenvalues --   -0.47363  -0.47277  -0.47116  -0.46972  -0.46504
 Alpha  occ. eigenvalues --   -0.46378  -0.46107  -0.45813  -0.45773  -0.45491
 Alpha  occ. eigenvalues --   -0.45324  -0.44983  -0.44641  -0.44591  -0.44199
 Alpha  occ. eigenvalues --   -0.44057  -0.43821  -0.43550  -0.43443  -0.43267
 Alpha  occ. eigenvalues --   -0.43165  -0.43050  -0.42969  -0.42638  -0.42221
 Alpha  occ. eigenvalues --   -0.41935  -0.41806  -0.41646  -0.41460  -0.41138
 Alpha  occ. eigenvalues --   -0.41029  -0.40897  -0.40703  -0.40606  -0.40377
 Alpha  occ. eigenvalues --   -0.40309  -0.40111  -0.40053  -0.39628  -0.39608
 Alpha  occ. eigenvalues --   -0.39171  -0.39009  -0.38893  -0.38840  -0.38503
 Alpha  occ. eigenvalues --   -0.38327  -0.38211  -0.38005  -0.37922  -0.37782
 Alpha  occ. eigenvalues --   -0.37728  -0.37488  -0.37240  -0.36978  -0.36720
 Alpha  occ. eigenvalues --   -0.36319  -0.36287  -0.36127  -0.35869  -0.35781
 Alpha  occ. eigenvalues --   -0.35579  -0.35222  -0.35141  -0.35130  -0.34616
 Alpha  occ. eigenvalues --   -0.34422  -0.34106  -0.34064  -0.33727  -0.33656
 Alpha  occ. eigenvalues --   -0.33553  -0.33520  -0.33435  -0.32503  -0.32470
 Alpha  occ. eigenvalues --   -0.31895  -0.31803  -0.31542  -0.31374  -0.31352
 Alpha  occ. eigenvalues --   -0.30595  -0.30336  -0.30188  -0.29665  -0.29275
 Alpha  occ. eigenvalues --   -0.28989  -0.28884  -0.28109  -0.26739  -0.25907
 Alpha  occ. eigenvalues --   -0.25789  -0.25467  -0.25241  -0.25006  -0.20481
 Alpha  occ. eigenvalues --   -0.18433
 Alpha virt. eigenvalues --   -0.10632  -0.04977  -0.03848  -0.01762  -0.01178
 Alpha virt. eigenvalues --   -0.00963   0.00097   0.01123   0.01403   0.03858
 Alpha virt. eigenvalues --    0.04662   0.04988   0.05067   0.05341   0.06006

 Mulliken charges:
               1
     1  Mg   0.951935
     2  C   -0.000936
     3  C   -0.098918
     4  C   -0.059727
     5  C   -0.084697
     6  N   -0.358456
     7  C    0.011904
     8  C   -0.111934
     9  C   -0.085925
    10  C   -0.011032
    11  C    0.020890
    12  C   -0.014203
    13  C    0.061615
    14  C    0.214227
    15  O   -0.240154
    16  O   -0.388078
    17  N   -0.526843
    18  C    0.246550
    19  C   -0.195925
    20  C   -0.089632
    21  C    0.192914
    22  C    0.067372
    23  C    0.033640
    24  O   -0.215914
    25  C   -0.016795
    26  N   -0.392627
    27  C    0.034656
    28  C   -0.111148
    29  C   -0.089099
    30  C    0.112721
    31  C    0.003157
    32  C   -0.030973
    33  C   -0.076356
    34  N   -0.454182
    35  C    0.129440
    36  C   -0.192176
    37  C   -0.000954
    38  C    0.118285
    39  C    0.061531
    40  C    0.172869
    41  O   -0.240896
    42  C   -0.138056
    43  C    0.275558
    44  O   -0.234825
    45  O   -0.369967
    46  C    0.113596
    47  C    0.201594
    48  C   -0.095225
    49  C   -0.231425
    50  C    0.032696
    51  C    0.025180
    52  C   -0.023543
    53  C   -0.014987
    54  C   -0.221528
    55  C   -0.026890
    56  C    0.008792
    57  C   -0.076567
    58  C   -0.023507
    59  C   -0.191000
    60  C   -0.011858
    61  C    0.021000
    62  C   -0.033344
    63  C   -0.022009
    64  C   -0.246643
    65  C   -0.008848
    66  C   -0.021647
    67  H    0.002448
    68  H    0.013747
    69  H   -0.003453
    70  H    0.070752
    71  H    0.040271
    72  H    0.059545
    73  H    0.052479
    74  H    0.061552
    75  H    0.037160
    76  H    0.025043
    77  H    0.054980
    78  H    0.068934
    79  H    0.045534
    80  H    0.038706
    81  H    0.074616
    82  H    0.069951
    83  H    0.063496
    84  H    0.050630
    85  H    0.054292
    86  H    0.053317
    87  H    0.056498
    88  H    0.048585
    89  H    0.055406
    90  H    0.045091
    91  H    0.029660
    92  H    0.042806
    93  H    0.026976
    94  H    0.046461
    95  H    0.057698
    96  H    0.050387
    97  H    0.052672
    98  H    0.091010
    99  H    0.051073
   100  H    0.055044
   101  H    0.061264
   102  H    0.064666
   103  H    0.041743
   104  H    0.021893
   105  H    0.038580
   106  H    0.044889
   107  H    0.074212
   108  H    0.051846
   109  H    0.017571
   110  H    0.037714
   111  H    0.035852
   112  H    0.028784
   113  H    0.021448
   114  H    0.032978
   115  H    0.029291
   116  H    0.038860
   117  H    0.030043
   118  H    0.021450
   119  H    0.027385
   120  H    0.025385
   121  H    0.027575
   122  H    0.032775
   123  H    0.014714
   124  H    0.038038
   125  H    0.027260
   126  H    0.029739
   127  H    0.026623
   128  H    0.023313
   129  H    0.011111
   130  H    0.027788
   131  H    0.028301
   132  H    0.032602
   133  H    0.024725
   134  H    0.040121
   135  H    0.047491
   136  H    0.040128
   137  H    0.033252
   138  H    0.020528
   139  H    0.032174
   140  H    0.019842
 Sum of Mulliken charges =  -0.00000

 Dipole moment (field-independent basis, Debye):
    X=             -6.2066    Y=              4.2679    Z=              1.2721  Tot=              7.6391
 Quadrupole moment (field-independent basis, Debye-Ang):
   XX=           -388.9128   YY=           -425.2393   ZZ=           -396.0973
   XY=             31.0143   XZ=             26.0850   YZ=              3.8533

 Normal termination of Gaussian 16 at Wed Apr 27 00:27:46 2022.
