 Gaussian 16, Revision A.03,
 Gaussian 16:  ES64L-G16RevA.03 25-Dec-2016

 --------------------------------
 #p wB97XD/Def2SVP td=(nstates=5)
 --------------------------------

 ----------------------------------------------------
 step_101_chromophore_21 TDDFT with wB97XD functional
 ----------------------------------------------------
 Symbolic Z-matrix:
 Charge =  0 Multiplicity = 1

                         Standard orientation:
 ---------------------------------------------------------------------
 Center     Atomic      Atomic             Coordinates (Angstroms)
 Number     Number       Type             X           Y           Z
 ---------------------------------------------------------------------
      1         12           0        5.035479    0.836513    0.400748
      2          6           0        4.210615   -2.584974    0.266826
      3          6           0        2.198770    1.488497   -1.425419
      4          6           0        6.090308    3.934391    0.094633
      5          6           0        8.138537   -0.102441    1.758687
      6          7           0        3.438986   -0.451432   -0.549893
      7          6           0        3.198706   -1.787935   -0.271292
      8          6           0        1.710912   -2.195066   -0.522845
      9          6           0        1.183507   -0.974885   -1.335485
     10          6           0        2.282511    0.108504   -1.037689
     11          6           0        0.873991   -0.981109   -2.893403
     12          6           0        1.012592   -2.390536    0.868326
     13          6           0       -0.333656   -2.985058    0.899768
     14          6           0       -1.182407   -3.169112   -0.398990
     15          8           0       -0.843392   -3.853225   -1.319334
     16          8           0       -2.347796   -2.381770   -0.408162
     17          7           0        4.289388    2.456018   -0.571951
     18          6           0        3.057815    2.543154   -1.221705
     19          6           0        2.916963    3.862966   -1.788180
     20          6           0        4.128343    4.566138   -1.518959
     21          6           0        4.918039    3.660554   -0.615049
     22          6           0        1.736844    4.284667   -2.602753
     23          6           0        4.641170    5.951321   -1.956587
     24          8           0        5.761200    6.327612   -1.740417
     25          6           0        3.738627    6.822597   -2.752155
     26          7           0        6.927542    1.804280    0.841636
     27          6           0        7.047864    3.152992    0.769762
     28          6           0        8.362227    3.663529    1.325765
     29          6           0        9.063234    2.278480    1.682745
     30          6           0        7.992441    1.224450    1.458843
     31          6           0        9.081165    4.640782    0.350643
     32          6           0        9.700666    2.248195    3.090474
     33          6           0       11.212950    2.375890    3.026802
     34          7           0        6.054950   -0.997825    0.873644
     35          6           0        7.291459   -1.220080    1.450992
     36          6           0        7.453301   -2.628766    1.706032
     37          6           0        6.327215   -3.231589    1.216746
     38          6           0        5.461181   -2.219054    0.699104
     39          6           0        8.604709   -3.168248    2.429296
     40          6           0        5.620964   -4.447584    1.102056
     41          8           0        5.860001   -5.581550    1.565298
     42          6           0        4.244488   -4.034533    0.534723
     43          6           0        3.709814   -4.775008   -0.680326
     44          8           0        3.993419   -4.649460   -1.850674
     45          8           0        2.900016   -5.803591   -0.240392
     46          6           0        2.537957   -6.831973   -1.200168
     47          6           0       -2.994511   -2.316147   -1.770130
     48          6           0       -4.285718   -1.554974   -1.599831
     49          6           0       -5.471192   -2.160574   -1.280369
     50          6           0       -5.639859   -3.538806   -0.709280
     51          6           0       -6.755958   -1.399828   -1.490485
     52          6           0       -7.111981   -1.242152   -2.936444
     53          6           0       -7.682194    0.167674   -3.200536
     54          6           0       -9.243632    0.207286   -3.145880
     55          6           0       -9.897195   -0.232997   -4.499431
     56          6           0       -9.846287    1.530226   -2.619682
     57          6           0      -10.905731    1.318670   -1.505101
     58          6           0      -10.233003    1.113811   -0.165841
     59          6           0      -11.080463    1.542667    0.992641
     60          6           0      -10.877127    3.064724    1.019868
     61          6           0      -10.590027    0.807974    2.271609
     62          6           0      -11.665065    0.202933    3.050668
     63          6           0      -12.102718    1.154904    4.188267
     64          6           0      -13.621788    1.202331    4.304922
     65          6           0      -14.180387    2.343465    3.335593
     66          6           0      -14.013639    1.415665    5.773816
     67          1           0        1.274775    1.609994   -1.995299
     68          1           0        6.470683    4.956182    0.047101
     69          1           0        9.084637   -0.323842    2.258215
     70          1           0        1.655189   -3.060858   -1.183736
     71          1           0        0.345500   -0.606154   -0.744598
     72          1           0        1.640598   -0.356170   -3.349266
     73          1           0       -0.136507   -0.650061   -3.132195
     74          1           0        1.004172   -2.007093   -3.236910
     75          1           0        1.159152   -1.526848    1.516796
     76          1           0        1.634533   -3.101235    1.413366
     77          1           0       -0.837045   -2.249759    1.527465
     78          1           0       -0.177458   -3.938489    1.403443
     79          1           0        1.429857    5.247989   -2.195849
     80          1           0        0.899357    3.636766   -2.343271
     81          1           0        1.906923    4.364611   -3.675709
     82          1           0        2.955978    7.184891   -2.085738
     83          1           0        3.432251    6.262719   -3.635843
     84          1           0        4.365121    7.658937   -3.062725
     85          1           0        8.201285    4.246552    2.232134
     86          1           0        9.882820    2.201056    0.968887
     87          1           0        8.605051    4.558819   -0.626363
     88          1           0       10.128167    4.367971    0.221693
     89          1           0        8.791501    5.650691    0.641738
     90          1           0        9.485310    1.391839    3.729491
     91          1           0        9.332793    3.154096    3.571545
     92          1           0       11.611799    1.365719    3.115681
     93          1           0       11.568509    2.841012    3.947116
     94          1           0       11.637186    3.016027    2.252688
     95          1           0        8.470444   -2.721951    3.414799
     96          1           0        9.583674   -2.963750    1.997316
     97          1           0        8.653539   -4.255639    2.498125
     98          1           0        3.528602   -4.155809    1.347603
     99          1           0        1.469836   -6.751208   -1.404550
    100          1           0        2.725395   -7.842088   -0.833923
    101          1           0        3.002533   -6.817214   -2.185988
    102          1           0       -3.119944   -3.306626   -2.209279
    103          1           0       -2.384710   -1.721464   -2.450061
    104          1           0       -4.354028   -0.588615   -2.098741
    105          1           0       -4.684115   -4.060030   -0.761652
    106          1           0       -6.214335   -3.908292   -1.558504
    107          1           0       -6.147878   -3.718947    0.238364
    108          1           0       -6.711343   -0.473293   -0.918790
    109          1           0       -7.567692   -1.900795   -0.963378
    110          1           0       -7.847410   -1.949232   -3.321605
    111          1           0       -6.245279   -1.237638   -3.597858
    112          1           0       -7.387009    0.583417   -4.163793
    113          1           0       -7.366740    0.845327   -2.406963
    114          1           0       -9.642445   -0.621175   -2.560596
    115          1           0      -10.923513   -0.552084   -4.319071
    116          1           0       -9.360918   -1.040090   -4.999390
    117          1           0      -10.021239    0.636493   -5.143886
    118          1           0      -10.404400    2.054498   -3.395520
    119          1           0       -9.108053    2.187515   -2.158482
    120          1           0      -11.398325    0.374025   -1.733481
    121          1           0      -11.658452    2.104037   -1.576954
    122          1           0       -9.184596    1.410115   -0.204068
    123          1           0      -10.240105    0.027192   -0.087211
    124          1           0      -12.123049    1.429667    0.694167
    125          1           0      -11.763626    3.640834    0.756515
    126          1           0      -10.156049    3.427582    0.287278
    127          1           0      -10.603012    3.463870    1.995959
    128          1           0       -9.994936    1.437953    2.932069
    129          1           0       -9.986553   -0.066553    2.023718
    130          1           0      -11.232837   -0.710813    3.456618
    131          1           0      -12.466359    0.034462    2.330877
    132          1           0      -11.714615    2.168107    4.083181
    133          1           0      -11.631429    0.719038    5.070068
    134          1           0      -14.100785    0.264088    4.021603
    135          1           0      -14.832424    1.804040    2.647891
    136          1           0      -13.330636    2.885824    2.921776
    137          1           0      -14.725484    3.084727    3.921007
    138          1           0      -13.262708    1.127154    6.508496
    139          1           0      -14.945122    0.907275    6.022685
    140          1           0      -14.145516    2.435073    6.136633
 ---------------------------------------------------------------------

 SCF Done:  E(RwB97XD) =  -3007.84914454     A.U. after   18 cycles

 Excitation energies and oscillator strengths:

 Excited State   1:      Singlet-A      1.7107 eV  724.77 nm  f=0.3703  <S**2>=0.000
     245 -> 248        0.19358
     246 -> 247        0.68057
     245 <- 248        0.11463
 This state for optimization and/or second-order correction.
 Total Energy, E(TD-HF/TD-DFT) =  -3007.78627861
 Copying the excited state density for this state as the 1-particle RhoCI density.

 Excited State   2:      Singlet-A      2.1776 eV  569.36 nm  f=0.0885  <S**2>=0.000
     245 -> 247        0.63550
     246 -> 248       -0.29682

 Excited State   3:      Singlet-A      3.4860 eV  355.66 nm  f=0.4767  <S**2>=0.000
     241 -> 247        0.18176
     242 -> 247        0.12393
     242 -> 249       -0.10412
     244 -> 247        0.17110
     245 -> 247        0.24100
     246 -> 248        0.55834

 Excited State   4:      Singlet-A      3.5366 eV  350.58 nm  f=0.0898  <S**2>=0.000
     240 -> 247       -0.10478
     241 -> 247       -0.17953
     241 -> 249       -0.14361
     242 -> 247        0.32592
     242 -> 249       -0.13927
     243 -> 247        0.30074
     243 -> 249       -0.11577
     244 -> 247        0.31617
     246 -> 248       -0.21324

 Excited State   5:      Singlet-A      3.5491 eV  349.34 nm  f=0.0107  <S**2>=0.000
     241 -> 247       -0.31538
     242 -> 247       -0.17084
     242 -> 249        0.18139
     243 -> 247       -0.14528
     243 -> 249        0.16127
     244 -> 247        0.46217
     246 -> 248        0.10385

 The electronic state is 1-A.
 Alpha  occ. eigenvalues --  -46.95167 -19.29990 -19.28969 -19.25824 -19.24386
 Alpha  occ. eigenvalues --  -19.24132 -19.22889 -14.46984 -14.45438 -14.44164
 Alpha  occ. eigenvalues --  -14.43089 -10.43766 -10.42474 -10.39164 -10.38068
 Alpha  occ. eigenvalues --  -10.36178 -10.35356 -10.34869 -10.34809 -10.34435
 Alpha  occ. eigenvalues --  -10.34338 -10.33802 -10.33549 -10.33339 -10.32704
 Alpha  occ. eigenvalues --  -10.32397 -10.32377 -10.32018 -10.31856 -10.31601
 Alpha  occ. eigenvalues --  -10.31497 -10.31446 -10.31428 -10.31402 -10.31353
 Alpha  occ. eigenvalues --  -10.31340 -10.31112 -10.30833 -10.30708 -10.30373
 Alpha  occ. eigenvalues --  -10.30202 -10.29989 -10.29907 -10.29840 -10.29772
 Alpha  occ. eigenvalues --  -10.29769 -10.29684 -10.29662 -10.29657 -10.29492
 Alpha  occ. eigenvalues --  -10.29473 -10.29414 -10.29217 -10.28934 -10.28847
 Alpha  occ. eigenvalues --  -10.28825 -10.28735 -10.28638 -10.28543 -10.28257
 Alpha  occ. eigenvalues --  -10.28070 -10.28062 -10.28016 -10.27913 -10.27882
 Alpha  occ. eigenvalues --  -10.27754  -3.21070  -1.94646  -1.94182  -1.94036
 Alpha  occ. eigenvalues --   -1.18377  -1.17578  -1.13991  -1.10267  -1.09696
 Alpha  occ. eigenvalues --   -1.09104  -1.05576  -1.04831  -1.04633  -1.03664
 Alpha  occ. eigenvalues --   -0.95250  -0.93441  -0.92973  -0.91983  -0.91023
 Alpha  occ. eigenvalues --   -0.90968  -0.90253  -0.89629  -0.89231  -0.89133
 Alpha  occ. eigenvalues --   -0.88206  -0.87373  -0.86890  -0.85439  -0.85242
 Alpha  occ. eigenvalues --   -0.84724  -0.84219  -0.83516  -0.83078  -0.82037
 Alpha  occ. eigenvalues --   -0.81922  -0.80375  -0.80013  -0.78829  -0.78063
 Alpha  occ. eigenvalues --   -0.77517  -0.77288  -0.76971  -0.76814  -0.76076
 Alpha  occ. eigenvalues --   -0.75179  -0.74690  -0.73392  -0.72483  -0.71159
 Alpha  occ. eigenvalues --   -0.70654  -0.70336  -0.69144  -0.68776  -0.67595
 Alpha  occ. eigenvalues --   -0.67007  -0.66739  -0.66337  -0.65994  -0.65776
 Alpha  occ. eigenvalues --   -0.65305  -0.65173  -0.64791  -0.63597  -0.62091
 Alpha  occ. eigenvalues --   -0.61713  -0.61388  -0.61188  -0.60136  -0.59840
 Alpha  occ. eigenvalues --   -0.59286  -0.58817  -0.58548  -0.58315  -0.57644
 Alpha  occ. eigenvalues --   -0.57102  -0.56958  -0.56752  -0.56500  -0.55801
 Alpha  occ. eigenvalues --   -0.55735  -0.55639  -0.55356  -0.55069  -0.55048
 Alpha  occ. eigenvalues --   -0.54666  -0.54609  -0.54470  -0.54340  -0.53867
 Alpha  occ. eigenvalues --   -0.53730  -0.53443  -0.53265  -0.53025  -0.52847
 Alpha  occ. eigenvalues --   -0.52819  -0.52246  -0.52028  -0.51927  -0.51587
 Alpha  occ. eigenvalues --   -0.51399  -0.51080  -0.50826  -0.50768  -0.50685
 Alpha  occ. eigenvalues --   -0.50494  -0.50298  -0.50218  -0.49962  -0.49516
 Alpha  occ. eigenvalues --   -0.49316  -0.49223  -0.48768  -0.48726  -0.48340
 Alpha  occ. eigenvalues --   -0.48249  -0.48119  -0.47889  -0.47796  -0.47606
 Alpha  occ. eigenvalues --   -0.47520  -0.47292  -0.47270  -0.46846  -0.46779
 Alpha  occ. eigenvalues --   -0.46284  -0.46257  -0.46078  -0.45932  -0.45724
 Alpha  occ. eigenvalues --   -0.45445  -0.45344  -0.45155  -0.45144  -0.45058
 Alpha  occ. eigenvalues --   -0.44855  -0.44631  -0.44332  -0.44001  -0.43750
 Alpha  occ. eigenvalues --   -0.43425  -0.43364  -0.43133  -0.42854  -0.42811
 Alpha  occ. eigenvalues --   -0.42694  -0.42357  -0.42230  -0.42194  -0.41714
 Alpha  occ. eigenvalues --   -0.41355  -0.41221  -0.41018  -0.40823  -0.40697
 Alpha  occ. eigenvalues --   -0.40588  -0.40494  -0.40385  -0.39512  -0.39464
 Alpha  occ. eigenvalues --   -0.38947  -0.38782  -0.38527  -0.38376  -0.38323
 Alpha  occ. eigenvalues --   -0.37542  -0.37372  -0.37194  -0.36718  -0.36110
 Alpha  occ. eigenvalues --   -0.35866  -0.35792  -0.34842  -0.33535  -0.33167
 Alpha  occ. eigenvalues --   -0.32478  -0.32206  -0.32139  -0.31336  -0.25535
 Alpha  occ. eigenvalues --   -0.22632
 Alpha virt. eigenvalues --   -0.06392   0.00394   0.02402   0.04589   0.04978
 Alpha virt. eigenvalues --    0.05551   0.06946   0.07971   0.08160   0.10489
 Alpha virt. eigenvalues --    0.11066   0.11630   0.11751   0.12059   0.12663

 Mulliken charges:
               1
     1  Mg   0.942803
     2  C    0.014058
     3  C   -0.113454
     4  C   -0.077155
     5  C   -0.100461
     6  N   -0.326763
     7  C   -0.025389
     8  C   -0.082521
     9  C   -0.068136
    10  C   -0.021647
    11  C    0.034432
    12  C   -0.000280
    13  C    0.074203
    14  C    0.201964
    15  O   -0.237333
    16  O   -0.387250
    17  N   -0.496775
    18  C    0.244528
    19  C   -0.182302
    20  C   -0.087004
    21  C    0.190302
    22  C    0.078599
    23  C    0.031995
    24  O   -0.208478
    25  C   -0.007105
    26  N   -0.361988
    27  C    0.027695
    28  C   -0.090829
    29  C   -0.060328
    30  C    0.099733
    31  C    0.015707
    32  C   -0.016047
    33  C   -0.059547
    34  N   -0.416772
    35  C    0.111838
    36  C   -0.181847
    37  C    0.005354
    38  C    0.090684
    39  C    0.066747
    40  C    0.152507
    41  O   -0.232004
    42  C   -0.104083
    43  C    0.253849
    44  O   -0.229144
    45  O   -0.367889
    46  C    0.129203
    47  C    0.217644
    48  C   -0.105601
    49  C   -0.214783
    50  C    0.048881
    51  C    0.039450
    52  C   -0.006262
    53  C    0.006103
    54  C   -0.195006
    55  C   -0.015016
    56  C    0.026574
    57  C   -0.059690
    58  C    0.001233
    59  C   -0.162976
    60  C   -0.004029
    61  C    0.036847
    62  C   -0.014808
    63  C   -0.005063
    64  C   -0.217580
    65  C    0.006037
    66  C   -0.011090
    67  H   -0.005376
    68  H    0.003980
    69  H   -0.012014
    70  H    0.058189
    71  H    0.027551
    72  H    0.052249
    73  H    0.046458
    74  H    0.058195
    75  H    0.029756
    76  H    0.011034
    77  H    0.049611
    78  H    0.065489
    79  H    0.040361
    80  H    0.035070
    81  H    0.073059
    82  H    0.066263
    83  H    0.058155
    84  H    0.050245
    85  H    0.044180
    86  H    0.039823
    87  H    0.048705
    88  H    0.043950
    89  H    0.050575
    90  H    0.038681
    91  H    0.019534
    92  H    0.036487
    93  H    0.020733
    94  H    0.039388
    95  H    0.050906
    96  H    0.044702
    97  H    0.049010
    98  H    0.081257
    99  H    0.047363
   100  H    0.050850
   101  H    0.057153
   102  H    0.059758
   103  H    0.034482
   104  H    0.018095
   105  H    0.032101
   106  H    0.035412
   107  H    0.071191
   108  H    0.043679
   109  H    0.010183
   110  H    0.028633
   111  H    0.026571
   112  H    0.021908
   113  H    0.007596
   114  H    0.015856
   115  H    0.023014
   116  H    0.033195
   117  H    0.022888
   118  H    0.013706
   119  H    0.016000
   120  H    0.013949
   121  H    0.020503
   122  H    0.020728
   123  H    0.000927
   124  H    0.025300
   125  H    0.022067
   126  H    0.022429
   127  H    0.020252
   128  H    0.013924
   129  H    0.002995
   130  H    0.021798
   131  H    0.015760
   132  H    0.020194
   133  H    0.016218
   134  H    0.029834
   135  H    0.042665
   136  H    0.027734
   137  H    0.027838
   138  H    0.013949
   139  H    0.027237
   140  H    0.013325
 Sum of Mulliken charges =  -0.00000

 Dipole moment (field-independent basis, Debye):
    X=             -6.6085    Y=              4.8508    Z=              0.9307  Tot=              8.2503
 Quadrupole moment (field-independent basis, Debye-Ang):
   XX=           -393.4796   YY=           -423.0352   ZZ=           -395.4700
   XY=             33.1464   XZ=             24.1562   YZ=              2.9278

 Normal termination of Gaussian 16 at Wed Apr 27 00:57:33 2022.
