 Gaussian 16, Revision A.03,
 Gaussian 16:  ES64L-G16RevA.03 25-Dec-2016

 --------------------
 #p ZINDO=(nstates=5)
 --------------------

 -----------------------------
 step_101_chromophore_21 ZINDO
 -----------------------------
 Symbolic Z-matrix:
 Charge =  0 Multiplicity = 1

                         Standard orientation:
 ---------------------------------------------------------------------
 Center     Atomic      Atomic             Coordinates (Angstroms)
 Number     Number       Type             X           Y           Z
 ---------------------------------------------------------------------
      1         12           0        5.035479    0.836513    0.400748
      2          6           0        4.210615   -2.584974    0.266826
      3          6           0        2.198770    1.488497   -1.425419
      4          6           0        6.090308    3.934391    0.094633
      5          6           0        8.138537   -0.102441    1.758687
      6          7           0        3.438986   -0.451432   -0.549893
      7          6           0        3.198706   -1.787935   -0.271292
      8          6           0        1.710912   -2.195066   -0.522845
      9          6           0        1.183507   -0.974885   -1.335485
     10          6           0        2.282511    0.108504   -1.037689
     11          6           0        0.873991   -0.981109   -2.893403
     12          6           0        1.012592   -2.390536    0.868326
     13          6           0       -0.333656   -2.985058    0.899768
     14          6           0       -1.182407   -3.169112   -0.398990
     15          8           0       -0.843392   -3.853225   -1.319334
     16          8           0       -2.347796   -2.381770   -0.408162
     17          7           0        4.289388    2.456018   -0.571951
     18          6           0        3.057815    2.543154   -1.221705
     19          6           0        2.916963    3.862966   -1.788180
     20          6           0        4.128343    4.566138   -1.518959
     21          6           0        4.918039    3.660554   -0.615049
     22          6           0        1.736844    4.284667   -2.602753
     23          6           0        4.641170    5.951321   -1.956587
     24          8           0        5.761200    6.327612   -1.740417
     25          6           0        3.738627    6.822597   -2.752155
     26          7           0        6.927542    1.804280    0.841636
     27          6           0        7.047864    3.152992    0.769762
     28          6           0        8.362227    3.663529    1.325765
     29          6           0        9.063234    2.278480    1.682745
     30          6           0        7.992441    1.224450    1.458843
     31          6           0        9.081165    4.640782    0.350643
     32          6           0        9.700666    2.248195    3.090474
     33          6           0       11.212950    2.375890    3.026802
     34          7           0        6.054950   -0.997825    0.873644
     35          6           0        7.291459   -1.220080    1.450992
     36          6           0        7.453301   -2.628766    1.706032
     37          6           0        6.327215   -3.231589    1.216746
     38          6           0        5.461181   -2.219054    0.699104
     39          6           0        8.604709   -3.168248    2.429296
     40          6           0        5.620964   -4.447584    1.102056
     41          8           0        5.860001   -5.581550    1.565298
     42          6           0        4.244488   -4.034533    0.534723
     43          6           0        3.709814   -4.775008   -0.680326
     44          8           0        3.993419   -4.649460   -1.850674
     45          8           0        2.900016   -5.803591   -0.240392
     46          6           0        2.537957   -6.831973   -1.200168
     47          6           0       -2.994511   -2.316147   -1.770130
     48          6           0       -4.285718   -1.554974   -1.599831
     49          6           0       -5.471192   -2.160574   -1.280369
     50          6           0       -5.639859   -3.538806   -0.709280
     51          6           0       -6.755958   -1.399828   -1.490485
     52          6           0       -7.111981   -1.242152   -2.936444
     53          6           0       -7.682194    0.167674   -3.200536
     54          6           0       -9.243632    0.207286   -3.145880
     55          6           0       -9.897195   -0.232997   -4.499431
     56          6           0       -9.846287    1.530226   -2.619682
     57          6           0      -10.905731    1.318670   -1.505101
     58          6           0      -10.233003    1.113811   -0.165841
     59          6           0      -11.080463    1.542667    0.992641
     60          6           0      -10.877127    3.064724    1.019868
     61          6           0      -10.590027    0.807974    2.271609
     62          6           0      -11.665065    0.202933    3.050668
     63          6           0      -12.102718    1.154904    4.188267
     64          6           0      -13.621788    1.202331    4.304922
     65          6           0      -14.180387    2.343465    3.335593
     66          6           0      -14.013639    1.415665    5.773816
     67          1           0        1.274775    1.609994   -1.995299
     68          1           0        6.470683    4.956182    0.047101
     69          1           0        9.084637   -0.323842    2.258215
     70          1           0        1.655189   -3.060858   -1.183736
     71          1           0        0.345500   -0.606154   -0.744598
     72          1           0        1.640598   -0.356170   -3.349266
     73          1           0       -0.136507   -0.650061   -3.132195
     74          1           0        1.004172   -2.007093   -3.236910
     75          1           0        1.159152   -1.526848    1.516796
     76          1           0        1.634533   -3.101235    1.413366
     77          1           0       -0.837045   -2.249759    1.527465
     78          1           0       -0.177458   -3.938489    1.403443
     79          1           0        1.429857    5.247989   -2.195849
     80          1           0        0.899357    3.636766   -2.343271
     81          1           0        1.906923    4.364611   -3.675709
     82          1           0        2.955978    7.184891   -2.085738
     83          1           0        3.432251    6.262719   -3.635843
     84          1           0        4.365121    7.658937   -3.062725
     85          1           0        8.201285    4.246552    2.232134
     86          1           0        9.882820    2.201056    0.968887
     87          1           0        8.605051    4.558819   -0.626363
     88          1           0       10.128167    4.367971    0.221693
     89          1           0        8.791501    5.650691    0.641738
     90          1           0        9.485310    1.391839    3.729491
     91          1           0        9.332793    3.154096    3.571545
     92          1           0       11.611799    1.365719    3.115681
     93          1           0       11.568509    2.841012    3.947116
     94          1           0       11.637186    3.016027    2.252688
     95          1           0        8.470444   -2.721951    3.414799
     96          1           0        9.583674   -2.963750    1.997316
     97          1           0        8.653539   -4.255639    2.498125
     98          1           0        3.528602   -4.155809    1.347603
     99          1           0        1.469836   -6.751208   -1.404550
    100          1           0        2.725395   -7.842088   -0.833923
    101          1           0        3.002533   -6.817214   -2.185988
    102          1           0       -3.119944   -3.306626   -2.209279
    103          1           0       -2.384710   -1.721464   -2.450061
    104          1           0       -4.354028   -0.588615   -2.098741
    105          1           0       -4.684115   -4.060030   -0.761652
    106          1           0       -6.214335   -3.908292   -1.558504
    107          1           0       -6.147878   -3.718947    0.238364
    108          1           0       -6.711343   -0.473293   -0.918790
    109          1           0       -7.567692   -1.900795   -0.963378
    110          1           0       -7.847410   -1.949232   -3.321605
    111          1           0       -6.245279   -1.237638   -3.597858
    112          1           0       -7.387009    0.583417   -4.163793
    113          1           0       -7.366740    0.845327   -2.406963
    114          1           0       -9.642445   -0.621175   -2.560596
    115          1           0      -10.923513   -0.552084   -4.319071
    116          1           0       -9.360918   -1.040090   -4.999390
    117          1           0      -10.021239    0.636493   -5.143886
    118          1           0      -10.404400    2.054498   -3.395520
    119          1           0       -9.108053    2.187515   -2.158482
    120          1           0      -11.398325    0.374025   -1.733481
    121          1           0      -11.658452    2.104037   -1.576954
    122          1           0       -9.184596    1.410115   -0.204068
    123          1           0      -10.240105    0.027192   -0.087211
    124          1           0      -12.123049    1.429667    0.694167
    125          1           0      -11.763626    3.640834    0.756515
    126          1           0      -10.156049    3.427582    0.287278
    127          1           0      -10.603012    3.463870    1.995959
    128          1           0       -9.994936    1.437953    2.932069
    129          1           0       -9.986553   -0.066553    2.023718
    130          1           0      -11.232837   -0.710813    3.456618
    131          1           0      -12.466359    0.034462    2.330877
    132          1           0      -11.714615    2.168107    4.083181
    133          1           0      -11.631429    0.719038    5.070068
    134          1           0      -14.100785    0.264088    4.021603
    135          1           0      -14.832424    1.804040    2.647891
    136          1           0      -13.330636    2.885824    2.921776
    137          1           0      -14.725484    3.084727    3.921007
    138          1           0      -13.262708    1.127154    6.508496
    139          1           0      -14.945122    0.907275    6.022685
    140          1           0      -14.145516    2.435073    6.136633
 ---------------------------------------------------------------------

 SCF Done:  E(RZINDO/S) =  -474.570782344     A.U. after   19 cycles

 Excitation energies and oscillator strengths:

 Excited State   1:      Singlet-A      1.3051 eV  950.00 nm  f=0.5539  <S**2>=0.000
     175 ->178        -0.18057
     176 ->177         0.66657
 This state for optimization and/or second-order correction.
 Total Energy, E(CIS/TDA) =  -474.522820922
 Copying the excited state density for this state as the 1-particle RhoCI density.

 Excited State   2:      Singlet-A      1.9247 eV  644.17 nm  f=0.0179  <S**2>=0.000
     175 ->177         0.52521
     176 ->178         0.44642

 Excited State   3:      Singlet-A      2.8950 eV  428.27 nm  f=0.5727  <S**2>=0.000
     175 ->177        -0.31488
     176 ->178         0.40760
     176 ->179         0.35632
     176 ->180        -0.18246
     176 ->181         0.14540
     176 ->182        -0.10219

 Excited State   4:      Singlet-A      3.0092 eV  412.02 nm  f=0.0791  <S**2>=0.000
     168 ->177        -0.20469
     168 ->179         0.28184
     168 ->180         0.10632
     168 ->181        -0.10803
     168 ->186         0.17961
     170 ->177         0.19366
     170 ->178         0.12414
     170 ->179         0.17687
     170 ->180        -0.16515
     170 ->181         0.12879
     170 ->182        -0.10284
     170 ->188         0.10653
     176 ->179         0.22947

 Excited State   5:      Singlet-A      3.0156 eV  411.14 nm  f=0.0034  <S**2>=0.000
     167 ->179        -0.10742
     168 ->177         0.20015
     168 ->179        -0.22837
     168 ->180        -0.11766
     168 ->181         0.11454
     168 ->186        -0.14845
     170 ->177         0.22984
     170 ->178         0.15919
     170 ->179         0.24786
     170 ->180        -0.20352
     170 ->181         0.15812
     170 ->182        -0.12766
     170 ->186         0.12686
     170 ->188         0.13478

 The electronic state is 1-A.
 Alpha  occ. eigenvalues --   -1.83609  -1.80827  -1.79185  -1.72431  -1.71020
 Alpha  occ. eigenvalues --   -1.69651  -1.69304  -1.63529  -1.61641  -1.58142
 Alpha  occ. eigenvalues --   -1.57591  -1.52524  -1.49301  -1.48129  -1.47712
 Alpha  occ. eigenvalues --   -1.44076  -1.43287  -1.41721  -1.41080  -1.39673
 Alpha  occ. eigenvalues --   -1.36341  -1.34516  -1.33571  -1.32625  -1.27984
 Alpha  occ. eigenvalues --   -1.26661  -1.25484  -1.23038  -1.21833  -1.18985
 Alpha  occ. eigenvalues --   -1.17267  -1.16424  -1.14924  -1.14703  -1.13647
 Alpha  occ. eigenvalues --   -1.11988  -1.10514  -1.10021  -1.03828  -1.03491
 Alpha  occ. eigenvalues --   -1.03076  -1.01505  -1.00284  -0.96724  -0.95983
 Alpha  occ. eigenvalues --   -0.94810  -0.94329  -0.93848  -0.93284  -0.93259
 Alpha  occ. eigenvalues --   -0.91325  -0.90841  -0.89839  -0.87897  -0.86136
 Alpha  occ. eigenvalues --   -0.86033  -0.84063  -0.83601  -0.82563  -0.80854
 Alpha  occ. eigenvalues --   -0.80122  -0.79195  -0.78389  -0.78005  -0.76955
 Alpha  occ. eigenvalues --   -0.76642  -0.76044  -0.75647  -0.74492  -0.74016
 Alpha  occ. eigenvalues --   -0.72899  -0.72549  -0.72249  -0.71689  -0.70205
 Alpha  occ. eigenvalues --   -0.69980  -0.69721  -0.68912  -0.68708  -0.68111
 Alpha  occ. eigenvalues --   -0.67974  -0.67219  -0.66504  -0.65776  -0.65185
 Alpha  occ. eigenvalues --   -0.64705  -0.64697  -0.64189  -0.63740  -0.63536
 Alpha  occ. eigenvalues --   -0.63281  -0.63176  -0.62210  -0.61972  -0.61603
 Alpha  occ. eigenvalues --   -0.61408  -0.61057  -0.60685  -0.60640  -0.60134
 Alpha  occ. eigenvalues --   -0.59470  -0.59351  -0.58619  -0.58319  -0.58043
 Alpha  occ. eigenvalues --   -0.57852  -0.57417  -0.57184  -0.56877  -0.56505
 Alpha  occ. eigenvalues --   -0.56328  -0.56066  -0.55605  -0.55110  -0.54565
 Alpha  occ. eigenvalues --   -0.54374  -0.54022  -0.53538  -0.53171  -0.52178
 Alpha  occ. eigenvalues --   -0.51885  -0.51735  -0.51291  -0.51086  -0.50902
 Alpha  occ. eigenvalues --   -0.50369  -0.50144  -0.49842  -0.49579  -0.49558
 Alpha  occ. eigenvalues --   -0.49258  -0.48945  -0.48839  -0.48683  -0.48580
 Alpha  occ. eigenvalues --   -0.48451  -0.48321  -0.47905  -0.47814  -0.47566
 Alpha  occ. eigenvalues --   -0.47396  -0.47218  -0.47029  -0.46801  -0.46725
 Alpha  occ. eigenvalues --   -0.46605  -0.45887  -0.45707  -0.45609  -0.44952
 Alpha  occ. eigenvalues --   -0.44641  -0.44390  -0.44219  -0.44001  -0.43632
 Alpha  occ. eigenvalues --   -0.43573  -0.43237  -0.43064  -0.42177  -0.42014
 Alpha  occ. eigenvalues --   -0.41874  -0.40835  -0.40613  -0.39521  -0.38685
 Alpha  occ. eigenvalues --   -0.37839  -0.36706  -0.35741  -0.34400  -0.34229
 Alpha  occ. eigenvalues --   -0.33882  -0.32320  -0.31938  -0.31810  -0.26391
 Alpha  occ. eigenvalues --   -0.21406
 Alpha virt. eigenvalues --   -0.07812  -0.01994  -0.00314   0.01512   0.01592
 Alpha virt. eigenvalues --    0.01743   0.03021   0.03466   0.03692   0.04995
 Alpha virt. eigenvalues --    0.06325   0.06935   0.07452   0.08129   0.08511

 Mulliken charges:
               1
     1  Mg   0.427600
     2  C   -0.013170
     3  C   -0.071629
     4  C   -0.085996
     5  C   -0.068353
     6  N   -0.271698
     7  C    0.081464
     8  C    0.012935
     9  C    0.001134
    10  C    0.141226
    11  C   -0.043943
    12  C   -0.013255
    13  C    0.008157
    14  C    0.461969
    15  O   -0.494681
    16  O   -0.282481
    17  N   -0.337151
    18  C    0.127052
    19  C    0.031819
    20  C   -0.053766
    21  C    0.164459
    22  C   -0.041423
    23  C    0.333801
    24  O   -0.505866
    25  C   -0.032166
    26  N   -0.282871
    27  C    0.176401
    28  C    0.000221
    29  C    0.003778
    30  C    0.102735
    31  C   -0.055857
    32  C   -0.030792
    33  C   -0.061629
    34  N   -0.325143
    35  C    0.067536
    36  C    0.032661
    37  C   -0.048085
    38  C    0.079438
    39  C   -0.038598
    40  C    0.333679
    41  O   -0.543927
    42  C    0.062626
    43  C    0.483087
    44  O   -0.514997
    45  O   -0.272759
    46  C    0.075377
    47  C    0.106857
    48  C   -0.126535
    49  C    0.026563
    50  C   -0.045407
    51  C   -0.011945
    52  C   -0.022525
    53  C   -0.037889
    54  C   -0.019404
    55  C   -0.060801
    56  C   -0.038421
    57  C   -0.041861
    58  C   -0.028463
    59  C   -0.006308
    60  C   -0.060688
    61  C   -0.029327
    62  C   -0.038116
    63  C   -0.030994
    64  C   -0.011594
    65  C   -0.065745
    66  C   -0.063124
    67  H    0.022378
    68  H    0.030576
    69  H    0.017086
    70  H    0.053524
    71  H    0.021499
    72  H    0.030254
    73  H    0.028437
    74  H    0.032927
    75  H    0.028914
    76  H    0.012078
    77  H    0.027636
    78  H    0.050461
    79  H    0.022772
    80  H    0.024827
    81  H    0.044859
    82  H    0.043877
    83  H    0.040982
    84  H    0.035616
    85  H    0.034448
    86  H    0.034285
    87  H    0.023346
    88  H    0.031428
    89  H    0.030914
    90  H    0.031088
    91  H    0.013224
    92  H    0.022011
    93  H    0.003281
    94  H    0.028701
    95  H    0.031528
    96  H    0.027378
    97  H    0.025521
    98  H    0.051984
    99  H    0.029487
   100  H    0.034484
   101  H    0.048747
   102  H    0.056566
   103  H    0.034948
   104  H    0.024630
   105  H    0.023702
   106  H    0.029703
   107  H    0.045032
   108  H    0.028269
   109  H    0.009988
   110  H    0.028011
   111  H    0.019178
   112  H    0.019594
   113  H    0.016193
   114  H    0.018575
   115  H    0.012005
   116  H    0.021355
   117  H    0.015465
   118  H    0.015395
   119  H    0.020393
   120  H    0.012900
   121  H    0.019966
   122  H    0.029484
   123  H   -0.003610
   124  H    0.033843
   125  H    0.008827
   126  H    0.017190
   127  H    0.013141
   128  H    0.020618
   129  H    0.008767
   130  H    0.018757
   131  H    0.022896
   132  H    0.025844
   133  H    0.011940
   134  H    0.022991
   135  H    0.026598
   136  H    0.027694
   137  H    0.019859
   138  H    0.013249
   139  H    0.012438
   140  H    0.013852
 Sum of Mulliken charges =   0.00000

 Dipole moment (field-independent basis, Debye):
    X=             -9.8125    Y=              8.5558    Z=              1.1362  Tot=             13.0682
 N-N= 4.310605143718D+03 E-N= 0.000000000000D+00  KE=-9.295968478533D+03
 Leave Link  601 at Wed Apr 27 01:10:03 2022, MaxMem=  6710886400 cpu:               1.1 elap:               0.1
 (Enter /sw/apps/gaussian-16.0/g16/l9999.exe)
 1\1\GINC-BP1-COMPUTE155\SP\RZINDO CIS\STO-3G\C55H74Mg1N4O6\OF15641\27-
 Apr-2022\0\\#p ZINDO=(nstates=5)\\step_101_chromophore_21 ZINDO\\0,1\M
 g,0,15.777,51.451,25.602\C,0,17.236,50.316,28.6\C,0,12.936,52.197,27.3
 85\C,0,14.27,52.01,22.735\C,0,18.544,50.105,23.903\N,0,15.149,51.181,2
 7.757\C,0,15.993,50.911,28.823\C,0,15.431,51.44,30.182\C,0,13.951,51.7
 54,29.81\C,0,14.015,51.789,28.24\C,0,12.695,50.89,30.256\C,0,16.268,52
 .698,30.604\C,0,16.073,53.249,31.955\C,0,14.885,52.798,32.864\O,0,14.7

 Normal termination of Gaussian 16 at Wed Apr 27 01:10:03 2022.
