 Gaussian 16, Revision A.03,
 Gaussian 16:  ES64L-G16RevA.03 25-Dec-2016

 ------------------------------
 #p blyp/Def2SVP td=(nstates=5)
 ------------------------------

 ---------------------------------------------------
 step_1301_chromophore_11 TDDFT with blyp functional
 ---------------------------------------------------
 Symbolic Z-matrix:
 Charge =  0 Multiplicity = 1

                         Standard orientation:
 ---------------------------------------------------------------------
 Center     Atomic      Atomic             Coordinates (Angstroms)
 Number     Number       Type             X           Y           Z
 ---------------------------------------------------------------------
      1         12           0       -4.740892    1.257345    0.710879
      2          6           0       -5.521110   -2.124605    0.470373
      3          6           0       -2.219903    0.493395    2.920448
      4          6           0       -3.583914    4.547012    0.368659
      5          6           0       -7.204866    2.060330   -1.684570
      6          7           0       -3.810609   -0.628880    1.488503
      7          6           0       -4.324186   -1.909839    1.271611
      8          6           0       -3.387349   -2.946189    1.935780
      9          6           0       -2.700740   -2.087481    3.045087
     10          6           0       -2.902549   -0.648300    2.488497
     11          6           0       -3.440933   -2.343096    4.304074
     12          6           0       -2.405557   -3.686077    0.904018
     13          6           0       -2.105429   -2.843371   -0.374367
     14          6           0       -0.987962   -3.467105   -1.255631
     15          8           0       -1.155971   -3.937144   -2.359620
     16          8           0        0.178752   -3.575963   -0.460108
     17          7           0       -3.134745    2.402338    1.518994
     18          6           0       -2.292522    1.870736    2.487243
     19          6           0       -1.454077    3.008430    2.920068
     20          6           0       -1.645646    4.077478    2.076319
     21          6           0       -2.866741    3.729938    1.262122
     22          6           0       -0.362580    2.836284    3.913821
     23          6           0       -0.840484    5.363666    2.009006
     24          8           0        0.225892    5.339108    2.610038
     25          6           0       -1.141659    6.608361    1.185083
     26          7           0       -5.192204    3.024058   -0.619018
     27          6           0       -4.627812    4.209165   -0.486968
     28          6           0       -5.157682    5.296987   -1.476989
     29          6           0       -6.371148    4.509694   -2.148202
     30          6           0       -6.226185    3.070574   -1.494543
     31          6           0       -5.538132    6.685984   -0.716652
     32          6           0       -6.188344    4.450845   -3.719758
     33          6           0       -7.349500    4.962619   -4.464034
     34          7           0       -6.170557    0.202914   -0.344318
     35          6           0       -7.105039    0.650748   -1.279761
     36          6           0       -8.030123   -0.484324   -1.523219
     37          6           0       -7.405975   -1.570119   -0.866071
     38          6           0       -6.307597   -1.095233   -0.179266
     39          6           0       -9.282273   -0.435013   -2.398038
     40          6           0       -7.484472   -2.987295   -0.606208
     41          8           0       -8.294775   -3.793657   -1.095079
     42          6           0       -6.273896   -3.453606    0.187473
     43          6           0       -5.529421   -4.452783   -0.521683
     44          8           0       -4.837201   -4.285762   -1.518133
     45          8           0       -5.761131   -5.633812    0.128026
     46          6           0       -5.237920   -6.810481   -0.531253
     47          6           0        1.270555   -4.315102   -1.074314
     48          6           0        2.533789   -3.611799   -0.711703
     49          6           0        3.377761   -3.859159    0.344114
     50          6           0        3.215611   -4.905057    1.371441
     51          6           0        4.674466   -3.049587    0.501575
     52          6           0        5.050718   -1.987139   -0.546933
     53          6           0        6.531903   -1.456612   -0.466046
     54          6           0        6.570388    0.094747   -0.108068
     55          6           0        6.445578    0.999195   -1.386559
     56          6           0        7.705527    0.431072    0.863824
     57          6           0        9.083547    0.345753    0.135801
     58          6           0       10.187431   -0.022876    1.178809
     59          6           0       11.466318    0.907037    1.107131
     60          6           0       11.176401    2.351868    1.658712
     61          6           0       12.104268    0.883904   -0.336912
     62          6           0       13.619001    0.735525   -0.298012
     63          6           0       14.240035    0.425459   -1.659034
     64          6           0       15.774853    0.334274   -1.712066
     65          6           0       16.379896    1.542447   -2.523266
     66          6           0       16.193406   -1.042203   -2.342421
     67          1           0       -1.593808    0.301891    3.794950
     68          1           0       -3.285940    5.596819    0.363808
     69          1           0       -8.073558    2.389911   -2.257764
     70          1           0       -4.068514   -3.699431    2.331709
     71          1           0       -1.645079   -2.327640    3.169345
     72          1           0       -3.075647   -1.606446    5.019447
     73          1           0       -3.180669   -3.363697    4.585638
     74          1           0       -4.527481   -2.421429    4.277111
     75          1           0       -2.873479   -4.653098    0.716665
     76          1           0       -1.427478   -3.871682    1.347558
     77          1           0       -1.676212   -1.909291   -0.010442
     78          1           0       -2.982846   -2.662971   -0.994919
     79          1           0        0.444693    2.167254    3.618440
     80          1           0       -0.736816    2.434599    4.855266
     81          1           0       -0.062500    3.845127    4.196016
     82          1           0       -0.340335    7.340928    1.085982
     83          1           0       -2.079070    7.061668    1.506004
     84          1           0       -1.258060    6.259255    0.159177
     85          1           0       -4.324315    5.509671   -2.147548
     86          1           0       -7.349956    4.962405   -1.991497
     87          1           0       -5.650655    6.431770    0.337203
     88          1           0       -6.440207    7.075245   -1.189458
     89          1           0       -4.692508    7.359049   -0.857920
     90          1           0       -6.220224    3.406990   -4.030731
     91          1           0       -5.272472    4.927381   -4.069914
     92          1           0       -7.811977    4.166214   -5.047763
     93          1           0       -7.065077    5.824797   -5.065922
     94          1           0       -8.170439    5.242704   -3.803751
     95          1           0       -9.715796   -1.432365   -2.475384
     96          1           0       -8.957350    0.038899   -3.324737
     97          1           0      -10.104242    0.174811   -2.022929
     98          1           0       -6.725671   -3.895856    1.075220
     99          1           0       -5.450906   -7.752752   -0.026709
    100          1           0       -4.178056   -6.730966   -0.776128
    101          1           0       -5.716913   -6.949219   -1.499984
    102          1           0        1.218519   -4.318904   -2.162568
    103          1           0        1.176962   -5.335397   -0.702822
    104          1           0        2.889237   -2.859281   -1.416814
    105          1           0        2.911381   -4.485185    2.330623
    106          1           0        4.092397   -5.530567    1.537679
    107          1           0        2.389463   -5.567930    1.111855
    108          1           0        5.594208   -3.615664    0.649942
    109          1           0        4.533818   -2.492524    1.427778
    110          1           0        4.331695   -1.181736   -0.391664
    111          1           0        4.921566   -2.514918   -1.491650
    112          1           0        7.037513   -1.675164   -1.406441
    113          1           0        7.125100   -1.979431    0.283916
    114          1           0        5.610311    0.210573    0.396073
    115          1           0        5.697076    1.748542   -1.128944
    116          1           0        5.994741    0.482760   -2.233793
    117          1           0        7.349454    1.423172   -1.826195
    118          1           0        7.692890   -0.110665    1.809897
    119          1           0        7.581066    1.486583    1.106535
    120          1           0        9.251755    1.339546   -0.276876
    121          1           0        9.136779   -0.328413   -0.719723
    122          1           0       10.527964   -1.053058    1.281960
    123          1           0        9.702690    0.108697    2.146283
    124          1           0       12.197156    0.531928    1.823381
    125          1           0       11.502058    2.407485    2.697170
    126          1           0       10.105622    2.535627    1.745715
    127          1           0       11.664329    3.142319    1.087966
    128          1           0       11.862742    1.855083   -0.768244
    129          1           0       11.579935    0.127342   -0.921256
    130          1           0       13.937216   -0.207660    0.145855
    131          1           0       14.098758    1.564120    0.223466
    132          1           0       13.818165    1.330352   -2.094754
    133          1           0       13.849890   -0.401260   -2.252368
    134          1           0       16.195016    0.469766   -0.716253
    135          1           0       16.940194    1.055708   -3.320885
    136          1           0       16.927991    2.146409   -1.799031
    137          1           0       15.591345    2.198410   -2.891896
    138          1           0       17.186406   -1.324550   -1.992379
    139          1           0       16.244163   -0.959639   -3.427952
    140          1           0       15.438634   -1.790786   -2.101541
 ---------------------------------------------------------------------

 SCF Done:  E(RB-LYP) =  -3007.38782223     A.U. after   21 cycles

 Excitation energies and oscillator strengths:

 Excited State   1:      Singlet-A      1.8004 eV  688.63 nm  f=0.2319  <S**2>=0.000
     243 -> 247       -0.10771
     244 -> 247       -0.26131
     245 -> 248        0.17528
     246 -> 247        0.62653
     246 <- 247       -0.12920
 This state for optimization and/or second-order correction.
 Total Energy, E(TD-HF/TD-DFT) =  -3007.32165711
 Copying the excited state density for this state as the 1-particle RhoCI density.

 Excited State   2:      Singlet-A      1.8486 eV  670.70 nm  f=0.0395  <S**2>=0.000
     243 -> 247        0.59409
     244 -> 247        0.24075
     245 -> 247        0.19297
     246 -> 247        0.21475

 Excited State   3:      Singlet-A      1.8532 eV  669.02 nm  f=0.0294  <S**2>=0.000
     243 -> 247       -0.33414
     244 -> 247        0.58780
     246 -> 247        0.18583

 Excited State   4:      Singlet-A      2.0451 eV  606.25 nm  f=0.0651  <S**2>=0.000
     243 -> 247       -0.14812
     244 -> 247       -0.16018
     245 -> 247        0.60967
     246 -> 248       -0.25457

 Excited State   5:      Singlet-A      2.2278 eV  556.54 nm  f=0.0005  <S**2>=0.000
     242 -> 247        0.70665

 The electronic state is 1-A.
 Alpha  occ. eigenvalues --  -46.28414 -18.82639 -18.80818 -18.76834 -18.76589
 Alpha  occ. eigenvalues --  -18.75468 -18.75088 -14.03669 -14.03536 -14.01662
 Alpha  occ. eigenvalues --  -14.01259 -10.03764 -10.03170 -10.00440  -9.99211
 Alpha  occ. eigenvalues --   -9.97409  -9.97312  -9.97033  -9.96964  -9.96768
 Alpha  occ. eigenvalues --   -9.96582  -9.96536  -9.96500  -9.96410  -9.94900
 Alpha  occ. eigenvalues --   -9.94642  -9.94601  -9.94491  -9.94470  -9.94451
 Alpha  occ. eigenvalues --   -9.94097  -9.93891  -9.93659  -9.93626  -9.93530
 Alpha  occ. eigenvalues --   -9.93396  -9.93282  -9.93267  -9.92963  -9.92944
 Alpha  occ. eigenvalues --   -9.92859  -9.92642  -9.92390  -9.92301  -9.92110
 Alpha  occ. eigenvalues --   -9.92040  -9.92013  -9.91725  -9.91715  -9.91666
 Alpha  occ. eigenvalues --   -9.91412  -9.91341  -9.91302  -9.91212  -9.91208
 Alpha  occ. eigenvalues --   -9.91200  -9.91016  -9.91016  -9.90955  -9.90945
 Alpha  occ. eigenvalues --   -9.90920  -9.90911  -9.90814  -9.90596  -9.90451
 Alpha  occ. eigenvalues --   -9.90093  -2.92811  -1.73239  -1.72708  -1.72510
 Alpha  occ. eigenvalues --   -0.98297  -0.96068  -0.91910  -0.90364  -0.89921
 Alpha  occ. eigenvalues --   -0.89548  -0.87037  -0.86414  -0.85728  -0.84547
 Alpha  occ. eigenvalues --   -0.75419  -0.73154  -0.72633  -0.72466  -0.72334
 Alpha  occ. eigenvalues --   -0.71809  -0.71657  -0.70633  -0.70044  -0.69781
 Alpha  occ. eigenvalues --   -0.69331  -0.69031  -0.68280  -0.67697  -0.67328
 Alpha  occ. eigenvalues --   -0.66465  -0.66096  -0.65409  -0.65073  -0.64194
 Alpha  occ. eigenvalues --   -0.63670  -0.62110  -0.61942  -0.61644  -0.60805
 Alpha  occ. eigenvalues --   -0.59921  -0.59786  -0.59705  -0.59267  -0.58652
 Alpha  occ. eigenvalues --   -0.57763  -0.57127  -0.56717  -0.55255  -0.54236
 Alpha  occ. eigenvalues --   -0.54130  -0.53804  -0.52730  -0.52050  -0.51925
 Alpha  occ. eigenvalues --   -0.51738  -0.51442  -0.51248  -0.50121  -0.49160
 Alpha  occ. eigenvalues --   -0.49089  -0.48913  -0.48247  -0.47442  -0.46265
 Alpha  occ. eigenvalues --   -0.45878  -0.45699  -0.45488  -0.45349  -0.45205
 Alpha  occ. eigenvalues --   -0.44241  -0.43467  -0.43286  -0.42788  -0.42648
 Alpha  occ. eigenvalues --   -0.41895  -0.41638  -0.41470  -0.41435  -0.41050
 Alpha  occ. eigenvalues --   -0.40850  -0.40558  -0.40495  -0.40226  -0.39840
 Alpha  occ. eigenvalues --   -0.39731  -0.39662  -0.39537  -0.39384  -0.39011
 Alpha  occ. eigenvalues --   -0.38857  -0.38714  -0.38489  -0.38441  -0.38212
 Alpha  occ. eigenvalues --   -0.37985  -0.37747  -0.37562  -0.37302  -0.37222
 Alpha  occ. eigenvalues --   -0.37028  -0.36899  -0.36632  -0.36461  -0.36283
 Alpha  occ. eigenvalues --   -0.36185  -0.36112  -0.36099  -0.35754  -0.35550
 Alpha  occ. eigenvalues --   -0.35267  -0.35140  -0.34722  -0.34556  -0.34328
 Alpha  occ. eigenvalues --   -0.34293  -0.34197  -0.33981  -0.33817  -0.33647
 Alpha  occ. eigenvalues --   -0.33601  -0.33531  -0.33491  -0.33180  -0.32807
 Alpha  occ. eigenvalues --   -0.32526  -0.32392  -0.32301  -0.32206  -0.32085
 Alpha  occ. eigenvalues --   -0.32057  -0.31853  -0.31834  -0.31483  -0.31318
 Alpha  occ. eigenvalues --   -0.31099  -0.31084  -0.30904  -0.30798  -0.30531
 Alpha  occ. eigenvalues --   -0.30495  -0.30199  -0.30172  -0.30097  -0.29998
 Alpha  occ. eigenvalues --   -0.29467  -0.29420  -0.29286  -0.29039  -0.28844
 Alpha  occ. eigenvalues --   -0.28604  -0.28563  -0.28407  -0.28023  -0.27768
 Alpha  occ. eigenvalues --   -0.27254  -0.27127  -0.26650  -0.26433  -0.26227
 Alpha  occ. eigenvalues --   -0.26160  -0.25785  -0.25753  -0.25604  -0.25281
 Alpha  occ. eigenvalues --   -0.24943  -0.24357  -0.24112  -0.23774  -0.23424
 Alpha  occ. eigenvalues --   -0.22631  -0.22160  -0.22051  -0.21749  -0.20922
 Alpha  occ. eigenvalues --   -0.20485  -0.19911  -0.18457  -0.18435  -0.17529
 Alpha  occ. eigenvalues --   -0.16081
 Alpha virt. eigenvalues --   -0.11727  -0.07213  -0.06313  -0.05072  -0.03164
 Alpha virt. eigenvalues --   -0.03025  -0.02576  -0.01951  -0.01795  -0.00464
 Alpha virt. eigenvalues --    0.00993   0.01604   0.02415   0.02929   0.02965

 Mulliken charges:
               1
     1  Mg   0.683917
     2  C    0.005727
     3  C   -0.049124
     4  C   -0.043342
     5  C   -0.049761
     6  N   -0.226610
     7  C   -0.115233
     8  C    0.028373
     9  C    0.039305
    10  C    0.026788
    11  C    0.144813
    12  C    0.092463
    13  C    0.138975
    14  C    0.082421
    15  O   -0.154792
    16  O   -0.304690
    17  N   -0.290416
    18  C    0.132683
    19  C   -0.151137
    20  C    0.044188
    21  C    0.123376
    22  C    0.192716
    23  C   -0.082842
    24  O   -0.173707
    25  C    0.156844
    26  N   -0.146384
    27  C   -0.017950
    28  C   -0.017246
    29  C    0.009091
    30  C    0.026365
    31  C    0.107516
    32  C    0.092412
    33  C    0.060735
    34  N   -0.266392
    35  C    0.090340
    36  C   -0.178434
    37  C    0.112516
    38  C    0.075297
    39  C    0.162862
    40  C   -0.108200
    41  O   -0.160248
    42  C    0.145261
    43  C    0.107112
    44  O   -0.173300
    45  O   -0.260408
    46  C    0.227866
    47  C    0.348267
    48  C   -0.100591
    49  C   -0.128958
    50  C    0.153957
    51  C    0.076821
    52  C    0.044493
    53  C    0.109920
    54  C   -0.060315
    55  C    0.092788
    56  C    0.112520
    57  C    0.040569
    58  C    0.090389
    59  C   -0.069045
    60  C    0.094720
    61  C    0.116692
    62  C    0.056980
    63  C    0.077817
    64  C   -0.093990
    65  C    0.112986
    66  C    0.097563
    67  H   -0.060081
    68  H   -0.102861
    69  H   -0.053395
    70  H   -0.039561
    71  H   -0.028224
    72  H   -0.011301
    73  H   -0.015430
    74  H   -0.004628
    75  H   -0.010233
    76  H   -0.016082
    77  H   -0.009115
    78  H    0.026549
    79  H    0.008701
    80  H   -0.033197
    81  H    0.001667
    82  H   -0.007088
    83  H    0.022693
    84  H    0.006214
    85  H   -0.006410
    86  H   -0.018047
    87  H    0.005508
    88  H    0.002772
    89  H    0.001646
    90  H   -0.018143
    91  H   -0.017246
    92  H   -0.011769
    93  H   -0.004720
    94  H   -0.029368
    95  H    0.010965
    96  H    0.004288
    97  H   -0.007902
    98  H   -0.005135
    99  H    0.010411
   100  H    0.012817
   101  H    0.005581
   102  H   -0.011195
   103  H   -0.016610
   104  H   -0.030492
   105  H   -0.003532
   106  H   -0.001227
   107  H   -0.031125
   108  H   -0.022814
   109  H   -0.027441
   110  H   -0.008497
   111  H   -0.014895
   112  H   -0.031491
   113  H   -0.041736
   114  H   -0.046027
   115  H   -0.014119
   116  H   -0.026049
   117  H   -0.005125
   118  H   -0.018521
   119  H   -0.034762
   120  H   -0.017010
   121  H   -0.012323
   122  H   -0.031984
   123  H   -0.048462
   124  H   -0.043595
   125  H   -0.023407
   126  H   -0.019468
   127  H   -0.016382
   128  H   -0.034961
   129  H   -0.030783
   130  H   -0.036180
   131  H   -0.021045
   132  H   -0.048404
   133  H   -0.035402
   134  H   -0.037136
   135  H   -0.014983
   136  H   -0.015875
   137  H   -0.017292
   138  H   -0.011625
   139  H   -0.012312
   140  H   -0.008914
 Sum of Mulliken charges =  -0.00000

 Dipole moment (field-independent basis, Debye):
    X=              0.1215    Y=              2.6503    Z=              3.0096  Tot=              4.0120
 Quadrupole moment (field-independent basis, Debye-Ang):
   XX=           -412.2382   YY=           -384.0874   ZZ=           -407.7603
   XY=            -46.9126   XZ=            -10.5930   YZ=            -33.8273

 Normal termination of Gaussian 16 at Wed Apr 27 20:15:28 2022.
