 Gaussian 16, Revision A.03,
 Gaussian 16:  ES64L-G16RevA.03 25-Dec-2016

 -----------------------------------
 #p cam-b3lyp/Def2SVP td=(nstates=5)
 -----------------------------------

 --------------------------------------------------------
 step_1301_chromophore_11 TDDFT with cam-b3lyp functional
 --------------------------------------------------------
 Symbolic Z-matrix:
 Charge =  0 Multiplicity = 1

                         Standard orientation:
 ---------------------------------------------------------------------
 Center     Atomic      Atomic             Coordinates (Angstroms)
 Number     Number       Type             X           Y           Z
 ---------------------------------------------------------------------
      1         12           0       -4.740892    1.257345    0.710879
      2          6           0       -5.521110   -2.124605    0.470373
      3          6           0       -2.219903    0.493395    2.920448
      4          6           0       -3.583914    4.547012    0.368659
      5          6           0       -7.204866    2.060330   -1.684570
      6          7           0       -3.810609   -0.628880    1.488503
      7          6           0       -4.324186   -1.909839    1.271611
      8          6           0       -3.387349   -2.946189    1.935780
      9          6           0       -2.700740   -2.087481    3.045087
     10          6           0       -2.902549   -0.648300    2.488497
     11          6           0       -3.440933   -2.343096    4.304074
     12          6           0       -2.405557   -3.686077    0.904018
     13          6           0       -2.105429   -2.843371   -0.374367
     14          6           0       -0.987962   -3.467105   -1.255631
     15          8           0       -1.155971   -3.937144   -2.359620
     16          8           0        0.178752   -3.575963   -0.460108
     17          7           0       -3.134745    2.402338    1.518994
     18          6           0       -2.292522    1.870736    2.487243
     19          6           0       -1.454077    3.008430    2.920068
     20          6           0       -1.645646    4.077478    2.076319
     21          6           0       -2.866741    3.729938    1.262122
     22          6           0       -0.362580    2.836284    3.913821
     23          6           0       -0.840484    5.363666    2.009006
     24          8           0        0.225892    5.339108    2.610038
     25          6           0       -1.141659    6.608361    1.185083
     26          7           0       -5.192204    3.024058   -0.619018
     27          6           0       -4.627812    4.209165   -0.486968
     28          6           0       -5.157682    5.296987   -1.476989
     29          6           0       -6.371148    4.509694   -2.148202
     30          6           0       -6.226185    3.070574   -1.494543
     31          6           0       -5.538132    6.685984   -0.716652
     32          6           0       -6.188344    4.450845   -3.719758
     33          6           0       -7.349500    4.962619   -4.464034
     34          7           0       -6.170557    0.202914   -0.344318
     35          6           0       -7.105039    0.650748   -1.279761
     36          6           0       -8.030123   -0.484324   -1.523219
     37          6           0       -7.405975   -1.570119   -0.866071
     38          6           0       -6.307597   -1.095233   -0.179266
     39          6           0       -9.282273   -0.435013   -2.398038
     40          6           0       -7.484472   -2.987295   -0.606208
     41          8           0       -8.294775   -3.793657   -1.095079
     42          6           0       -6.273896   -3.453606    0.187473
     43          6           0       -5.529421   -4.452783   -0.521683
     44          8           0       -4.837201   -4.285762   -1.518133
     45          8           0       -5.761131   -5.633812    0.128026
     46          6           0       -5.237920   -6.810481   -0.531253
     47          6           0        1.270555   -4.315102   -1.074314
     48          6           0        2.533789   -3.611799   -0.711703
     49          6           0        3.377761   -3.859159    0.344114
     50          6           0        3.215611   -4.905057    1.371441
     51          6           0        4.674466   -3.049587    0.501575
     52          6           0        5.050718   -1.987139   -0.546933
     53          6           0        6.531903   -1.456612   -0.466046
     54          6           0        6.570388    0.094747   -0.108068
     55          6           0        6.445578    0.999195   -1.386559
     56          6           0        7.705527    0.431072    0.863824
     57          6           0        9.083547    0.345753    0.135801
     58          6           0       10.187431   -0.022876    1.178809
     59          6           0       11.466318    0.907037    1.107131
     60          6           0       11.176401    2.351868    1.658712
     61          6           0       12.104268    0.883904   -0.336912
     62          6           0       13.619001    0.735525   -0.298012
     63          6           0       14.240035    0.425459   -1.659034
     64          6           0       15.774853    0.334274   -1.712066
     65          6           0       16.379896    1.542447   -2.523266
     66          6           0       16.193406   -1.042203   -2.342421
     67          1           0       -1.593808    0.301891    3.794950
     68          1           0       -3.285940    5.596819    0.363808
     69          1           0       -8.073558    2.389911   -2.257764
     70          1           0       -4.068514   -3.699431    2.331709
     71          1           0       -1.645079   -2.327640    3.169345
     72          1           0       -3.075647   -1.606446    5.019447
     73          1           0       -3.180669   -3.363697    4.585638
     74          1           0       -4.527481   -2.421429    4.277111
     75          1           0       -2.873479   -4.653098    0.716665
     76          1           0       -1.427478   -3.871682    1.347558
     77          1           0       -1.676212   -1.909291   -0.010442
     78          1           0       -2.982846   -2.662971   -0.994919
     79          1           0        0.444693    2.167254    3.618440
     80          1           0       -0.736816    2.434599    4.855266
     81          1           0       -0.062500    3.845127    4.196016
     82          1           0       -0.340335    7.340928    1.085982
     83          1           0       -2.079070    7.061668    1.506004
     84          1           0       -1.258060    6.259255    0.159177
     85          1           0       -4.324315    5.509671   -2.147548
     86          1           0       -7.349956    4.962405   -1.991497
     87          1           0       -5.650655    6.431770    0.337203
     88          1           0       -6.440207    7.075245   -1.189458
     89          1           0       -4.692508    7.359049   -0.857920
     90          1           0       -6.220224    3.406990   -4.030731
     91          1           0       -5.272472    4.927381   -4.069914
     92          1           0       -7.811977    4.166214   -5.047763
     93          1           0       -7.065077    5.824797   -5.065922
     94          1           0       -8.170439    5.242704   -3.803751
     95          1           0       -9.715796   -1.432365   -2.475384
     96          1           0       -8.957350    0.038899   -3.324737
     97          1           0      -10.104242    0.174811   -2.022929
     98          1           0       -6.725671   -3.895856    1.075220
     99          1           0       -5.450906   -7.752752   -0.026709
    100          1           0       -4.178056   -6.730966   -0.776128
    101          1           0       -5.716913   -6.949219   -1.499984
    102          1           0        1.218519   -4.318904   -2.162568
    103          1           0        1.176962   -5.335397   -0.702822
    104          1           0        2.889237   -2.859281   -1.416814
    105          1           0        2.911381   -4.485185    2.330623
    106          1           0        4.092397   -5.530567    1.537679
    107          1           0        2.389463   -5.567930    1.111855
    108          1           0        5.594208   -3.615664    0.649942
    109          1           0        4.533818   -2.492524    1.427778
    110          1           0        4.331695   -1.181736   -0.391664
    111          1           0        4.921566   -2.514918   -1.491650
    112          1           0        7.037513   -1.675164   -1.406441
    113          1           0        7.125100   -1.979431    0.283916
    114          1           0        5.610311    0.210573    0.396073
    115          1           0        5.697076    1.748542   -1.128944
    116          1           0        5.994741    0.482760   -2.233793
    117          1           0        7.349454    1.423172   -1.826195
    118          1           0        7.692890   -0.110665    1.809897
    119          1           0        7.581066    1.486583    1.106535
    120          1           0        9.251755    1.339546   -0.276876
    121          1           0        9.136779   -0.328413   -0.719723
    122          1           0       10.527964   -1.053058    1.281960
    123          1           0        9.702690    0.108697    2.146283
    124          1           0       12.197156    0.531928    1.823381
    125          1           0       11.502058    2.407485    2.697170
    126          1           0       10.105622    2.535627    1.745715
    127          1           0       11.664329    3.142319    1.087966
    128          1           0       11.862742    1.855083   -0.768244
    129          1           0       11.579935    0.127342   -0.921256
    130          1           0       13.937216   -0.207660    0.145855
    131          1           0       14.098758    1.564120    0.223466
    132          1           0       13.818165    1.330352   -2.094754
    133          1           0       13.849890   -0.401260   -2.252368
    134          1           0       16.195016    0.469766   -0.716253
    135          1           0       16.940194    1.055708   -3.320885
    136          1           0       16.927991    2.146409   -1.799031
    137          1           0       15.591345    2.198410   -2.891896
    138          1           0       17.186406   -1.324550   -1.992379
    139          1           0       16.244163   -0.959639   -3.427952
    140          1           0       15.438634   -1.790786   -2.101541
 ---------------------------------------------------------------------

 SCF Done:  E(RCAM-B3LYP) =  -3007.17317050     A.U. after   19 cycles

 Excitation energies and oscillator strengths:

 Excited State   1:      Singlet-A      1.7517 eV  707.79 nm  f=0.3547  <S**2>=0.000
     245 -> 248        0.18084
     246 -> 247        0.68539
     245 <- 248        0.10712
 This state for optimization and/or second-order correction.
 Total Energy, E(TD-HF/TD-DFT) =  -3007.10879664
 Copying the excited state density for this state as the 1-particle RhoCI density.

 Excited State   2:      Singlet-A      2.2559 eV  549.59 nm  f=0.0947  <S**2>=0.000
     245 -> 247        0.63053
     246 -> 248       -0.30747

 Excited State   3:      Singlet-A      3.4640 eV  357.93 nm  f=0.0177  <S**2>=0.000
     240 -> 247       -0.18820
     240 -> 249        0.13895
     241 -> 247        0.47108
     244 -> 247       -0.41792

 Excited State   4:      Singlet-A      3.4746 eV  356.83 nm  f=0.0084  <S**2>=0.000
     240 -> 247        0.45230
     240 -> 249       -0.29221
     240 -> 251        0.19612
     242 -> 247       -0.10029
     244 -> 247       -0.32609

 Excited State   5:      Singlet-A      3.4935 eV  354.90 nm  f=0.2883  <S**2>=0.000
     239 -> 247        0.13951
     240 -> 247        0.18312
     240 -> 249       -0.11941
     241 -> 247        0.26378
     242 -> 247        0.15634
     244 -> 247        0.23406
     245 -> 247        0.18567
     246 -> 248        0.46039

 The electronic state is 1-A.
 Alpha  occ. eigenvalues --  -46.90064 -19.25460 -19.23587 -19.19803 -19.19477
 Alpha  occ. eigenvalues --  -19.19109 -19.17852 -14.42565 -14.42383 -14.40434
 Alpha  occ. eigenvalues --  -14.39396 -10.39067 -10.38413 -10.35971 -10.34139
 Alpha  occ. eigenvalues --  -10.31846 -10.31743 -10.31646 -10.31604 -10.31398
 Alpha  occ. eigenvalues --  -10.31160 -10.31157 -10.30788 -10.30106 -10.29151
 Alpha  occ. eigenvalues --  -10.28821 -10.28673 -10.28529 -10.28476 -10.28463
 Alpha  occ. eigenvalues --  -10.28373 -10.27958 -10.27910 -10.27889 -10.27863
 Alpha  occ. eigenvalues --  -10.27707 -10.27475 -10.27321 -10.27304 -10.27152
 Alpha  occ. eigenvalues --  -10.27103 -10.26379 -10.26121 -10.25847 -10.25713
 Alpha  occ. eigenvalues --  -10.25698 -10.25643 -10.25494 -10.25460 -10.25439
 Alpha  occ. eigenvalues --  -10.25264 -10.25091 -10.25025 -10.24955 -10.24941
 Alpha  occ. eigenvalues --  -10.24935 -10.24925 -10.24757 -10.24662 -10.24643
 Alpha  occ. eigenvalues --  -10.24559 -10.24557 -10.24330 -10.24245 -10.24066
 Alpha  occ. eigenvalues --  -10.23752  -3.18353  -1.93261  -1.92807  -1.92643
 Alpha  occ. eigenvalues --   -1.16710  -1.14412  -1.10719  -1.08278  -1.07819
 Alpha  occ. eigenvalues --   -1.07307  -1.04734  -1.03864  -1.03293  -1.02455
 Alpha  occ. eigenvalues --   -0.92288  -0.90024  -0.89372  -0.89256  -0.89048
 Alpha  occ. eigenvalues --   -0.88596  -0.88378  -0.87229  -0.86815  -0.86622
 Alpha  occ. eigenvalues --   -0.85552  -0.85355  -0.84372  -0.83967  -0.83555
 Alpha  occ. eigenvalues --   -0.82709  -0.82212  -0.81385  -0.80920  -0.80005
 Alpha  occ. eigenvalues --   -0.79466  -0.77771  -0.77446  -0.77195  -0.76154
 Alpha  occ. eigenvalues --   -0.75264  -0.75138  -0.75052  -0.74588  -0.73900
 Alpha  occ. eigenvalues --   -0.72672  -0.72059  -0.71599  -0.70059  -0.68924
 Alpha  occ. eigenvalues --   -0.68504  -0.68383  -0.67426  -0.66437  -0.66122
 Alpha  occ. eigenvalues --   -0.66023  -0.65695  -0.65228  -0.64137  -0.63109
 Alpha  occ. eigenvalues --   -0.62762  -0.62564  -0.62108  -0.61235  -0.59836
 Alpha  occ. eigenvalues --   -0.59508  -0.59415  -0.58939  -0.58871  -0.58544
 Alpha  occ. eigenvalues --   -0.57656  -0.56812  -0.56678  -0.56017  -0.55793
 Alpha  occ. eigenvalues --   -0.54978  -0.54644  -0.54246  -0.54181  -0.53826
 Alpha  occ. eigenvalues --   -0.53562  -0.53428  -0.53145  -0.52992  -0.52705
 Alpha  occ. eigenvalues --   -0.52527  -0.52323  -0.52305  -0.52125  -0.51606
 Alpha  occ. eigenvalues --   -0.51444  -0.51366  -0.50922  -0.50853  -0.50679
 Alpha  occ. eigenvalues --   -0.50449  -0.50196  -0.50079  -0.49973  -0.49789
 Alpha  occ. eigenvalues --   -0.49440  -0.49279  -0.48807  -0.48724  -0.48631
 Alpha  occ. eigenvalues --   -0.48256  -0.48187  -0.48134  -0.47948  -0.47778
 Alpha  occ. eigenvalues --   -0.47314  -0.47148  -0.46904  -0.46603  -0.46275
 Alpha  occ. eigenvalues --   -0.46157  -0.46086  -0.45940  -0.45755  -0.45489
 Alpha  occ. eigenvalues --   -0.45362  -0.45264  -0.45161  -0.44871  -0.44521
 Alpha  occ. eigenvalues --   -0.44415  -0.44125  -0.43853  -0.43757  -0.43685
 Alpha  occ. eigenvalues --   -0.43554  -0.43284  -0.43211  -0.43019  -0.42866
 Alpha  occ. eigenvalues --   -0.42851  -0.42635  -0.42492  -0.42320  -0.42086
 Alpha  occ. eigenvalues --   -0.41831  -0.41789  -0.41633  -0.41466  -0.41336
 Alpha  occ. eigenvalues --   -0.40816  -0.40631  -0.40530  -0.40135  -0.39889
 Alpha  occ. eigenvalues --   -0.39673  -0.39600  -0.39419  -0.39131  -0.38710
 Alpha  occ. eigenvalues --   -0.38145  -0.38062  -0.37449  -0.37327  -0.36992
 Alpha  occ. eigenvalues --   -0.36899  -0.36887  -0.36656  -0.36452  -0.36302
 Alpha  occ. eigenvalues --   -0.35536  -0.35361  -0.34881  -0.34476  -0.34375
 Alpha  occ. eigenvalues --   -0.33397  -0.32973  -0.32575  -0.31709  -0.31159
 Alpha  occ. eigenvalues --   -0.30673  -0.30299  -0.29711  -0.29379  -0.24351
 Alpha  occ. eigenvalues --   -0.21432
 Alpha virt. eigenvalues --   -0.08737  -0.02113   0.00202   0.01835   0.02029
 Alpha virt. eigenvalues --    0.04630   0.04895   0.05251   0.06303   0.06621
 Alpha virt. eigenvalues --    0.07749   0.07999   0.08774   0.08963   0.09140

 Mulliken charges:
               1
     1  Mg   0.813107
     2  C   -0.019035
     3  C   -0.069177
     4  C   -0.070547
     5  C   -0.056058
     6  N   -0.292546
     7  C   -0.077031
     8  C   -0.016833
     9  C   -0.017694
    10  C    0.046110
    11  C    0.084360
    12  C    0.045971
    13  C    0.067746
    14  C    0.166689
    15  O   -0.195593
    16  O   -0.369286
    17  N   -0.379904
    18  C    0.151216
    19  C   -0.152336
    20  C   -0.019779
    21  C    0.161772
    22  C    0.128187
    23  C   -0.010605
    24  O   -0.211552
    25  C    0.074725
    26  N   -0.218721
    27  C    0.010769
    28  C   -0.066037
    29  C   -0.045265
    30  C    0.039376
    31  C    0.050998
    32  C    0.038165
    33  C   -0.002565
    34  N   -0.355258
    35  C    0.089509
    36  C   -0.171804
    37  C    0.028579
    38  C    0.104852
    39  C    0.111192
    40  C   -0.007770
    41  O   -0.202106
    42  C    0.063108
    43  C    0.195187
    44  O   -0.209420
    45  O   -0.323937
    46  C    0.183516
    47  C    0.310438
    48  C   -0.127946
    49  C   -0.146863
    50  C    0.089901
    51  C    0.032586
    52  C   -0.015602
    53  C    0.057805
    54  C   -0.116090
    55  C    0.033809
    56  C    0.062367
    57  C   -0.018703
    58  C    0.040912
    59  C   -0.121463
    60  C    0.037646
    61  C    0.058528
    62  C    0.005194
    63  C    0.025675
    64  C   -0.155580
    65  C    0.056358
    66  C    0.037540
    67  H   -0.024303
    68  H   -0.064770
    69  H   -0.019805
    70  H   -0.001885
    71  H    0.009498
    72  H    0.012990
    73  H    0.012215
    74  H    0.021970
    75  H    0.014742
    76  H    0.015937
    77  H    0.020777
    78  H    0.058870
    79  H    0.038248
    80  H   -0.003628
    81  H    0.034473
    82  H    0.030964
    83  H    0.048516
    84  H    0.033769
    85  H    0.026783
    86  H    0.014540
    87  H    0.029982
    88  H    0.027920
    89  H    0.022824
    90  H    0.013815
    91  H    0.009964
    92  H    0.012845
    93  H    0.018697
    94  H   -0.006052
    95  H    0.037397
    96  H    0.025806
    97  H    0.015846
    98  H    0.040127
    99  H    0.034626
   100  H    0.035098
   101  H    0.030177
   102  H    0.023140
   103  H    0.011325
   104  H    0.002805
   105  H    0.021572
   106  H    0.023684
   107  H   -0.004994
   108  H    0.004171
   109  H   -0.001165
   110  H    0.016897
   111  H    0.012008
   112  H   -0.002762
   113  H   -0.012796
   114  H   -0.012709
   115  H    0.010193
   116  H   -0.000694
   117  H    0.017987
   118  H    0.008958
   119  H   -0.006209
   120  H    0.009547
   121  H    0.013133
   122  H   -0.002601
   123  H   -0.018815
   124  H   -0.009538
   125  H    0.001666
   126  H    0.001939
   127  H    0.007594
   128  H   -0.007622
   129  H   -0.002120
   130  H   -0.009080
   131  H    0.005312
   132  H   -0.020861
   133  H   -0.006105
   134  H   -0.004573
   135  H    0.008137
   136  H    0.007652
   137  H    0.007335
   138  H    0.013331
   139  H    0.010344
   140  H    0.014156
 Sum of Mulliken charges =  -0.00000

 Dipole moment (field-independent basis, Debye):
    X=              0.9249    Y=              3.5454    Z=              3.7278  Tot=              5.2270
 Quadrupole moment (field-independent basis, Debye-Ang):
   XX=           -419.3500   YY=           -377.8163   ZZ=           -406.2868
   XY=            -50.3474   XZ=            -12.4263   YZ=            -34.3600

 Normal termination of Gaussian 16 at Wed Apr 27 19:16:02 2022.
