 Gaussian 16, Revision A.03,
 Gaussian 16:  ES64L-G16RevA.03 25-Dec-2016

 ---------------------------------
 #p PBE1PBE/Def2SVP td=(nstates=5)
 ---------------------------------

 ------------------------------------------------------
 step_1301_chromophore_11 TDDFT with PBE1PBE functional
 ------------------------------------------------------
 Symbolic Z-matrix:
 Charge =  0 Multiplicity = 1

                         Standard orientation:
 ---------------------------------------------------------------------
 Center     Atomic      Atomic             Coordinates (Angstroms)
 Number     Number       Type             X           Y           Z
 ---------------------------------------------------------------------
      1         12           0       -4.740892    1.257345    0.710879
      2          6           0       -5.521110   -2.124605    0.470373
      3          6           0       -2.219903    0.493395    2.920448
      4          6           0       -3.583914    4.547012    0.368659
      5          6           0       -7.204866    2.060330   -1.684570
      6          7           0       -3.810609   -0.628880    1.488503
      7          6           0       -4.324186   -1.909839    1.271611
      8          6           0       -3.387349   -2.946189    1.935780
      9          6           0       -2.700740   -2.087481    3.045087
     10          6           0       -2.902549   -0.648300    2.488497
     11          6           0       -3.440933   -2.343096    4.304074
     12          6           0       -2.405557   -3.686077    0.904018
     13          6           0       -2.105429   -2.843371   -0.374367
     14          6           0       -0.987962   -3.467105   -1.255631
     15          8           0       -1.155971   -3.937144   -2.359620
     16          8           0        0.178752   -3.575963   -0.460108
     17          7           0       -3.134745    2.402338    1.518994
     18          6           0       -2.292522    1.870736    2.487243
     19          6           0       -1.454077    3.008430    2.920068
     20          6           0       -1.645646    4.077478    2.076319
     21          6           0       -2.866741    3.729938    1.262122
     22          6           0       -0.362580    2.836284    3.913821
     23          6           0       -0.840484    5.363666    2.009006
     24          8           0        0.225892    5.339108    2.610038
     25          6           0       -1.141659    6.608361    1.185083
     26          7           0       -5.192204    3.024058   -0.619018
     27          6           0       -4.627812    4.209165   -0.486968
     28          6           0       -5.157682    5.296987   -1.476989
     29          6           0       -6.371148    4.509694   -2.148202
     30          6           0       -6.226185    3.070574   -1.494543
     31          6           0       -5.538132    6.685984   -0.716652
     32          6           0       -6.188344    4.450845   -3.719758
     33          6           0       -7.349500    4.962619   -4.464034
     34          7           0       -6.170557    0.202914   -0.344318
     35          6           0       -7.105039    0.650748   -1.279761
     36          6           0       -8.030123   -0.484324   -1.523219
     37          6           0       -7.405975   -1.570119   -0.866071
     38          6           0       -6.307597   -1.095233   -0.179266
     39          6           0       -9.282273   -0.435013   -2.398038
     40          6           0       -7.484472   -2.987295   -0.606208
     41          8           0       -8.294775   -3.793657   -1.095079
     42          6           0       -6.273896   -3.453606    0.187473
     43          6           0       -5.529421   -4.452783   -0.521683
     44          8           0       -4.837201   -4.285762   -1.518133
     45          8           0       -5.761131   -5.633812    0.128026
     46          6           0       -5.237920   -6.810481   -0.531253
     47          6           0        1.270555   -4.315102   -1.074314
     48          6           0        2.533789   -3.611799   -0.711703
     49          6           0        3.377761   -3.859159    0.344114
     50          6           0        3.215611   -4.905057    1.371441
     51          6           0        4.674466   -3.049587    0.501575
     52          6           0        5.050718   -1.987139   -0.546933
     53          6           0        6.531903   -1.456612   -0.466046
     54          6           0        6.570388    0.094747   -0.108068
     55          6           0        6.445578    0.999195   -1.386559
     56          6           0        7.705527    0.431072    0.863824
     57          6           0        9.083547    0.345753    0.135801
     58          6           0       10.187431   -0.022876    1.178809
     59          6           0       11.466318    0.907037    1.107131
     60          6           0       11.176401    2.351868    1.658712
     61          6           0       12.104268    0.883904   -0.336912
     62          6           0       13.619001    0.735525   -0.298012
     63          6           0       14.240035    0.425459   -1.659034
     64          6           0       15.774853    0.334274   -1.712066
     65          6           0       16.379896    1.542447   -2.523266
     66          6           0       16.193406   -1.042203   -2.342421
     67          1           0       -1.593808    0.301891    3.794950
     68          1           0       -3.285940    5.596819    0.363808
     69          1           0       -8.073558    2.389911   -2.257764
     70          1           0       -4.068514   -3.699431    2.331709
     71          1           0       -1.645079   -2.327640    3.169345
     72          1           0       -3.075647   -1.606446    5.019447
     73          1           0       -3.180669   -3.363697    4.585638
     74          1           0       -4.527481   -2.421429    4.277111
     75          1           0       -2.873479   -4.653098    0.716665
     76          1           0       -1.427478   -3.871682    1.347558
     77          1           0       -1.676212   -1.909291   -0.010442
     78          1           0       -2.982846   -2.662971   -0.994919
     79          1           0        0.444693    2.167254    3.618440
     80          1           0       -0.736816    2.434599    4.855266
     81          1           0       -0.062500    3.845127    4.196016
     82          1           0       -0.340335    7.340928    1.085982
     83          1           0       -2.079070    7.061668    1.506004
     84          1           0       -1.258060    6.259255    0.159177
     85          1           0       -4.324315    5.509671   -2.147548
     86          1           0       -7.349956    4.962405   -1.991497
     87          1           0       -5.650655    6.431770    0.337203
     88          1           0       -6.440207    7.075245   -1.189458
     89          1           0       -4.692508    7.359049   -0.857920
     90          1           0       -6.220224    3.406990   -4.030731
     91          1           0       -5.272472    4.927381   -4.069914
     92          1           0       -7.811977    4.166214   -5.047763
     93          1           0       -7.065077    5.824797   -5.065922
     94          1           0       -8.170439    5.242704   -3.803751
     95          1           0       -9.715796   -1.432365   -2.475384
     96          1           0       -8.957350    0.038899   -3.324737
     97          1           0      -10.104242    0.174811   -2.022929
     98          1           0       -6.725671   -3.895856    1.075220
     99          1           0       -5.450906   -7.752752   -0.026709
    100          1           0       -4.178056   -6.730966   -0.776128
    101          1           0       -5.716913   -6.949219   -1.499984
    102          1           0        1.218519   -4.318904   -2.162568
    103          1           0        1.176962   -5.335397   -0.702822
    104          1           0        2.889237   -2.859281   -1.416814
    105          1           0        2.911381   -4.485185    2.330623
    106          1           0        4.092397   -5.530567    1.537679
    107          1           0        2.389463   -5.567930    1.111855
    108          1           0        5.594208   -3.615664    0.649942
    109          1           0        4.533818   -2.492524    1.427778
    110          1           0        4.331695   -1.181736   -0.391664
    111          1           0        4.921566   -2.514918   -1.491650
    112          1           0        7.037513   -1.675164   -1.406441
    113          1           0        7.125100   -1.979431    0.283916
    114          1           0        5.610311    0.210573    0.396073
    115          1           0        5.697076    1.748542   -1.128944
    116          1           0        5.994741    0.482760   -2.233793
    117          1           0        7.349454    1.423172   -1.826195
    118          1           0        7.692890   -0.110665    1.809897
    119          1           0        7.581066    1.486583    1.106535
    120          1           0        9.251755    1.339546   -0.276876
    121          1           0        9.136779   -0.328413   -0.719723
    122          1           0       10.527964   -1.053058    1.281960
    123          1           0        9.702690    0.108697    2.146283
    124          1           0       12.197156    0.531928    1.823381
    125          1           0       11.502058    2.407485    2.697170
    126          1           0       10.105622    2.535627    1.745715
    127          1           0       11.664329    3.142319    1.087966
    128          1           0       11.862742    1.855083   -0.768244
    129          1           0       11.579935    0.127342   -0.921256
    130          1           0       13.937216   -0.207660    0.145855
    131          1           0       14.098758    1.564120    0.223466
    132          1           0       13.818165    1.330352   -2.094754
    133          1           0       13.849890   -0.401260   -2.252368
    134          1           0       16.195016    0.469766   -0.716253
    135          1           0       16.940194    1.055708   -3.320885
    136          1           0       16.927991    2.146409   -1.799031
    137          1           0       15.591345    2.198410   -2.891896
    138          1           0       17.186406   -1.324550   -1.992379
    139          1           0       16.244163   -0.959639   -3.427952
    140          1           0       15.438634   -1.790786   -2.101541
 ---------------------------------------------------------------------

 SCF Done:  E(RPBE1PBE) =  -3005.36089387     A.U. after   15 cycles

 Excitation energies and oscillator strengths:

 Excited State   1:      Singlet-A      1.8690 eV  663.37 nm  f=0.3471  <S**2>=0.000
     245 -> 248        0.17981
     246 -> 247        0.69075
     246 <- 247       -0.10006
 This state for optimization and/or second-order correction.
 Total Energy, E(TD-HF/TD-DFT) =  -3005.29220936
 Copying the excited state density for this state as the 1-particle RhoCI density.

 Excited State   2:      Singlet-A      2.2566 eV  549.42 nm  f=0.0942  <S**2>=0.000
     245 -> 247        0.64461
     246 -> 248       -0.28026

 Excited State   3:      Singlet-A      2.9620 eV  418.58 nm  f=0.0002  <S**2>=0.000
     242 -> 247       -0.35532
     242 -> 249       -0.11597
     243 -> 247        0.57202
     243 -> 249        0.10773

 Excited State   4:      Singlet-A      2.9998 eV  413.31 nm  f=0.0000  <S**2>=0.000
     241 -> 247        0.66356
     241 -> 249       -0.17544
     241 -> 250        0.11953

 Excited State   5:      Singlet-A      3.0939 eV  400.74 nm  f=0.0018  <S**2>=0.000
     240 -> 247        0.18359
     242 -> 247        0.56860
     243 -> 247        0.36108

 The electronic state is 1-A.
 Alpha  occ. eigenvalues --  -46.93433 -19.26198 -19.24319 -19.20092 -19.19766
 Alpha  occ. eigenvalues --  -19.19065 -19.18382 -14.42086 -14.41845 -14.39917
 Alpha  occ. eigenvalues --  -14.39220 -10.36116 -10.35493 -10.32883 -10.31550
 Alpha  occ. eigenvalues --  -10.29746 -10.29277 -10.29152 -10.28897 -10.28876
 Alpha  occ. eigenvalues --  -10.28833 -10.28440 -10.28330 -10.28161 -10.27122
 Alpha  occ. eigenvalues --  -10.26604 -10.26388 -10.26374 -10.26363 -10.26230
 Alpha  occ. eigenvalues --  -10.26107 -10.25910 -10.25654 -10.25468 -10.25456
 Alpha  occ. eigenvalues --  -10.25217 -10.25104 -10.24798 -10.24749 -10.24664
 Alpha  occ. eigenvalues --  -10.24422 -10.23778 -10.23663 -10.23549 -10.23416
 Alpha  occ. eigenvalues --  -10.23383 -10.23194 -10.23134 -10.23009 -10.22975
 Alpha  occ. eigenvalues --  -10.22821 -10.22586 -10.22538 -10.22475 -10.22468
 Alpha  occ. eigenvalues --  -10.22415 -10.22399 -10.22326 -10.22268 -10.22192
 Alpha  occ. eigenvalues --  -10.22050 -10.22041 -10.21925 -10.21615 -10.21454
 Alpha  occ. eigenvalues --  -10.21297  -3.15311  -1.88158  -1.87683  -1.87522
 Alpha  occ. eigenvalues --   -1.11559  -1.09223  -1.05194  -1.03212  -1.02751
 Alpha  occ. eigenvalues --   -1.02205  -0.99364  -0.98645  -0.97975  -0.96856
 Alpha  occ. eigenvalues --   -0.86826  -0.84130  -0.83586  -0.83344  -0.83294
 Alpha  occ. eigenvalues --   -0.82808  -0.82455  -0.81493  -0.80852  -0.80701
 Alpha  occ. eigenvalues --   -0.80038  -0.79647  -0.78762  -0.78138  -0.77719
 Alpha  occ. eigenvalues --   -0.76830  -0.76337  -0.75658  -0.75186  -0.74317
 Alpha  occ. eigenvalues --   -0.73594  -0.72049  -0.71763  -0.71490  -0.70500
 Alpha  occ. eigenvalues --   -0.69538  -0.69312  -0.69132  -0.68683  -0.68062
 Alpha  occ. eigenvalues --   -0.67179  -0.66400  -0.66010  -0.64340  -0.63143
 Alpha  occ. eigenvalues --   -0.63024  -0.62756  -0.61754  -0.60605  -0.60397
 Alpha  occ. eigenvalues --   -0.60293  -0.60104  -0.59771  -0.58710  -0.57435
 Alpha  occ. eigenvalues --   -0.57228  -0.57117  -0.56315  -0.55463  -0.54404
 Alpha  occ. eigenvalues --   -0.54057  -0.53842  -0.53399  -0.53298  -0.53166
 Alpha  occ. eigenvalues --   -0.52292  -0.51246  -0.51087  -0.50607  -0.50413
 Alpha  occ. eigenvalues --   -0.49520  -0.49162  -0.48737  -0.48551  -0.48181
 Alpha  occ. eigenvalues --   -0.47998  -0.47871  -0.47808  -0.47633  -0.47041
 Alpha  occ. eigenvalues --   -0.46974  -0.46860  -0.46816  -0.46590  -0.46178
 Alpha  occ. eigenvalues --   -0.46032  -0.45837  -0.45580  -0.45405  -0.45277
 Alpha  occ. eigenvalues --   -0.45028  -0.44623  -0.44604  -0.44485  -0.44233
 Alpha  occ. eigenvalues --   -0.43994  -0.43912  -0.43449  -0.43423  -0.43165
 Alpha  occ. eigenvalues --   -0.42889  -0.42837  -0.42672  -0.42587  -0.42435
 Alpha  occ. eigenvalues --   -0.42063  -0.41820  -0.41575  -0.41212  -0.41067
 Alpha  occ. eigenvalues --   -0.40852  -0.40696  -0.40524  -0.40384  -0.40235
 Alpha  occ. eigenvalues --   -0.40100  -0.39984  -0.39720  -0.39667  -0.39305
 Alpha  occ. eigenvalues --   -0.39046  -0.38904  -0.38557  -0.38496  -0.38425
 Alpha  occ. eigenvalues --   -0.38346  -0.38092  -0.37953  -0.37801  -0.37685
 Alpha  occ. eigenvalues --   -0.37534  -0.37364  -0.37233  -0.37203  -0.36950
 Alpha  occ. eigenvalues --   -0.36721  -0.36592  -0.36540  -0.36359  -0.36156
 Alpha  occ. eigenvalues --   -0.35599  -0.35399  -0.35278  -0.34971  -0.34761
 Alpha  occ. eigenvalues --   -0.34607  -0.34381  -0.34255  -0.34002  -0.33494
 Alpha  occ. eigenvalues --   -0.33072  -0.32884  -0.32364  -0.32255  -0.31891
 Alpha  occ. eigenvalues --   -0.31841  -0.31711  -0.31643  -0.31409  -0.31319
 Alpha  occ. eigenvalues --   -0.30442  -0.30293  -0.29770  -0.29587  -0.29321
 Alpha  occ. eigenvalues --   -0.28631  -0.28325  -0.27449  -0.27226  -0.26046
 Alpha  occ. eigenvalues --   -0.25640  -0.25458  -0.25194  -0.25043  -0.21236
 Alpha  occ. eigenvalues --   -0.19029
 Alpha virt. eigenvalues --   -0.11273  -0.05595  -0.03997  -0.02447  -0.00893
 Alpha virt. eigenvalues --    0.00008   0.00445   0.00886   0.01587   0.02556
 Alpha virt. eigenvalues --    0.03834   0.04365   0.05231   0.05731   0.05907

 Mulliken charges:
               1
     1  Mg   0.952646
     2  C   -0.026757
     3  C   -0.062613
     4  C   -0.067207
     5  C   -0.055691
     6  N   -0.385169
     7  C   -0.000802
     8  C   -0.076137
     9  C   -0.104423
    10  C    0.082171
    11  C    0.029149
    12  C   -0.004353
    13  C   -0.020093
    14  C    0.234256
    15  O   -0.229637
    16  O   -0.395146
    17  N   -0.492011
    18  C    0.174056
    19  C   -0.184877
    20  C   -0.070315
    21  C    0.195538
    22  C    0.068543
    23  C    0.037049
    24  O   -0.245192
    25  C   -0.002218
    26  N   -0.325071
    27  C    0.047586
    28  C   -0.128127
    29  C   -0.126921
    30  C    0.077587
    31  C   -0.012283
    32  C   -0.015848
    33  C   -0.072076
    34  N   -0.486405
    35  C    0.117031
    36  C   -0.180194
    37  C   -0.029489
    38  C    0.155648
    39  C    0.056936
    40  C    0.091362
    41  O   -0.244508
    42  C   -0.051744
    43  C    0.291968
    44  O   -0.246233
    45  O   -0.358241
    46  C    0.126697
    47  C    0.267261
    48  C   -0.146665
    49  C   -0.186476
    50  C    0.027151
    51  C   -0.019622
    52  C   -0.090272
    53  C    0.012038
    54  C   -0.206255
    55  C   -0.022117
    56  C    0.001675
    57  C   -0.077572
    58  C   -0.015323
    59  C   -0.202722
    60  C   -0.022456
    61  C    0.003611
    62  C   -0.064995
    63  C   -0.024772
    64  C   -0.245011
    65  C   -0.002232
    66  C   -0.028306
    67  H    0.006955
    68  H   -0.027870
    69  H    0.012470
    70  H    0.036100
    71  H    0.043338
    72  H    0.042191
    73  H    0.041296
    74  H    0.048201
    75  H    0.049477
    76  H    0.049497
    77  H    0.059488
    78  H    0.092180
    79  H    0.064027
    80  H    0.024269
    81  H    0.061684
    82  H    0.057750
    83  H    0.073359
    84  H    0.060111
    85  H    0.062486
    86  H    0.049607
    87  H    0.058337
    88  H    0.055343
    89  H    0.049768
    90  H    0.047121
    91  H    0.041792
    92  H    0.039707
    93  H    0.046671
    94  H    0.020884
    95  H    0.065769
    96  H    0.054030
    97  H    0.045211
    98  H    0.077110
    99  H    0.057173
   100  H    0.057109
   101  H    0.052912
   102  H    0.050131
   103  H    0.037707
   104  H    0.031791
   105  H    0.049493
   106  H    0.050286
   107  H    0.023416
   108  H    0.035445
   109  H    0.033950
   110  H    0.048908
   111  H    0.044839
   112  H    0.028867
   113  H    0.019840
   114  H    0.027504
   115  H    0.038116
   116  H    0.027060
   117  H    0.043894
   118  H    0.039292
   119  H    0.028748
   120  H    0.042114
   121  H    0.044269
   122  H    0.029796
   123  H    0.015269
   124  H    0.028331
   125  H    0.029612
   126  H    0.030166
   127  H    0.034296
   128  H    0.024440
   129  H    0.031037
   130  H    0.026753
   131  H    0.037540
   132  H    0.013314
   133  H    0.024960
   134  H    0.032478
   135  H    0.034960
   136  H    0.034875
   137  H    0.034096
   138  H    0.041813
   139  H    0.037736
   140  H    0.041929
 Sum of Mulliken charges =  -0.00000

 Dipole moment (field-independent basis, Debye):
    X=              0.3940    Y=              3.1611    Z=              3.3842  Tot=              4.6476
 Quadrupole moment (field-independent basis, Debye-Ang):
   XX=           -410.7778   YY=           -375.3873   ZZ=           -403.2441
   XY=            -49.8339   XZ=             -9.7975   YZ=            -36.1316

 Normal termination of Gaussian 16 at Wed Apr 27 19:32:30 2022.
