 Gaussian 16, Revision A.03,
 Gaussian 16:  ES64L-G16RevA.03 25-Dec-2016

 --------------------------------
 #p wB97XD/Def2SVP td=(nstates=5)
 --------------------------------

 -----------------------------------------------------
 step_1301_chromophore_11 TDDFT with wB97XD functional
 -----------------------------------------------------
 Symbolic Z-matrix:
 Charge =  0 Multiplicity = 1

                         Standard orientation:
 ---------------------------------------------------------------------
 Center     Atomic      Atomic             Coordinates (Angstroms)
 Number     Number       Type             X           Y           Z
 ---------------------------------------------------------------------
      1         12           0       -4.740892    1.257345    0.710879
      2          6           0       -5.521110   -2.124605    0.470373
      3          6           0       -2.219903    0.493395    2.920448
      4          6           0       -3.583914    4.547012    0.368659
      5          6           0       -7.204866    2.060330   -1.684570
      6          7           0       -3.810609   -0.628880    1.488503
      7          6           0       -4.324186   -1.909839    1.271611
      8          6           0       -3.387349   -2.946189    1.935780
      9          6           0       -2.700740   -2.087481    3.045087
     10          6           0       -2.902549   -0.648300    2.488497
     11          6           0       -3.440933   -2.343096    4.304074
     12          6           0       -2.405557   -3.686077    0.904018
     13          6           0       -2.105429   -2.843371   -0.374367
     14          6           0       -0.987962   -3.467105   -1.255631
     15          8           0       -1.155971   -3.937144   -2.359620
     16          8           0        0.178752   -3.575963   -0.460108
     17          7           0       -3.134745    2.402338    1.518994
     18          6           0       -2.292522    1.870736    2.487243
     19          6           0       -1.454077    3.008430    2.920068
     20          6           0       -1.645646    4.077478    2.076319
     21          6           0       -2.866741    3.729938    1.262122
     22          6           0       -0.362580    2.836284    3.913821
     23          6           0       -0.840484    5.363666    2.009006
     24          8           0        0.225892    5.339108    2.610038
     25          6           0       -1.141659    6.608361    1.185083
     26          7           0       -5.192204    3.024058   -0.619018
     27          6           0       -4.627812    4.209165   -0.486968
     28          6           0       -5.157682    5.296987   -1.476989
     29          6           0       -6.371148    4.509694   -2.148202
     30          6           0       -6.226185    3.070574   -1.494543
     31          6           0       -5.538132    6.685984   -0.716652
     32          6           0       -6.188344    4.450845   -3.719758
     33          6           0       -7.349500    4.962619   -4.464034
     34          7           0       -6.170557    0.202914   -0.344318
     35          6           0       -7.105039    0.650748   -1.279761
     36          6           0       -8.030123   -0.484324   -1.523219
     37          6           0       -7.405975   -1.570119   -0.866071
     38          6           0       -6.307597   -1.095233   -0.179266
     39          6           0       -9.282273   -0.435013   -2.398038
     40          6           0       -7.484472   -2.987295   -0.606208
     41          8           0       -8.294775   -3.793657   -1.095079
     42          6           0       -6.273896   -3.453606    0.187473
     43          6           0       -5.529421   -4.452783   -0.521683
     44          8           0       -4.837201   -4.285762   -1.518133
     45          8           0       -5.761131   -5.633812    0.128026
     46          6           0       -5.237920   -6.810481   -0.531253
     47          6           0        1.270555   -4.315102   -1.074314
     48          6           0        2.533789   -3.611799   -0.711703
     49          6           0        3.377761   -3.859159    0.344114
     50          6           0        3.215611   -4.905057    1.371441
     51          6           0        4.674466   -3.049587    0.501575
     52          6           0        5.050718   -1.987139   -0.546933
     53          6           0        6.531903   -1.456612   -0.466046
     54          6           0        6.570388    0.094747   -0.108068
     55          6           0        6.445578    0.999195   -1.386559
     56          6           0        7.705527    0.431072    0.863824
     57          6           0        9.083547    0.345753    0.135801
     58          6           0       10.187431   -0.022876    1.178809
     59          6           0       11.466318    0.907037    1.107131
     60          6           0       11.176401    2.351868    1.658712
     61          6           0       12.104268    0.883904   -0.336912
     62          6           0       13.619001    0.735525   -0.298012
     63          6           0       14.240035    0.425459   -1.659034
     64          6           0       15.774853    0.334274   -1.712066
     65          6           0       16.379896    1.542447   -2.523266
     66          6           0       16.193406   -1.042203   -2.342421
     67          1           0       -1.593808    0.301891    3.794950
     68          1           0       -3.285940    5.596819    0.363808
     69          1           0       -8.073558    2.389911   -2.257764
     70          1           0       -4.068514   -3.699431    2.331709
     71          1           0       -1.645079   -2.327640    3.169345
     72          1           0       -3.075647   -1.606446    5.019447
     73          1           0       -3.180669   -3.363697    4.585638
     74          1           0       -4.527481   -2.421429    4.277111
     75          1           0       -2.873479   -4.653098    0.716665
     76          1           0       -1.427478   -3.871682    1.347558
     77          1           0       -1.676212   -1.909291   -0.010442
     78          1           0       -2.982846   -2.662971   -0.994919
     79          1           0        0.444693    2.167254    3.618440
     80          1           0       -0.736816    2.434599    4.855266
     81          1           0       -0.062500    3.845127    4.196016
     82          1           0       -0.340335    7.340928    1.085982
     83          1           0       -2.079070    7.061668    1.506004
     84          1           0       -1.258060    6.259255    0.159177
     85          1           0       -4.324315    5.509671   -2.147548
     86          1           0       -7.349956    4.962405   -1.991497
     87          1           0       -5.650655    6.431770    0.337203
     88          1           0       -6.440207    7.075245   -1.189458
     89          1           0       -4.692508    7.359049   -0.857920
     90          1           0       -6.220224    3.406990   -4.030731
     91          1           0       -5.272472    4.927381   -4.069914
     92          1           0       -7.811977    4.166214   -5.047763
     93          1           0       -7.065077    5.824797   -5.065922
     94          1           0       -8.170439    5.242704   -3.803751
     95          1           0       -9.715796   -1.432365   -2.475384
     96          1           0       -8.957350    0.038899   -3.324737
     97          1           0      -10.104242    0.174811   -2.022929
     98          1           0       -6.725671   -3.895856    1.075220
     99          1           0       -5.450906   -7.752752   -0.026709
    100          1           0       -4.178056   -6.730966   -0.776128
    101          1           0       -5.716913   -6.949219   -1.499984
    102          1           0        1.218519   -4.318904   -2.162568
    103          1           0        1.176962   -5.335397   -0.702822
    104          1           0        2.889237   -2.859281   -1.416814
    105          1           0        2.911381   -4.485185    2.330623
    106          1           0        4.092397   -5.530567    1.537679
    107          1           0        2.389463   -5.567930    1.111855
    108          1           0        5.594208   -3.615664    0.649942
    109          1           0        4.533818   -2.492524    1.427778
    110          1           0        4.331695   -1.181736   -0.391664
    111          1           0        4.921566   -2.514918   -1.491650
    112          1           0        7.037513   -1.675164   -1.406441
    113          1           0        7.125100   -1.979431    0.283916
    114          1           0        5.610311    0.210573    0.396073
    115          1           0        5.697076    1.748542   -1.128944
    116          1           0        5.994741    0.482760   -2.233793
    117          1           0        7.349454    1.423172   -1.826195
    118          1           0        7.692890   -0.110665    1.809897
    119          1           0        7.581066    1.486583    1.106535
    120          1           0        9.251755    1.339546   -0.276876
    121          1           0        9.136779   -0.328413   -0.719723
    122          1           0       10.527964   -1.053058    1.281960
    123          1           0        9.702690    0.108697    2.146283
    124          1           0       12.197156    0.531928    1.823381
    125          1           0       11.502058    2.407485    2.697170
    126          1           0       10.105622    2.535627    1.745715
    127          1           0       11.664329    3.142319    1.087966
    128          1           0       11.862742    1.855083   -0.768244
    129          1           0       11.579935    0.127342   -0.921256
    130          1           0       13.937216   -0.207660    0.145855
    131          1           0       14.098758    1.564120    0.223466
    132          1           0       13.818165    1.330352   -2.094754
    133          1           0       13.849890   -0.401260   -2.252368
    134          1           0       16.195016    0.469766   -0.716253
    135          1           0       16.940194    1.055708   -3.320885
    136          1           0       16.927991    2.146409   -1.799031
    137          1           0       15.591345    2.198410   -2.891896
    138          1           0       17.186406   -1.324550   -1.992379
    139          1           0       16.244163   -0.959639   -3.427952
    140          1           0       15.438634   -1.790786   -2.101541
 ---------------------------------------------------------------------

 SCF Done:  E(RwB97XD) =  -3007.87121072     A.U. after   19 cycles

 Excitation energies and oscillator strengths:

 Excited State   1:      Singlet-A      1.7178 eV  721.77 nm  f=0.3547  <S**2>=0.000
     245 -> 248        0.18338
     246 -> 247        0.68373
     245 <- 248        0.11455
 This state for optimization and/or second-order correction.
 Total Energy, E(TD-HF/TD-DFT) =  -3007.80808370
 Copying the excited state density for this state as the 1-particle RhoCI density.

 Excited State   2:      Singlet-A      2.2076 eV  561.63 nm  f=0.0930  <S**2>=0.000
     245 -> 247        0.62827
     246 -> 248       -0.30891

 Excited State   3:      Singlet-A      3.4647 eV  357.85 nm  f=0.0191  <S**2>=0.000
     240 -> 247        0.42829
     240 -> 248       -0.10122
     240 -> 249       -0.32864
     240 -> 250        0.20419
     241 -> 247       -0.32984
     246 -> 248       -0.12272

 Excited State   4:      Singlet-A      3.4858 eV  355.68 nm  f=0.1219  <S**2>=0.000
     239 -> 247        0.14673
     240 -> 247        0.28306
     240 -> 249       -0.16046
     241 -> 247        0.45063
     244 -> 247       -0.21822
     245 -> 247        0.10296
     246 -> 248        0.28940

 Excited State   5:      Singlet-A      3.5231 eV  351.92 nm  f=0.2123  <S**2>=0.000
     242 -> 247        0.13588
     242 -> 249        0.10749
     242 -> 250        0.11054
     244 -> 247        0.49813
     244 -> 249        0.10343
     245 -> 247        0.16893
     246 -> 248        0.39072

 The electronic state is 1-A.
 Alpha  occ. eigenvalues --  -46.96394 -19.30656 -19.28837 -19.24698 -19.24395
 Alpha  occ. eigenvalues --  -19.24193 -19.22829 -14.47160 -14.46953 -14.45070
 Alpha  occ. eigenvalues --  -14.43921 -10.42862 -10.42228 -10.40002 -10.38081
 Alpha  occ. eigenvalues --  -10.35955 -10.35844 -10.35773 -10.35770 -10.35465
 Alpha  occ. eigenvalues --  -10.35128 -10.34863 -10.34671 -10.34058 -10.33298
 Alpha  occ. eigenvalues --  -10.32901 -10.32900 -10.32583 -10.32544 -10.32521
 Alpha  occ. eigenvalues --  -10.32266 -10.32068 -10.32010 -10.31989 -10.31875
 Alpha  occ. eigenvalues --  -10.31690 -10.31486 -10.31238 -10.31227 -10.31217
 Alpha  occ. eigenvalues --  -10.31082 -10.30256 -10.30038 -10.29853 -10.29588
 Alpha  occ. eigenvalues --  -10.29515 -10.29492 -10.29476 -10.29412 -10.29376
 Alpha  occ. eigenvalues --  -10.29210 -10.29082 -10.28983 -10.28920 -10.28897
 Alpha  occ. eigenvalues --  -10.28874 -10.28711 -10.28707 -10.28595 -10.28472
 Alpha  occ. eigenvalues --  -10.28457 -10.28394 -10.28266 -10.28076 -10.27877
 Alpha  occ. eigenvalues --  -10.27663  -3.22158  -1.95748  -1.95274  -1.95111
 Alpha  occ. eigenvalues --   -1.18847  -1.16570  -1.12990  -1.10421  -1.09968
 Alpha  occ. eigenvalues --   -1.09507  -1.06731  -1.05849  -1.05303  -1.04551
 Alpha  occ. eigenvalues --   -0.94224  -0.91828  -0.91221  -0.91037  -0.90953
 Alpha  occ. eigenvalues --   -0.90487  -0.90152  -0.89159  -0.88857  -0.88399
 Alpha  occ. eigenvalues --   -0.87454  -0.87211  -0.86274  -0.85826  -0.85413
 Alpha  occ. eigenvalues --   -0.84632  -0.84046  -0.83306  -0.82842  -0.81937
 Alpha  occ. eigenvalues --   -0.81290  -0.79753  -0.79338  -0.79103  -0.78062
 Alpha  occ. eigenvalues --   -0.77200  -0.77015  -0.76846  -0.76402  -0.75743
 Alpha  occ. eigenvalues --   -0.74630  -0.74012  -0.73578  -0.71991  -0.70775
 Alpha  occ. eigenvalues --   -0.70438  -0.70346  -0.69469  -0.68299  -0.67966
 Alpha  occ. eigenvalues --   -0.67918  -0.67668  -0.67211  -0.66148  -0.64921
 Alpha  occ. eigenvalues --   -0.64720  -0.64543  -0.63968  -0.63096  -0.61796
 Alpha  occ. eigenvalues --   -0.61511  -0.61429  -0.60837  -0.60795  -0.60529
 Alpha  occ. eigenvalues --   -0.59632  -0.58763  -0.58619  -0.57967  -0.57725
 Alpha  occ. eigenvalues --   -0.56892  -0.56538  -0.56079  -0.56067  -0.55675
 Alpha  occ. eigenvalues --   -0.55434  -0.55343  -0.55055  -0.54958  -0.54662
 Alpha  occ. eigenvalues --   -0.54474  -0.54259  -0.54221  -0.53992  -0.53559
 Alpha  occ. eigenvalues --   -0.53344  -0.53242  -0.52852  -0.52741  -0.52569
 Alpha  occ. eigenvalues --   -0.52382  -0.52167  -0.52026  -0.51874  -0.51724
 Alpha  occ. eigenvalues --   -0.51316  -0.51166  -0.50701  -0.50652  -0.50504
 Alpha  occ. eigenvalues --   -0.50151  -0.50080  -0.50008  -0.49881  -0.49686
 Alpha  occ. eigenvalues --   -0.49221  -0.49089  -0.48821  -0.48576  -0.48196
 Alpha  occ. eigenvalues --   -0.48034  -0.47974  -0.47843  -0.47633  -0.47452
 Alpha  occ. eigenvalues --   -0.47243  -0.47147  -0.46992  -0.46782  -0.46442
 Alpha  occ. eigenvalues --   -0.46351  -0.46069  -0.45720  -0.45627  -0.45595
 Alpha  occ. eigenvalues --   -0.45466  -0.45139  -0.45121  -0.45020  -0.44746
 Alpha  occ. eigenvalues --   -0.44711  -0.44663  -0.44394  -0.44260  -0.44001
 Alpha  occ. eigenvalues --   -0.43747  -0.43710  -0.43519  -0.43351  -0.43264
 Alpha  occ. eigenvalues --   -0.42684  -0.42498  -0.42395  -0.42018  -0.41786
 Alpha  occ. eigenvalues --   -0.41551  -0.41455  -0.41286  -0.41022  -0.40561
 Alpha  occ. eigenvalues --   -0.39981  -0.39962  -0.39357  -0.39298  -0.38900
 Alpha  occ. eigenvalues --   -0.38856  -0.38744  -0.38616  -0.38314  -0.38279
 Alpha  occ. eigenvalues --   -0.37461  -0.37273  -0.36726  -0.36392  -0.36346
 Alpha  occ. eigenvalues --   -0.35345  -0.35218  -0.34408  -0.33921  -0.33152
 Alpha  occ. eigenvalues --   -0.32912  -0.32191  -0.31742  -0.31459  -0.26289
 Alpha  occ. eigenvalues --   -0.23258
 Alpha virt. eigenvalues --   -0.07061  -0.00192   0.02272   0.04122   0.04994
 Alpha virt. eigenvalues --    0.06861   0.07104   0.07618   0.08524   0.09215
 Alpha virt. eigenvalues --    0.10304   0.11007   0.11886   0.12392   0.12699

 Mulliken charges:
               1
     1  Mg   0.946202
     2  C   -0.030022
     3  C   -0.082306
     4  C   -0.080037
     5  C   -0.066603
     6  N   -0.356742
     7  C   -0.036667
     8  C   -0.053251
     9  C   -0.075696
    10  C    0.069190
    11  C    0.035503
    12  C    0.005472
    13  C    0.008210
    14  C    0.226229
    15  O   -0.227734
    16  O   -0.396171
    17  N   -0.463001
    18  C    0.170781
    19  C   -0.171345
    20  C   -0.060615
    21  C    0.192585
    22  C    0.079980
    23  C    0.031504
    24  O   -0.240149
    25  C    0.012838
    26  N   -0.289383
    27  C    0.039311
    28  C   -0.111668
    29  C   -0.097320
    30  C    0.061417
    31  C    0.002425
    32  C   -0.003639
    33  C   -0.056892
    34  N   -0.446748
    35  C    0.100532
    36  C   -0.181470
    37  C   -0.021337
    38  C    0.135345
    39  C    0.067342
    40  C    0.068579
    41  O   -0.237409
    42  C   -0.007673
    43  C    0.259900
    44  O   -0.237681
    45  O   -0.355633
    46  C    0.141889
    47  C    0.279119
    48  C   -0.149040
    49  C   -0.176869
    50  C    0.040482
    51  C   -0.004037
    52  C   -0.063874
    53  C    0.019443
    54  C   -0.170244
    55  C   -0.015110
    56  C    0.021134
    57  C   -0.066786
    58  C    0.004357
    59  C   -0.175127
    60  C   -0.010965
    61  C    0.016390
    62  C   -0.042546
    63  C   -0.008462
    64  C   -0.220770
    65  C    0.010545
    66  C   -0.013009
    67  H    0.002120
    68  H   -0.045117
    69  H    0.007770
    70  H    0.024898
    71  H    0.037746
    72  H    0.035809
    73  H    0.035711
    74  H    0.043762
    75  H    0.040030
    76  H    0.040974
    77  H    0.046048
    78  H    0.083154
    79  H    0.062314
    80  H    0.020102
    81  H    0.058337
    82  H    0.058406
    83  H    0.069508
    84  H    0.053915
    85  H    0.052517
    86  H    0.037488
    87  H    0.050944
    88  H    0.051087
    89  H    0.043921
    90  H    0.037872
    91  H    0.034142
    92  H    0.034621
    93  H    0.041040
    94  H    0.013271
    95  H    0.061556
    96  H    0.046680
    97  H    0.038198
    98  H    0.071134
    99  H    0.053909
   100  H    0.052066
   101  H    0.048539
   102  H    0.046477
   103  H    0.033429
   104  H    0.026966
   105  H    0.044100
   106  H    0.045782
   107  H    0.016461
   108  H    0.026855
   109  H    0.023305
   110  H    0.037560
   111  H    0.034324
   112  H    0.021505
   113  H    0.009415
   114  H    0.013684
   115  H    0.032523
   116  H    0.021110
   117  H    0.038784
   118  H    0.031066
   119  H    0.019146
   120  H    0.030361
   121  H    0.034997
   122  H    0.023128
   123  H    0.003353
   124  H    0.017231
   125  H    0.024413
   126  H    0.021556
   127  H    0.028957
   128  H    0.014290
   129  H    0.021303
   130  H    0.014451
   131  H    0.029690
   132  H   -0.000717
   133  H    0.017034
   134  H    0.022128
   135  H    0.028510
   136  H    0.029645
   137  H    0.027863
   138  H    0.036651
   139  H    0.030498
   140  H    0.035013
 Sum of Mulliken charges =  -0.00000

 Dipole moment (field-independent basis, Debye):
    X=              1.0906    Y=              3.7021    Z=              3.9120  Tot=              5.4953
 Quadrupole moment (field-independent basis, Debye-Ang):
   XX=           -416.4967   YY=           -373.0286   ZZ=           -402.5395
   XY=            -51.0136   XZ=            -12.1399   YZ=            -35.0008

 Normal termination of Gaussian 16 at Wed Apr 27 20:00:49 2022.
