 Gaussian 16, Revision A.03,
 Gaussian 16:  ES64L-G16RevA.03 25-Dec-2016

 --------------------
 #p ZINDO=(nstates=5)
 --------------------

 ------------------------------
 step_1301_chromophore_11 ZINDO
 ------------------------------
 Symbolic Z-matrix:
 Charge =  0 Multiplicity = 1

                         Standard orientation:
 ---------------------------------------------------------------------
 Center     Atomic      Atomic             Coordinates (Angstroms)
 Number     Number       Type             X           Y           Z
 ---------------------------------------------------------------------
      1         12           0       -4.740892    1.257345    0.710879
      2          6           0       -5.521110   -2.124605    0.470373
      3          6           0       -2.219903    0.493395    2.920448
      4          6           0       -3.583914    4.547012    0.368659
      5          6           0       -7.204866    2.060330   -1.684570
      6          7           0       -3.810609   -0.628880    1.488503
      7          6           0       -4.324186   -1.909839    1.271611
      8          6           0       -3.387349   -2.946189    1.935780
      9          6           0       -2.700740   -2.087481    3.045087
     10          6           0       -2.902549   -0.648300    2.488497
     11          6           0       -3.440933   -2.343096    4.304074
     12          6           0       -2.405557   -3.686077    0.904018
     13          6           0       -2.105429   -2.843371   -0.374367
     14          6           0       -0.987962   -3.467105   -1.255631
     15          8           0       -1.155971   -3.937144   -2.359620
     16          8           0        0.178752   -3.575963   -0.460108
     17          7           0       -3.134745    2.402338    1.518994
     18          6           0       -2.292522    1.870736    2.487243
     19          6           0       -1.454077    3.008430    2.920068
     20          6           0       -1.645646    4.077478    2.076319
     21          6           0       -2.866741    3.729938    1.262122
     22          6           0       -0.362580    2.836284    3.913821
     23          6           0       -0.840484    5.363666    2.009006
     24          8           0        0.225892    5.339108    2.610038
     25          6           0       -1.141659    6.608361    1.185083
     26          7           0       -5.192204    3.024058   -0.619018
     27          6           0       -4.627812    4.209165   -0.486968
     28          6           0       -5.157682    5.296987   -1.476989
     29          6           0       -6.371148    4.509694   -2.148202
     30          6           0       -6.226185    3.070574   -1.494543
     31          6           0       -5.538132    6.685984   -0.716652
     32          6           0       -6.188344    4.450845   -3.719758
     33          6           0       -7.349500    4.962619   -4.464034
     34          7           0       -6.170557    0.202914   -0.344318
     35          6           0       -7.105039    0.650748   -1.279761
     36          6           0       -8.030123   -0.484324   -1.523219
     37          6           0       -7.405975   -1.570119   -0.866071
     38          6           0       -6.307597   -1.095233   -0.179266
     39          6           0       -9.282273   -0.435013   -2.398038
     40          6           0       -7.484472   -2.987295   -0.606208
     41          8           0       -8.294775   -3.793657   -1.095079
     42          6           0       -6.273896   -3.453606    0.187473
     43          6           0       -5.529421   -4.452783   -0.521683
     44          8           0       -4.837201   -4.285762   -1.518133
     45          8           0       -5.761131   -5.633812    0.128026
     46          6           0       -5.237920   -6.810481   -0.531253
     47          6           0        1.270555   -4.315102   -1.074314
     48          6           0        2.533789   -3.611799   -0.711703
     49          6           0        3.377761   -3.859159    0.344114
     50          6           0        3.215611   -4.905057    1.371441
     51          6           0        4.674466   -3.049587    0.501575
     52          6           0        5.050718   -1.987139   -0.546933
     53          6           0        6.531903   -1.456612   -0.466046
     54          6           0        6.570388    0.094747   -0.108068
     55          6           0        6.445578    0.999195   -1.386559
     56          6           0        7.705527    0.431072    0.863824
     57          6           0        9.083547    0.345753    0.135801
     58          6           0       10.187431   -0.022876    1.178809
     59          6           0       11.466318    0.907037    1.107131
     60          6           0       11.176401    2.351868    1.658712
     61          6           0       12.104268    0.883904   -0.336912
     62          6           0       13.619001    0.735525   -0.298012
     63          6           0       14.240035    0.425459   -1.659034
     64          6           0       15.774853    0.334274   -1.712066
     65          6           0       16.379896    1.542447   -2.523266
     66          6           0       16.193406   -1.042203   -2.342421
     67          1           0       -1.593808    0.301891    3.794950
     68          1           0       -3.285940    5.596819    0.363808
     69          1           0       -8.073558    2.389911   -2.257764
     70          1           0       -4.068514   -3.699431    2.331709
     71          1           0       -1.645079   -2.327640    3.169345
     72          1           0       -3.075647   -1.606446    5.019447
     73          1           0       -3.180669   -3.363697    4.585638
     74          1           0       -4.527481   -2.421429    4.277111
     75          1           0       -2.873479   -4.653098    0.716665
     76          1           0       -1.427478   -3.871682    1.347558
     77          1           0       -1.676212   -1.909291   -0.010442
     78          1           0       -2.982846   -2.662971   -0.994919
     79          1           0        0.444693    2.167254    3.618440
     80          1           0       -0.736816    2.434599    4.855266
     81          1           0       -0.062500    3.845127    4.196016
     82          1           0       -0.340335    7.340928    1.085982
     83          1           0       -2.079070    7.061668    1.506004
     84          1           0       -1.258060    6.259255    0.159177
     85          1           0       -4.324315    5.509671   -2.147548
     86          1           0       -7.349956    4.962405   -1.991497
     87          1           0       -5.650655    6.431770    0.337203
     88          1           0       -6.440207    7.075245   -1.189458
     89          1           0       -4.692508    7.359049   -0.857920
     90          1           0       -6.220224    3.406990   -4.030731
     91          1           0       -5.272472    4.927381   -4.069914
     92          1           0       -7.811977    4.166214   -5.047763
     93          1           0       -7.065077    5.824797   -5.065922
     94          1           0       -8.170439    5.242704   -3.803751
     95          1           0       -9.715796   -1.432365   -2.475384
     96          1           0       -8.957350    0.038899   -3.324737
     97          1           0      -10.104242    0.174811   -2.022929
     98          1           0       -6.725671   -3.895856    1.075220
     99          1           0       -5.450906   -7.752752   -0.026709
    100          1           0       -4.178056   -6.730966   -0.776128
    101          1           0       -5.716913   -6.949219   -1.499984
    102          1           0        1.218519   -4.318904   -2.162568
    103          1           0        1.176962   -5.335397   -0.702822
    104          1           0        2.889237   -2.859281   -1.416814
    105          1           0        2.911381   -4.485185    2.330623
    106          1           0        4.092397   -5.530567    1.537679
    107          1           0        2.389463   -5.567930    1.111855
    108          1           0        5.594208   -3.615664    0.649942
    109          1           0        4.533818   -2.492524    1.427778
    110          1           0        4.331695   -1.181736   -0.391664
    111          1           0        4.921566   -2.514918   -1.491650
    112          1           0        7.037513   -1.675164   -1.406441
    113          1           0        7.125100   -1.979431    0.283916
    114          1           0        5.610311    0.210573    0.396073
    115          1           0        5.697076    1.748542   -1.128944
    116          1           0        5.994741    0.482760   -2.233793
    117          1           0        7.349454    1.423172   -1.826195
    118          1           0        7.692890   -0.110665    1.809897
    119          1           0        7.581066    1.486583    1.106535
    120          1           0        9.251755    1.339546   -0.276876
    121          1           0        9.136779   -0.328413   -0.719723
    122          1           0       10.527964   -1.053058    1.281960
    123          1           0        9.702690    0.108697    2.146283
    124          1           0       12.197156    0.531928    1.823381
    125          1           0       11.502058    2.407485    2.697170
    126          1           0       10.105622    2.535627    1.745715
    127          1           0       11.664329    3.142319    1.087966
    128          1           0       11.862742    1.855083   -0.768244
    129          1           0       11.579935    0.127342   -0.921256
    130          1           0       13.937216   -0.207660    0.145855
    131          1           0       14.098758    1.564120    0.223466
    132          1           0       13.818165    1.330352   -2.094754
    133          1           0       13.849890   -0.401260   -2.252368
    134          1           0       16.195016    0.469766   -0.716253
    135          1           0       16.940194    1.055708   -3.320885
    136          1           0       16.927991    2.146409   -1.799031
    137          1           0       15.591345    2.198410   -2.891896
    138          1           0       17.186406   -1.324550   -1.992379
    139          1           0       16.244163   -0.959639   -3.427952
    140          1           0       15.438634   -1.790786   -2.101541
 ---------------------------------------------------------------------

 SCF Done:  E(RZINDO/S) =  -474.034260972     A.U. after   19 cycles

 Excitation energies and oscillator strengths:

 Excited State   1:      Singlet-A      1.3569 eV  913.74 nm  f=0.5278  <S**2>=0.000
     175 ->178        -0.16023
     176 ->177         0.67150
 This state for optimization and/or second-order correction.
 Total Energy, E(CIS/TDA) =  -473.984396178
 Copying the excited state density for this state as the 1-particle RhoCI density.

 Excited State   2:      Singlet-A      1.9497 eV  635.92 nm  f=0.0307  <S**2>=0.000
     175 ->177         0.53240
     176 ->178         0.42917

 Excited State   3:      Singlet-A      2.7975 eV  443.19 nm  f=0.0000  <S**2>=0.000
     167 ->179         0.15155
     168 ->177         0.31297
     168 ->178         0.13690
     168 ->179         0.43508
     168 ->180        -0.25287
     168 ->185         0.18241

 Excited State   4:      Singlet-A      2.9639 eV  418.31 nm  f=0.0146  <S**2>=0.000
     171 ->177         0.25829
     171 ->179        -0.28868
     171 ->180        -0.41808
     171 ->185        -0.23000
     171 ->187        -0.11072
     171 ->188         0.12936
     171 ->203         0.10619

 Excited State   5:      Singlet-A      3.0276 eV  409.52 nm  f=1.2215  <S**2>=0.000
     175 ->177        -0.41248
     176 ->178         0.52845

 The electronic state is 1-A.
 Alpha  occ. eigenvalues --   -1.83304  -1.80141  -1.79098  -1.73689  -1.71555
 Alpha  occ. eigenvalues --   -1.70035  -1.63921  -1.60933  -1.60089  -1.57842
 Alpha  occ. eigenvalues --   -1.55011  -1.50404  -1.49195  -1.47107  -1.46096
 Alpha  occ. eigenvalues --   -1.43807  -1.42196  -1.40176  -1.38901  -1.38085
 Alpha  occ. eigenvalues --   -1.36872  -1.32785  -1.31936  -1.30228  -1.28344
 Alpha  occ. eigenvalues --   -1.26746  -1.25493  -1.23087  -1.20827  -1.18282
 Alpha  occ. eigenvalues --   -1.16833  -1.14874  -1.14649  -1.13391  -1.12951
 Alpha  occ. eigenvalues --   -1.11650  -1.10478  -1.09994  -1.04152  -1.03722
 Alpha  occ. eigenvalues --   -1.01105  -1.00952  -1.00280  -0.97591  -0.96339
 Alpha  occ. eigenvalues --   -0.94674  -0.94318  -0.93451  -0.93198  -0.91897
 Alpha  occ. eigenvalues --   -0.90952  -0.90215  -0.88984  -0.86608  -0.85502
 Alpha  occ. eigenvalues --   -0.84209  -0.84077  -0.83961  -0.81838  -0.79699
 Alpha  occ. eigenvalues --   -0.79166  -0.79015  -0.77464  -0.77217  -0.76325
 Alpha  occ. eigenvalues --   -0.76239  -0.75936  -0.75031  -0.74327  -0.73942
 Alpha  occ. eigenvalues --   -0.73645  -0.73085  -0.71899  -0.71564  -0.71539
 Alpha  occ. eigenvalues --   -0.71322  -0.69482  -0.68972  -0.68132  -0.67598
 Alpha  occ. eigenvalues --   -0.67431  -0.67303  -0.66053  -0.65930  -0.65739
 Alpha  occ. eigenvalues --   -0.64667  -0.64539  -0.64236  -0.63970  -0.63796
 Alpha  occ. eigenvalues --   -0.63586  -0.62936  -0.62758  -0.62238  -0.61488
 Alpha  occ. eigenvalues --   -0.61335  -0.61284  -0.60749  -0.60363  -0.59700
 Alpha  occ. eigenvalues --   -0.59530  -0.59383  -0.59306  -0.58125  -0.57972
 Alpha  occ. eigenvalues --   -0.57747  -0.57203  -0.56965  -0.55996  -0.55757
 Alpha  occ. eigenvalues --   -0.55692  -0.55167  -0.54990  -0.54869  -0.54400
 Alpha  occ. eigenvalues --   -0.54016  -0.53640  -0.53375  -0.52890  -0.52722
 Alpha  occ. eigenvalues --   -0.52475  -0.52414  -0.52285  -0.51790  -0.51661
 Alpha  occ. eigenvalues --   -0.51401  -0.51268  -0.50792  -0.50531  -0.50410
 Alpha  occ. eigenvalues --   -0.50014  -0.49794  -0.49576  -0.49378  -0.49133
 Alpha  occ. eigenvalues --   -0.48736  -0.48517  -0.48441  -0.47741  -0.47356
 Alpha  occ. eigenvalues --   -0.47212  -0.47098  -0.46985  -0.46642  -0.46587
 Alpha  occ. eigenvalues --   -0.46373  -0.46176  -0.45825  -0.45768  -0.45452
 Alpha  occ. eigenvalues --   -0.45386  -0.45000  -0.44689  -0.44450  -0.43876
 Alpha  occ. eigenvalues --   -0.43762  -0.43330  -0.43134  -0.42408  -0.41865
 Alpha  occ. eigenvalues --   -0.41396  -0.41038  -0.39854  -0.38829  -0.38103
 Alpha  occ. eigenvalues --   -0.37784  -0.37235  -0.36043  -0.34902  -0.34313
 Alpha  occ. eigenvalues --   -0.33737  -0.32972  -0.32056  -0.31484  -0.27029
 Alpha  occ. eigenvalues --   -0.22154
 Alpha virt. eigenvalues --   -0.08392  -0.02361  -0.00774   0.01002   0.01373
 Alpha virt. eigenvalues --    0.02478   0.02669   0.03208   0.04404   0.04602
 Alpha virt. eigenvalues --    0.05533   0.06123   0.06701   0.07457   0.07646

 Mulliken charges:
               1
     1  Mg   0.429854
     2  C   -0.056397
     3  C   -0.096213
     4  C   -0.093177
     5  C   -0.057098
     6  N   -0.295707
     7  C    0.084986
     8  C    0.000458
     9  C    0.019536
    10  C    0.176074
    11  C   -0.041737
    12  C   -0.019074
    13  C    0.008995
    14  C    0.452826
    15  O   -0.484824
    16  O   -0.284572
    17  N   -0.334244
    18  C    0.146621
    19  C    0.063657
    20  C   -0.021371
    21  C    0.134394
    22  C   -0.044043
    23  C    0.327524
    24  O   -0.513838
    25  C   -0.021487
    26  N   -0.251631
    27  C    0.172129
    28  C   -0.017585
    29  C   -0.006356
    30  C    0.074692
    31  C   -0.058126
    32  C   -0.033875
    33  C   -0.054410
    34  N   -0.301717
    35  C    0.038172
    36  C    0.009825
    37  C   -0.055057
    38  C    0.111599
    39  C   -0.039598
    40  C    0.332255
    41  O   -0.549175
    42  C    0.064841
    43  C    0.504709
    44  O   -0.520439
    45  O   -0.263836
    46  C    0.070289
    47  C    0.110653
    48  C   -0.088596
    49  C   -0.003860
    50  C   -0.037256
    51  C   -0.029498
    52  C   -0.040192
    53  C   -0.041341
    54  C   -0.013284
    55  C   -0.058508
    56  C   -0.027938
    57  C   -0.031635
    58  C   -0.042289
    59  C   -0.023025
    60  C   -0.060833
    61  C   -0.030514
    62  C   -0.032046
    63  C   -0.047021
    64  C   -0.020821
    65  C   -0.068246
    66  C   -0.056837
    67  H    0.022654
    68  H    0.026203
    69  H    0.031056
    70  H    0.024427
    71  H    0.036421
    72  H    0.017943
    73  H    0.014096
    74  H    0.031557
    75  H    0.033346
    76  H    0.025300
    77  H    0.034601
    78  H    0.059782
    79  H    0.044945
    80  H    0.016235
    81  H    0.042017
    82  H    0.044928
    83  H    0.038530
    84  H    0.031332
    85  H    0.039857
    86  H    0.040768
    87  H    0.029585
    88  H    0.029470
    89  H    0.022135
    90  H    0.024363
    91  H    0.025159
    92  H    0.018725
    93  H    0.018392
    94  H    0.012804
    95  H    0.036213
    96  H    0.030536
    97  H    0.024360
    98  H    0.052773
    99  H    0.032132
   100  H    0.043410
   101  H    0.039426
   102  H    0.050874
   103  H    0.040365
   104  H    0.034764
   105  H    0.026239
   106  H    0.028221
   107  H    0.014392
   108  H    0.025544
   109  H    0.015945
   110  H    0.027321
   111  H    0.021211
   112  H    0.018366
   113  H    0.016006
   114  H    0.012127
   115  H    0.016597
   116  H    0.013297
   117  H    0.027187
   118  H    0.028834
   119  H    0.010682
   120  H    0.021536
   121  H    0.024431
   122  H    0.022054
   123  H    0.007427
   124  H    0.013533
   125  H    0.012692
   126  H    0.018606
   127  H    0.022897
   128  H    0.017620
   129  H    0.024789
   130  H    0.011859
   131  H    0.030643
   132  H    0.008309
   133  H    0.026416
   134  H    0.021584
   135  H    0.029472
   136  H    0.019871
   137  H    0.020937
   138  H    0.017354
   139  H    0.020104
   140  H    0.019649
 Sum of Mulliken charges =  -0.00000

 Dipole moment (field-independent basis, Debye):
    X=              2.1225    Y=              6.6274    Z=              7.3064  Tot=             10.0901
 N-N= 4.346539574844D+03 E-N= 0.000000000000D+00  KE=-9.367445059317D+03
 Leave Link  601 at Wed Apr 27 20:15:34 2022, MaxMem=  6710886400 cpu:               0.8 elap:               0.0
 (Enter /sw/apps/gaussian-16.0/g16/l9999.exe)
 1\1\GINC-BP1-COMPUTE070\SP\RZINDO CIS\STO-3G\C55H74Mg1N4O6\OF15641\27-
 Apr-2022\0\\#p ZINDO=(nstates=5)\\step_1301_chromophore_11 ZINDO\\0,1\
 Mg,0,51.913,24.52,45.288\C,0,49.132,26.493,44.597\C,0,50.227,21.77,44.
 098\C,0,54.942,22.76,45.36\C,0,53.733,27.349,46.355\N,0,49.95,24.165,4
 4.264\C,0,48.952,25.131,44.114\C,0,47.77,24.515,43.329\C,0,47.948,22.9
 93,43.631\C,0,49.452,22.932,44.026\C,0,47.03,22.668,44.749\C,0,47.736,
 24.93,41.779\C,0,49.14,25.302,41.209\C,0,49.132,25.485,39.666\O,0,49.3

 Normal termination of Gaussian 16 at Wed Apr 27 20:15:35 2022.
