 Gaussian 16, Revision A.03,
 Gaussian 16:  ES64L-G16RevA.03 25-Dec-2016

 ------------------------------
 #p blyp/Def2SVP td=(nstates=5)
 ------------------------------

 --------------------------------------------------
 step_401_chromophore_22 TDDFT with blyp functional
 --------------------------------------------------
 Symbolic Z-matrix:
 Charge =  0 Multiplicity = 1

                         Standard orientation:
 ---------------------------------------------------------------------
 Center     Atomic      Atomic             Coordinates (Angstroms)
 Number     Number       Type             X           Y           Z
 ---------------------------------------------------------------------
      1         12           0       -6.206204    0.577391    0.036763
      2          6           0       -3.735312   -1.804485    0.637143
      3          6           0       -4.070200    3.051721    0.933054
      4          6           0       -8.726075    2.675067   -0.440276
      5          6           0       -8.578975   -2.106444    0.071183
      6          7           0       -4.144737    0.581964    0.538800
      7          6           0       -3.321892   -0.455244    0.784911
      8          6           0       -1.944786   -0.033829    1.328687
      9          6           0       -2.266282    1.446707    1.703194
     10          6           0       -3.606341    1.734461    1.040598
     11          6           0       -2.391354    1.599112    3.267847
     12          6           0       -0.805610   -0.164914    0.312628
     13          6           0        0.301603   -1.119687    0.753038
     14          6           0        1.352332   -1.398989   -0.390741
     15          8           0        1.056292   -1.736395   -1.521381
     16          8           0        2.661100   -1.436089    0.044737
     17          7           0       -6.334731    2.652976    0.187093
     18          6           0       -5.334325    3.494937    0.476468
     19          6           0       -5.838367    4.856109    0.392990
     20          6           0       -7.156720    4.748353   -0.073713
     21          6           0       -7.457903    3.314355   -0.127501
     22          6           0       -5.046103    6.103809    0.631209
     23          6           0       -8.148435    5.772856   -0.416635
     24          8           0       -9.223691    5.491831   -0.912102
     25          6           0       -7.692086    7.242258   -0.385518
     26          7           0       -8.404103    0.293603    0.008143
     27          6           0       -9.172434    1.295769   -0.372588
     28          6           0      -10.587676    0.840623   -0.761177
     29          6           0      -10.492619   -0.733079   -0.652343
     30          6           0       -9.072962   -0.865813   -0.196205
     31          6           0      -11.732196    1.508321    0.141410
     32          6           0      -10.862407   -1.442627   -1.996411
     33          6           0      -11.754988   -2.671879   -1.913020
     34          7           0       -6.175141   -1.510281    0.177770
     35          6           0       -7.225281   -2.422986    0.258750
     36          6           0       -6.722545   -3.806470    0.332932
     37          6           0       -5.303513   -3.599854    0.539665
     38          6           0       -5.048998   -2.222655    0.485908
     39          6           0       -7.519529   -5.021758    0.253821
     40          6           0       -4.036281   -4.298724    0.664948
     41          8           0       -3.786479   -5.477074    0.817903
     42          6           0       -2.986580   -3.117893    0.804808
     43          6           0       -2.040826   -3.429743   -0.304608
     44          8           0       -1.919993   -2.874007   -1.355939
     45          8           0       -1.207933   -4.435847    0.122547
     46          6           0        0.033040   -4.655735   -0.711642
     47          6           0        3.679719   -1.782681   -1.020031
     48          6           0        5.094033   -1.420332   -0.445018
     49          6           0        6.169547   -2.250083   -0.220662
     50          6           0        6.193893   -3.785373   -0.405069
     51          6           0        7.405081   -1.780932    0.491028
     52          6           0        8.529587   -1.271647   -0.342431
     53          6           0        8.732418    0.207399   -0.359830
     54          6           0       10.128205    0.585606    0.257825
     55          6           0       10.074848    0.725674    1.775417
     56          6           0       10.542287    1.867804   -0.377814
     57          6           0       11.074208    1.716919   -1.793517
     58          6           0       12.410967    2.511514   -2.051905
     59          6           0       13.618771    1.540784   -1.986890
     60          6           0       14.163305    1.162057   -3.423306
     61          6           0       14.800194    2.155923   -1.130587
     62          6           0       15.817196    1.176068   -0.686462
     63          6           0       16.020696    1.175405    0.883485
     64          6           0       15.153936    0.103679    1.680181
     65          6           0       13.658026    0.336856    1.536075
     66          6           0       15.587920    0.140046    3.165628
     67          1           0       -3.432976    3.892609    1.215382
     68          1           0       -9.533481    3.246688   -0.901477
     69          1           0       -9.190344   -3.001803   -0.055830
     70          1           0       -1.793771   -0.687134    2.188295
     71          1           0       -1.459945    2.048559    1.284271
     72          1           0       -1.577603    2.222956    3.638430
     73          1           0       -2.320053    0.653371    3.803676
     74          1           0       -3.373748    2.027416    3.466937
     75          1           0       -0.300627    0.766628    0.056499
     76          1           0       -1.242564   -0.583977   -0.594115
     77          1           0       -0.179423   -2.087953    0.893745
     78          1           0        0.667305   -0.733350    1.704572
     79          1           0       -4.076875    5.990091    1.115665
     80          1           0       -5.611342    6.685802    1.359675
     81          1           0       -4.865266    6.733582   -0.240611
     82          1           0       -7.490637    7.488002    0.657323
     83          1           0       -8.575130    7.802285   -0.692818
     84          1           0       -6.928687    7.533320   -1.105251
     85          1           0      -10.764338    1.191423   -1.777699
     86          1           0      -11.157504   -1.094325    0.132729
     87          1           0      -11.287515    2.232097    0.823701
     88          1           0      -12.386121    0.858436    0.723822
     89          1           0      -12.399432    2.117099   -0.468387
     90          1           0       -9.979856   -1.860351   -2.482278
     91          1           0      -11.318486   -0.760545   -2.714283
     92          1           0      -11.184622   -3.500185   -2.333217
     93          1           0      -12.632611   -2.426802   -2.510628
     94          1           0      -12.186214   -2.820638   -0.923070
     95          1           0       -7.013106   -5.920129    0.606920
     96          1           0       -7.946883   -5.095826   -0.746261
     97          1           0       -8.388217   -4.850640    0.889929
     98          1           0       -2.449676   -3.133962    1.753155
     99          1           0        0.812407   -4.140086   -0.150945
    100          1           0       -0.101225   -4.390862   -1.760877
    101          1           0        0.320051   -5.688145   -0.513401
    102          1           0        3.453619   -1.378936   -2.006946
    103          1           0        3.631158   -2.858925   -1.187512
    104          1           0        5.208475   -0.381727   -0.131893
    105          1           0        6.793569   -4.004843   -1.288687
    106          1           0        5.237554   -4.115859   -0.809815
    107          1           0        6.545776   -4.284226    0.499099
    108          1           0        7.825877   -2.652607    0.992723
    109          1           0        7.075800   -1.150357    1.317359
    110          1           0        8.416072   -1.715606   -1.331160
    111          1           0        9.431978   -1.770739    0.010274
    112          1           0        7.970199    0.659841    0.274620
    113          1           0        8.638853    0.464004   -1.415487
    114          1           0       10.868436   -0.192504    0.074956
    115          1           0        9.970749    1.762590    2.093301
    116          1           0       10.835060    0.185255    2.339731
    117          1           0        9.159066    0.192661    2.031885
    118          1           0       11.323645    2.348112    0.211712
    119          1           0        9.670997    2.522663   -0.389089
    120          1           0       10.394429    2.086421   -2.560766
    121          1           0       11.135081    0.641694   -1.965917
    122          1           0       12.555839    3.353201   -1.373303
    123          1           0       12.215446    2.994069   -3.009395
    124          1           0       13.344821    0.547796   -1.632084
    125          1           0       14.254936    0.076564   -3.464033
    126          1           0       15.044137    1.717062   -3.745514
    127          1           0       13.403069    1.285712   -4.194447
    128          1           0       14.362074    2.710016   -0.300729
    129          1           0       15.318695    2.880365   -1.758149
    130          1           0       16.845275    1.281381   -1.033969
    131          1           0       15.640034    0.177790   -1.086930
    132          1           0       15.808833    2.179837    1.249740
    133          1           0       17.095946    1.130642    1.052490
    134          1           0       15.292296   -0.828037    1.131195
    135          1           0       13.354641    1.342719    1.244746
    136          1           0       13.176549    0.271397    2.512353
    137          1           0       13.287298   -0.446993    0.875493
    138          1           0       14.989595    0.882702    3.693590
    139          1           0       16.663315    0.301481    3.094276
    140          1           0       15.187123   -0.802156    3.539209
 ---------------------------------------------------------------------

 SCF Done:  E(RB-LYP) =  -3007.36556854     A.U. after   21 cycles

 Excitation energies and oscillator strengths:

 Excited State   1:      Singlet-A      1.8046 eV  687.03 nm  f=0.3185  <S**2>=0.000
     245 -> 248       -0.19878
     246 -> 247        0.68937
     246 <- 247       -0.15124
 This state for optimization and/or second-order correction.
 Total Energy, E(TD-HF/TD-DFT) =  -3007.29924922
 Copying the excited state density for this state as the 1-particle RhoCI density.

 Excited State   2:      Singlet-A      1.9113 eV  648.68 nm  f=0.0277  <S**2>=0.000
     243 -> 247        0.34145
     244 -> 247        0.37115
     245 -> 247        0.47340
     246 -> 248        0.13079

 Excited State   3:      Singlet-A      1.9545 eV  634.35 nm  f=0.0052  <S**2>=0.000
     243 -> 247       -0.32731
     244 -> 247        0.58753
     245 -> 247       -0.20324

 Excited State   4:      Singlet-A      2.0580 eV  602.45 nm  f=0.0403  <S**2>=0.000
     243 -> 247        0.52012
     244 -> 247        0.12282
     245 -> 247       -0.40483
     246 -> 248       -0.19704

 Excited State   5:      Singlet-A      2.4629 eV  503.40 nm  f=0.0002  <S**2>=0.000
     241 -> 247        0.70469

 The electronic state is 1-A.
 Alpha  occ. eigenvalues --  -46.27304 -18.81775 -18.80168 -18.76554 -18.75771
 Alpha  occ. eigenvalues --  -18.75678 -18.75195 -14.03474 -14.02875 -14.00964
 Alpha  occ. eigenvalues --  -14.00467 -10.03969 -10.02581  -9.99455  -9.99151
 Alpha  occ. eigenvalues --   -9.98324  -9.96578  -9.96564  -9.96447  -9.96254
 Alpha  occ. eigenvalues --   -9.95844  -9.95585  -9.95213  -9.95099  -9.94020
 Alpha  occ. eigenvalues --   -9.93910  -9.93772  -9.93757  -9.93737  -9.93715
 Alpha  occ. eigenvalues --   -9.93645  -9.93644  -9.93623  -9.93502  -9.93043
 Alpha  occ. eigenvalues --   -9.92921  -9.92858  -9.92679  -9.92594  -9.92496
 Alpha  occ. eigenvalues --   -9.92433  -9.92425  -9.92279  -9.92129  -9.92076
 Alpha  occ. eigenvalues --   -9.91980  -9.91896  -9.91876  -9.91826  -9.91738
 Alpha  occ. eigenvalues --   -9.91422  -9.91395  -9.91384  -9.91056  -9.91011
 Alpha  occ. eigenvalues --   -9.91004  -9.90974  -9.90972  -9.90963  -9.90734
 Alpha  occ. eigenvalues --   -9.90704  -9.90699  -9.90687  -9.90679  -9.90643
 Alpha  occ. eigenvalues --   -9.90151  -2.91901  -1.72337  -1.71780  -1.71607
 Alpha  occ. eigenvalues --   -0.96972  -0.96701  -0.91641  -0.91499  -0.88976
 Alpha  occ. eigenvalues --   -0.88831  -0.87320  -0.86777  -0.86216  -0.84601
 Alpha  occ. eigenvalues --   -0.75324  -0.74408  -0.72879  -0.72753  -0.72413
 Alpha  occ. eigenvalues --   -0.72103  -0.71318  -0.70798  -0.70615  -0.70573
 Alpha  occ. eigenvalues --   -0.70050  -0.68840  -0.68265  -0.67308  -0.66868
 Alpha  occ. eigenvalues --   -0.66467  -0.65609  -0.64811  -0.64497  -0.64166
 Alpha  occ. eigenvalues --   -0.64036  -0.62706  -0.62140  -0.61723  -0.60701
 Alpha  occ. eigenvalues --   -0.60326  -0.60267  -0.59754  -0.59438  -0.58845
 Alpha  occ. eigenvalues --   -0.58093  -0.57330  -0.56662  -0.55066  -0.54203
 Alpha  occ. eigenvalues --   -0.53898  -0.53650  -0.52885  -0.51996  -0.51700
 Alpha  occ. eigenvalues --   -0.51619  -0.50919  -0.50437  -0.50094  -0.49805
 Alpha  occ. eigenvalues --   -0.49299  -0.49013  -0.48938  -0.47002  -0.46666
 Alpha  occ. eigenvalues --   -0.46288  -0.45927  -0.45423  -0.44958  -0.44456
 Alpha  occ. eigenvalues --   -0.43768  -0.43375  -0.43039  -0.42898  -0.42344
 Alpha  occ. eigenvalues --   -0.41706  -0.41658  -0.41515  -0.40982  -0.40811
 Alpha  occ. eigenvalues --   -0.40536  -0.40360  -0.40246  -0.40096  -0.39963
 Alpha  occ. eigenvalues --   -0.39754  -0.39673  -0.39470  -0.39182  -0.39137
 Alpha  occ. eigenvalues --   -0.38852  -0.38421  -0.38354  -0.38280  -0.38146
 Alpha  occ. eigenvalues --   -0.38082  -0.37896  -0.37444  -0.37424  -0.37301
 Alpha  occ. eigenvalues --   -0.37015  -0.36830  -0.36556  -0.36321  -0.36253
 Alpha  occ. eigenvalues --   -0.36058  -0.35956  -0.35817  -0.35579  -0.35527
 Alpha  occ. eigenvalues --   -0.35347  -0.35245  -0.35092  -0.34647  -0.34614
 Alpha  occ. eigenvalues --   -0.34560  -0.34336  -0.34171  -0.33710  -0.33652
 Alpha  occ. eigenvalues --   -0.33527  -0.33403  -0.33372  -0.33266  -0.33178
 Alpha  occ. eigenvalues --   -0.32849  -0.32557  -0.32454  -0.32323  -0.32001
 Alpha  occ. eigenvalues --   -0.31904  -0.31760  -0.31601  -0.31443  -0.31225
 Alpha  occ. eigenvalues --   -0.31025  -0.30970  -0.30928  -0.30757  -0.30649
 Alpha  occ. eigenvalues --   -0.30481  -0.30385  -0.30216  -0.29960  -0.29887
 Alpha  occ. eigenvalues --   -0.29721  -0.29432  -0.29203  -0.29121  -0.28829
 Alpha  occ. eigenvalues --   -0.28685  -0.28315  -0.28214  -0.27922  -0.27557
 Alpha  occ. eigenvalues --   -0.27322  -0.27234  -0.27184  -0.26997  -0.26284
 Alpha  occ. eigenvalues --   -0.26166  -0.25878  -0.25690  -0.25588  -0.24847
 Alpha  occ. eigenvalues --   -0.24568  -0.23838  -0.23605  -0.23587  -0.23423
 Alpha  occ. eigenvalues --   -0.23309  -0.22166  -0.21804  -0.21159  -0.20826
 Alpha  occ. eigenvalues --   -0.20378  -0.19962  -0.18540  -0.18382  -0.16962
 Alpha  occ. eigenvalues --   -0.15579
 Alpha virt. eigenvalues --   -0.11333  -0.06604  -0.06169  -0.04488  -0.02908
 Alpha virt. eigenvalues --   -0.02598  -0.01973  -0.01297  -0.00765   0.00332
 Alpha virt. eigenvalues --    0.01423   0.01736   0.02057   0.02550   0.03145

 Mulliken charges:
               1
     1  Mg   0.696146
     2  C    0.062570
     3  C   -0.066718
     4  C   -0.020240
     5  C   -0.101955
     6  N   -0.210147
     7  C   -0.098244
     8  C    0.035754
     9  C   -0.013149
    10  C    0.086212
    11  C    0.125210
    12  C    0.101273
    13  C    0.113952
    14  C    0.087809
    15  O   -0.187839
    16  O   -0.284191
    17  N   -0.254008
    18  C    0.084235
    19  C   -0.133716
    20  C    0.079010
    21  C    0.088223
    22  C    0.184376
    23  C   -0.113842
    24  O   -0.156490
    25  C    0.121224
    26  N   -0.164202
    27  C   -0.048095
    28  C    0.012777
    29  C    0.080985
    30  C    0.034983
    31  C    0.101598
    32  C    0.066480
    33  C    0.065097
    34  N   -0.274961
    35  C    0.122725
    36  C   -0.191236
    37  C    0.091657
    38  C    0.057630
    39  C    0.199529
    40  C   -0.059240
    41  O   -0.109239
    42  C   -0.013358
    43  C    0.100069
    44  O   -0.140594
    45  O   -0.299129
    46  C    0.220934
    47  C    0.302222
    48  C   -0.069914
    49  C   -0.161980
    50  C    0.157369
    51  C    0.112223
    52  C    0.114607
    53  C    0.132965
    54  C   -0.132839
    55  C    0.136375
    56  C    0.147870
    57  C    0.048477
    58  C    0.127099
    59  C   -0.077468
    60  C    0.094718
    61  C    0.132931
    62  C    0.091578
    63  C    0.040587
    64  C   -0.091740
    65  C    0.078733
    66  C    0.141214
    67  H   -0.068608
    68  H   -0.039748
    69  H   -0.074602
    70  H   -0.030139
    71  H   -0.027049
    72  H   -0.004533
    73  H   -0.009578
    74  H   -0.002309
    75  H   -0.021482
    76  H    0.018563
    77  H   -0.002758
    78  H   -0.014864
    79  H   -0.023679
    80  H   -0.011665
    81  H    0.008384
    82  H   -0.003182
    83  H   -0.023071
    84  H    0.018200
    85  H   -0.012050
    86  H   -0.020174
    87  H   -0.002501
    88  H   -0.006875
    89  H   -0.010960
    90  H   -0.021132
    91  H   -0.017444
    92  H    0.004714
    93  H   -0.014732
    94  H   -0.011736
    95  H    0.013711
    96  H    0.001489
    97  H   -0.003734
    98  H    0.007915
    99  H    0.009092
   100  H    0.054092
   101  H   -0.000919
   102  H    0.015941
   103  H   -0.023830
   104  H   -0.037561
   105  H   -0.008548
   106  H   -0.035007
   107  H    0.020679
   108  H   -0.055249
   109  H   -0.016906
   110  H   -0.044787
   111  H   -0.047008
   112  H   -0.030080
   113  H   -0.025628
   114  H   -0.031364
   115  H   -0.015470
   116  H   -0.011768
   117  H   -0.046119
   118  H   -0.040455
   119  H   -0.041860
   120  H   -0.040642
   121  H   -0.033058
   122  H   -0.035544
   123  H   -0.042811
   124  H   -0.028950
   125  H   -0.025391
   126  H   -0.006551
   127  H   -0.032446
   128  H   -0.027475
   129  H   -0.035565
   130  H   -0.046961
   131  H   -0.046649
   132  H   -0.042025
   133  H   -0.043626
   134  H   -0.037809
   135  H   -0.009017
   136  H   -0.026127
   137  H    0.005341
   138  H   -0.012778
   139  H   -0.000672
   140  H   -0.017762
 Sum of Mulliken charges =  -0.00000

 Dipole moment (field-independent basis, Debye):
    X=              2.1373    Y=              1.9454    Z=              1.5813  Tot=              3.2944
 Quadrupole moment (field-independent basis, Debye-Ang):
   XX=           -370.2554   YY=           -414.8869   ZZ=           -407.8037
   XY=              4.6067   XZ=             -1.4996   YZ=              9.1544

 Normal termination of Gaussian 16 at Fri Apr 29 17:42:30 2022.
