 Gaussian 16, Revision A.03,
 Gaussian 16:  ES64L-G16RevA.03 25-Dec-2016

 -----------------------------------
 #p cam-b3lyp/Def2SVP td=(nstates=5)
 -----------------------------------

 -------------------------------------------------------
 step_401_chromophore_22 TDDFT with cam-b3lyp functional
 -------------------------------------------------------
 Symbolic Z-matrix:
 Charge =  0 Multiplicity = 1

                         Standard orientation:
 ---------------------------------------------------------------------
 Center     Atomic      Atomic             Coordinates (Angstroms)
 Number     Number       Type             X           Y           Z
 ---------------------------------------------------------------------
      1         12           0       -6.206204    0.577391    0.036763
      2          6           0       -3.735312   -1.804485    0.637143
      3          6           0       -4.070200    3.051721    0.933054
      4          6           0       -8.726075    2.675067   -0.440276
      5          6           0       -8.578975   -2.106444    0.071183
      6          7           0       -4.144737    0.581964    0.538800
      7          6           0       -3.321892   -0.455244    0.784911
      8          6           0       -1.944786   -0.033829    1.328687
      9          6           0       -2.266282    1.446707    1.703194
     10          6           0       -3.606341    1.734461    1.040598
     11          6           0       -2.391354    1.599112    3.267847
     12          6           0       -0.805610   -0.164914    0.312628
     13          6           0        0.301603   -1.119687    0.753038
     14          6           0        1.352332   -1.398989   -0.390741
     15          8           0        1.056292   -1.736395   -1.521381
     16          8           0        2.661100   -1.436089    0.044737
     17          7           0       -6.334731    2.652976    0.187093
     18          6           0       -5.334325    3.494937    0.476468
     19          6           0       -5.838367    4.856109    0.392990
     20          6           0       -7.156720    4.748353   -0.073713
     21          6           0       -7.457903    3.314355   -0.127501
     22          6           0       -5.046103    6.103809    0.631209
     23          6           0       -8.148435    5.772856   -0.416635
     24          8           0       -9.223691    5.491831   -0.912102
     25          6           0       -7.692086    7.242258   -0.385518
     26          7           0       -8.404103    0.293603    0.008143
     27          6           0       -9.172434    1.295769   -0.372588
     28          6           0      -10.587676    0.840623   -0.761177
     29          6           0      -10.492619   -0.733079   -0.652343
     30          6           0       -9.072962   -0.865813   -0.196205
     31          6           0      -11.732196    1.508321    0.141410
     32          6           0      -10.862407   -1.442627   -1.996411
     33          6           0      -11.754988   -2.671879   -1.913020
     34          7           0       -6.175141   -1.510281    0.177770
     35          6           0       -7.225281   -2.422986    0.258750
     36          6           0       -6.722545   -3.806470    0.332932
     37          6           0       -5.303513   -3.599854    0.539665
     38          6           0       -5.048998   -2.222655    0.485908
     39          6           0       -7.519529   -5.021758    0.253821
     40          6           0       -4.036281   -4.298724    0.664948
     41          8           0       -3.786479   -5.477074    0.817903
     42          6           0       -2.986580   -3.117893    0.804808
     43          6           0       -2.040826   -3.429743   -0.304608
     44          8           0       -1.919993   -2.874007   -1.355939
     45          8           0       -1.207933   -4.435847    0.122547
     46          6           0        0.033040   -4.655735   -0.711642
     47          6           0        3.679719   -1.782681   -1.020031
     48          6           0        5.094033   -1.420332   -0.445018
     49          6           0        6.169547   -2.250083   -0.220662
     50          6           0        6.193893   -3.785373   -0.405069
     51          6           0        7.405081   -1.780932    0.491028
     52          6           0        8.529587   -1.271647   -0.342431
     53          6           0        8.732418    0.207399   -0.359830
     54          6           0       10.128205    0.585606    0.257825
     55          6           0       10.074848    0.725674    1.775417
     56          6           0       10.542287    1.867804   -0.377814
     57          6           0       11.074208    1.716919   -1.793517
     58          6           0       12.410967    2.511514   -2.051905
     59          6           0       13.618771    1.540784   -1.986890
     60          6           0       14.163305    1.162057   -3.423306
     61          6           0       14.800194    2.155923   -1.130587
     62          6           0       15.817196    1.176068   -0.686462
     63          6           0       16.020696    1.175405    0.883485
     64          6           0       15.153936    0.103679    1.680181
     65          6           0       13.658026    0.336856    1.536075
     66          6           0       15.587920    0.140046    3.165628
     67          1           0       -3.432976    3.892609    1.215382
     68          1           0       -9.533481    3.246688   -0.901477
     69          1           0       -9.190344   -3.001803   -0.055830
     70          1           0       -1.793771   -0.687134    2.188295
     71          1           0       -1.459945    2.048559    1.284271
     72          1           0       -1.577603    2.222956    3.638430
     73          1           0       -2.320053    0.653371    3.803676
     74          1           0       -3.373748    2.027416    3.466937
     75          1           0       -0.300627    0.766628    0.056499
     76          1           0       -1.242564   -0.583977   -0.594115
     77          1           0       -0.179423   -2.087953    0.893745
     78          1           0        0.667305   -0.733350    1.704572
     79          1           0       -4.076875    5.990091    1.115665
     80          1           0       -5.611342    6.685802    1.359675
     81          1           0       -4.865266    6.733582   -0.240611
     82          1           0       -7.490637    7.488002    0.657323
     83          1           0       -8.575130    7.802285   -0.692818
     84          1           0       -6.928687    7.533320   -1.105251
     85          1           0      -10.764338    1.191423   -1.777699
     86          1           0      -11.157504   -1.094325    0.132729
     87          1           0      -11.287515    2.232097    0.823701
     88          1           0      -12.386121    0.858436    0.723822
     89          1           0      -12.399432    2.117099   -0.468387
     90          1           0       -9.979856   -1.860351   -2.482278
     91          1           0      -11.318486   -0.760545   -2.714283
     92          1           0      -11.184622   -3.500185   -2.333217
     93          1           0      -12.632611   -2.426802   -2.510628
     94          1           0      -12.186214   -2.820638   -0.923070
     95          1           0       -7.013106   -5.920129    0.606920
     96          1           0       -7.946883   -5.095826   -0.746261
     97          1           0       -8.388217   -4.850640    0.889929
     98          1           0       -2.449676   -3.133962    1.753155
     99          1           0        0.812407   -4.140086   -0.150945
    100          1           0       -0.101225   -4.390862   -1.760877
    101          1           0        0.320051   -5.688145   -0.513401
    102          1           0        3.453619   -1.378936   -2.006946
    103          1           0        3.631158   -2.858925   -1.187512
    104          1           0        5.208475   -0.381727   -0.131893
    105          1           0        6.793569   -4.004843   -1.288687
    106          1           0        5.237554   -4.115859   -0.809815
    107          1           0        6.545776   -4.284226    0.499099
    108          1           0        7.825877   -2.652607    0.992723
    109          1           0        7.075800   -1.150357    1.317359
    110          1           0        8.416072   -1.715606   -1.331160
    111          1           0        9.431978   -1.770739    0.010274
    112          1           0        7.970199    0.659841    0.274620
    113          1           0        8.638853    0.464004   -1.415487
    114          1           0       10.868436   -0.192504    0.074956
    115          1           0        9.970749    1.762590    2.093301
    116          1           0       10.835060    0.185255    2.339731
    117          1           0        9.159066    0.192661    2.031885
    118          1           0       11.323645    2.348112    0.211712
    119          1           0        9.670997    2.522663   -0.389089
    120          1           0       10.394429    2.086421   -2.560766
    121          1           0       11.135081    0.641694   -1.965917
    122          1           0       12.555839    3.353201   -1.373303
    123          1           0       12.215446    2.994069   -3.009395
    124          1           0       13.344821    0.547796   -1.632084
    125          1           0       14.254936    0.076564   -3.464033
    126          1           0       15.044137    1.717062   -3.745514
    127          1           0       13.403069    1.285712   -4.194447
    128          1           0       14.362074    2.710016   -0.300729
    129          1           0       15.318695    2.880365   -1.758149
    130          1           0       16.845275    1.281381   -1.033969
    131          1           0       15.640034    0.177790   -1.086930
    132          1           0       15.808833    2.179837    1.249740
    133          1           0       17.095946    1.130642    1.052490
    134          1           0       15.292296   -0.828037    1.131195
    135          1           0       13.354641    1.342719    1.244746
    136          1           0       13.176549    0.271397    2.512353
    137          1           0       13.287298   -0.446993    0.875493
    138          1           0       14.989595    0.882702    3.693590
    139          1           0       16.663315    0.301481    3.094276
    140          1           0       15.187123   -0.802156    3.539209
 ---------------------------------------------------------------------

 SCF Done:  E(RCAM-B3LYP) =  -3007.16814668     A.U. after   17 cycles

 Excitation energies and oscillator strengths:

 Excited State   1:      Singlet-A      1.6955 eV  731.25 nm  f=0.3982  <S**2>=0.000
     245 -> 248        0.18888
     246 -> 247        0.68406
     245 <- 248        0.11123
 This state for optimization and/or second-order correction.
 Total Energy, E(TD-HF/TD-DFT) =  -3007.10583777
 Copying the excited state density for this state as the 1-particle RhoCI density.

 Excited State   2:      Singlet-A      2.2094 eV  561.17 nm  f=0.1075  <S**2>=0.000
     245 -> 247        0.63959
     246 -> 248       -0.29077

 Excited State   3:      Singlet-A      3.3105 eV  374.52 nm  f=0.0005  <S**2>=0.000
     243 -> 247       -0.13010
     244 -> 247        0.65573
     246 -> 248        0.12316

 Excited State   4:      Singlet-A      3.4843 eV  355.83 nm  f=0.3421  <S**2>=0.000
     240 -> 247        0.11826
     241 -> 247        0.38011
     241 -> 249       -0.12993
     244 -> 247       -0.15095
     245 -> 247        0.21132
     246 -> 248        0.46371

 Excited State   5:      Singlet-A      3.5140 eV  352.83 nm  f=0.1608  <S**2>=0.000
     239 -> 247       -0.17299
     241 -> 247        0.33534
     241 -> 249       -0.22514
     241 -> 250       -0.12642
     243 -> 247       -0.32742
     245 -> 247       -0.13397
     246 -> 248       -0.33072

 The electronic state is 1-A.
 Alpha  occ. eigenvalues --  -46.88803 -19.24636 -19.23042 -19.19525 -19.18899
 Alpha  occ. eigenvalues --  -19.18847 -19.18495 -14.42301 -14.41701 -14.39390
 Alpha  occ. eigenvalues --  -14.38815 -10.39312 -10.37969 -10.34784 -10.34394
 Alpha  occ. eigenvalues --  -10.32554 -10.31088 -10.30876 -10.30674 -10.30604
 Alpha  occ. eigenvalues --  -10.30219 -10.29842 -10.29472 -10.29320 -10.28341
 Alpha  occ. eigenvalues --  -10.28281 -10.28169 -10.27959 -10.27857 -10.27838
 Alpha  occ. eigenvalues --  -10.27796 -10.27735 -10.27684 -10.27505 -10.27096
 Alpha  occ. eigenvalues --  -10.26985 -10.26936 -10.26711 -10.26415 -10.26299
 Alpha  occ. eigenvalues --  -10.26154 -10.26130 -10.26116 -10.26096 -10.26005
 Alpha  occ. eigenvalues --  -10.25906 -10.25755 -10.25742 -10.25608 -10.25582
 Alpha  occ. eigenvalues --  -10.25314 -10.25100 -10.25071 -10.25068 -10.24698
 Alpha  occ. eigenvalues --  -10.24659 -10.24646 -10.24630 -10.24575 -10.24381
 Alpha  occ. eigenvalues --  -10.24356 -10.24326 -10.24303 -10.24289 -10.24250
 Alpha  occ. eigenvalues --  -10.23746  -3.17303  -1.92217  -1.91756  -1.91602
 Alpha  occ. eigenvalues --   -1.15439  -1.15283  -1.10142  -1.09883  -1.06764
 Alpha  occ. eigenvalues --   -1.06698  -1.05047  -1.04463  -1.03827  -1.02088
 Alpha  occ. eigenvalues --   -0.92446  -0.91324  -0.89696  -0.89553  -0.89059
 Alpha  occ. eigenvalues --   -0.88828  -0.87953  -0.87557  -0.87134  -0.87113
 Alpha  occ. eigenvalues --   -0.86588  -0.85201  -0.84562  -0.83407  -0.82995
 Alpha  occ. eigenvalues --   -0.82571  -0.81660  -0.80737  -0.80504  -0.79976
 Alpha  occ. eigenvalues --   -0.79823  -0.78507  -0.77774  -0.77201  -0.76091
 Alpha  occ. eigenvalues --   -0.75666  -0.75606  -0.75017  -0.74714  -0.74076
 Alpha  occ. eigenvalues --   -0.73136  -0.72312  -0.71543  -0.69875  -0.68786
 Alpha  occ. eigenvalues --   -0.68522  -0.68302  -0.67321  -0.66318  -0.65856
 Alpha  occ. eigenvalues --   -0.65688  -0.65135  -0.64494  -0.64024  -0.63826
 Alpha  occ. eigenvalues --   -0.63251  -0.62861  -0.62725  -0.60627  -0.60337
 Alpha  occ. eigenvalues --   -0.59895  -0.59431  -0.58979  -0.58311  -0.57807
 Alpha  occ. eigenvalues --   -0.57407  -0.56748  -0.56303  -0.56060  -0.55456
 Alpha  occ. eigenvalues --   -0.54901  -0.54483  -0.54369  -0.53712  -0.53617
 Alpha  occ. eigenvalues --   -0.53451  -0.53098  -0.52950  -0.52904  -0.52669
 Alpha  occ. eigenvalues --   -0.52496  -0.52385  -0.52190  -0.52036  -0.51814
 Alpha  occ. eigenvalues --   -0.51580  -0.51175  -0.51002  -0.50652  -0.50554
 Alpha  occ. eigenvalues --   -0.50436  -0.50236  -0.50146  -0.49773  -0.49595
 Alpha  occ. eigenvalues --   -0.49546  -0.49048  -0.49011  -0.48775  -0.48379
 Alpha  occ. eigenvalues --   -0.48328  -0.48218  -0.48018  -0.47913  -0.47602
 Alpha  occ. eigenvalues --   -0.47487  -0.47344  -0.46980  -0.46590  -0.46530
 Alpha  occ. eigenvalues --   -0.46339  -0.46309  -0.46030  -0.45685  -0.45483
 Alpha  occ. eigenvalues --   -0.45274  -0.45159  -0.45146  -0.44987  -0.44941
 Alpha  occ. eigenvalues --   -0.44570  -0.44216  -0.44046  -0.44037  -0.43595
 Alpha  occ. eigenvalues --   -0.43533  -0.43387  -0.43339  -0.42990  -0.42870
 Alpha  occ. eigenvalues --   -0.42564  -0.42441  -0.42407  -0.42335  -0.42240
 Alpha  occ. eigenvalues --   -0.41944  -0.41653  -0.41600  -0.41342  -0.41015
 Alpha  occ. eigenvalues --   -0.40954  -0.40901  -0.40578  -0.40498  -0.40177
 Alpha  occ. eigenvalues --   -0.39843  -0.39343  -0.39119  -0.39107  -0.38411
 Alpha  occ. eigenvalues --   -0.38210  -0.38097  -0.38038  -0.37866  -0.37490
 Alpha  occ. eigenvalues --   -0.36930  -0.36794  -0.36508  -0.36304  -0.36016
 Alpha  occ. eigenvalues --   -0.35133  -0.35077  -0.34425  -0.34192  -0.33976
 Alpha  occ. eigenvalues --   -0.33788  -0.33384  -0.33056  -0.31091  -0.30626
 Alpha  occ. eigenvalues --   -0.30397  -0.30232  -0.30027  -0.29074  -0.23670
 Alpha  occ. eigenvalues --   -0.20826
 Alpha virt. eigenvalues --   -0.08425  -0.01440   0.00313   0.02441   0.03134
 Alpha virt. eigenvalues --    0.04560   0.05158   0.05848   0.06354   0.06883
 Alpha virt. eigenvalues --    0.08293   0.08564   0.08645   0.09084   0.09486

 Mulliken charges:
               1
     1  Mg   0.828707
     2  C    0.036327
     3  C   -0.072625
     4  C   -0.038623
     5  C   -0.101762
     6  N   -0.283713
     7  C   -0.049144
     8  C   -0.013791
     9  C   -0.069086
    10  C    0.094184
    11  C    0.070128
    12  C    0.046945
    13  C    0.051837
    14  C    0.165187
    15  O   -0.227620
    16  O   -0.348504
    17  N   -0.344414
    18  C    0.093342
    19  C   -0.136915
    20  C    0.004458
    21  C    0.113463
    22  C    0.122953
    23  C   -0.032280
    24  O   -0.197657
    25  C    0.038161
    26  N   -0.234144
    27  C   -0.025408
    28  C   -0.040150
    29  C    0.021334
    30  C    0.048726
    31  C    0.044652
    32  C    0.013993
    33  C    0.001382
    34  N   -0.360413
    35  C    0.124067
    36  C   -0.176910
    37  C    0.013522
    38  C    0.089226
    39  C    0.135068
    40  C    0.040315
    41  O   -0.146093
    42  C   -0.088654
    43  C    0.180462
    44  O   -0.175904
    45  O   -0.361083
    46  C    0.184057
    47  C    0.273132
    48  C   -0.091166
    49  C   -0.181359
    50  C    0.094978
    51  C    0.046390
    52  C    0.060185
    53  C    0.072387
    54  C   -0.183040
    55  C    0.079580
    56  C    0.091363
    57  C   -0.003744
    58  C    0.070302
    59  C   -0.127553
    60  C    0.037601
    61  C    0.074699
    62  C    0.034281
    63  C   -0.008898
    64  C   -0.142819
    65  C    0.021768
    66  C    0.077591
    67  H   -0.033323
    68  H   -0.000058
    69  H   -0.038903
    70  H    0.004492
    71  H    0.008260
    72  H    0.019313
    73  H    0.014649
    74  H    0.023675
    75  H    0.008537
    76  H    0.052306
    77  H    0.020184
    78  H    0.020231
    79  H    0.005910
    80  H    0.014430
    81  H    0.034580
    82  H    0.024785
    83  H    0.014247
    84  H    0.046413
    85  H    0.021861
    86  H    0.014179
    87  H    0.023297
    88  H    0.017165
    89  H    0.013160
    90  H    0.009083
    91  H    0.011047
    92  H    0.026673
    93  H    0.009823
    94  H    0.011219
    95  H    0.042968
    96  H    0.028172
    97  H    0.021386
    98  H    0.049137
    99  H    0.026493
   100  H    0.079774
   101  H    0.024605
   102  H    0.045692
   103  H    0.002786
   104  H   -0.004297
   105  H    0.016343
   106  H   -0.009412
   107  H    0.043856
   108  H   -0.020996
   109  H    0.012638
   110  H   -0.014107
   111  H   -0.015713
   112  H   -0.001888
   113  H    0.004752
   114  H   -0.004158
   115  H    0.010218
   116  H    0.011475
   117  H   -0.022778
   118  H   -0.013779
   119  H   -0.011758
   120  H   -0.010896
   121  H   -0.006479
   122  H   -0.006082
   123  H   -0.011793
   124  H   -0.001101
   125  H   -0.001486
   126  H    0.016435
   127  H   -0.007082
   128  H   -0.001834
   129  H   -0.005842
   130  H   -0.014755
   131  H   -0.018098
   132  H   -0.013864
   133  H   -0.014010
   134  H   -0.006935
   135  H    0.009308
   136  H   -0.002658
   137  H    0.025126
   138  H    0.010500
   139  H    0.022010
   140  H    0.007618
 Sum of Mulliken charges =  -0.00000

 Dipole moment (field-independent basis, Debye):
    X=              2.1427    Y=              2.5412    Z=              1.6299  Tot=              3.7021
 Quadrupole moment (field-independent basis, Debye-Ang):
   XX=           -368.5347   YY=           -409.6455   ZZ=           -407.9062
   XY=              0.8735   XZ=             -1.6692   YZ=              9.6854

 Normal termination of Gaussian 16 at Fri Apr 29 16:45:09 2022.
