 Gaussian 16, Revision A.03,
 Gaussian 16:  ES64L-G16RevA.03 25-Dec-2016

 ---------------------------------
 #p PBE1PBE/Def2SVP td=(nstates=5)
 ---------------------------------

 -----------------------------------------------------
 step_401_chromophore_22 TDDFT with PBE1PBE functional
 -----------------------------------------------------
 Symbolic Z-matrix:
 Charge =  0 Multiplicity = 1

                         Standard orientation:
 ---------------------------------------------------------------------
 Center     Atomic      Atomic             Coordinates (Angstroms)
 Number     Number       Type             X           Y           Z
 ---------------------------------------------------------------------
      1         12           0       -6.206204    0.577391    0.036763
      2          6           0       -3.735312   -1.804485    0.637143
      3          6           0       -4.070200    3.051721    0.933054
      4          6           0       -8.726075    2.675067   -0.440276
      5          6           0       -8.578975   -2.106444    0.071183
      6          7           0       -4.144737    0.581964    0.538800
      7          6           0       -3.321892   -0.455244    0.784911
      8          6           0       -1.944786   -0.033829    1.328687
      9          6           0       -2.266282    1.446707    1.703194
     10          6           0       -3.606341    1.734461    1.040598
     11          6           0       -2.391354    1.599112    3.267847
     12          6           0       -0.805610   -0.164914    0.312628
     13          6           0        0.301603   -1.119687    0.753038
     14          6           0        1.352332   -1.398989   -0.390741
     15          8           0        1.056292   -1.736395   -1.521381
     16          8           0        2.661100   -1.436089    0.044737
     17          7           0       -6.334731    2.652976    0.187093
     18          6           0       -5.334325    3.494937    0.476468
     19          6           0       -5.838367    4.856109    0.392990
     20          6           0       -7.156720    4.748353   -0.073713
     21          6           0       -7.457903    3.314355   -0.127501
     22          6           0       -5.046103    6.103809    0.631209
     23          6           0       -8.148435    5.772856   -0.416635
     24          8           0       -9.223691    5.491831   -0.912102
     25          6           0       -7.692086    7.242258   -0.385518
     26          7           0       -8.404103    0.293603    0.008143
     27          6           0       -9.172434    1.295769   -0.372588
     28          6           0      -10.587676    0.840623   -0.761177
     29          6           0      -10.492619   -0.733079   -0.652343
     30          6           0       -9.072962   -0.865813   -0.196205
     31          6           0      -11.732196    1.508321    0.141410
     32          6           0      -10.862407   -1.442627   -1.996411
     33          6           0      -11.754988   -2.671879   -1.913020
     34          7           0       -6.175141   -1.510281    0.177770
     35          6           0       -7.225281   -2.422986    0.258750
     36          6           0       -6.722545   -3.806470    0.332932
     37          6           0       -5.303513   -3.599854    0.539665
     38          6           0       -5.048998   -2.222655    0.485908
     39          6           0       -7.519529   -5.021758    0.253821
     40          6           0       -4.036281   -4.298724    0.664948
     41          8           0       -3.786479   -5.477074    0.817903
     42          6           0       -2.986580   -3.117893    0.804808
     43          6           0       -2.040826   -3.429743   -0.304608
     44          8           0       -1.919993   -2.874007   -1.355939
     45          8           0       -1.207933   -4.435847    0.122547
     46          6           0        0.033040   -4.655735   -0.711642
     47          6           0        3.679719   -1.782681   -1.020031
     48          6           0        5.094033   -1.420332   -0.445018
     49          6           0        6.169547   -2.250083   -0.220662
     50          6           0        6.193893   -3.785373   -0.405069
     51          6           0        7.405081   -1.780932    0.491028
     52          6           0        8.529587   -1.271647   -0.342431
     53          6           0        8.732418    0.207399   -0.359830
     54          6           0       10.128205    0.585606    0.257825
     55          6           0       10.074848    0.725674    1.775417
     56          6           0       10.542287    1.867804   -0.377814
     57          6           0       11.074208    1.716919   -1.793517
     58          6           0       12.410967    2.511514   -2.051905
     59          6           0       13.618771    1.540784   -1.986890
     60          6           0       14.163305    1.162057   -3.423306
     61          6           0       14.800194    2.155923   -1.130587
     62          6           0       15.817196    1.176068   -0.686462
     63          6           0       16.020696    1.175405    0.883485
     64          6           0       15.153936    0.103679    1.680181
     65          6           0       13.658026    0.336856    1.536075
     66          6           0       15.587920    0.140046    3.165628
     67          1           0       -3.432976    3.892609    1.215382
     68          1           0       -9.533481    3.246688   -0.901477
     69          1           0       -9.190344   -3.001803   -0.055830
     70          1           0       -1.793771   -0.687134    2.188295
     71          1           0       -1.459945    2.048559    1.284271
     72          1           0       -1.577603    2.222956    3.638430
     73          1           0       -2.320053    0.653371    3.803676
     74          1           0       -3.373748    2.027416    3.466937
     75          1           0       -0.300627    0.766628    0.056499
     76          1           0       -1.242564   -0.583977   -0.594115
     77          1           0       -0.179423   -2.087953    0.893745
     78          1           0        0.667305   -0.733350    1.704572
     79          1           0       -4.076875    5.990091    1.115665
     80          1           0       -5.611342    6.685802    1.359675
     81          1           0       -4.865266    6.733582   -0.240611
     82          1           0       -7.490637    7.488002    0.657323
     83          1           0       -8.575130    7.802285   -0.692818
     84          1           0       -6.928687    7.533320   -1.105251
     85          1           0      -10.764338    1.191423   -1.777699
     86          1           0      -11.157504   -1.094325    0.132729
     87          1           0      -11.287515    2.232097    0.823701
     88          1           0      -12.386121    0.858436    0.723822
     89          1           0      -12.399432    2.117099   -0.468387
     90          1           0       -9.979856   -1.860351   -2.482278
     91          1           0      -11.318486   -0.760545   -2.714283
     92          1           0      -11.184622   -3.500185   -2.333217
     93          1           0      -12.632611   -2.426802   -2.510628
     94          1           0      -12.186214   -2.820638   -0.923070
     95          1           0       -7.013106   -5.920129    0.606920
     96          1           0       -7.946883   -5.095826   -0.746261
     97          1           0       -8.388217   -4.850640    0.889929
     98          1           0       -2.449676   -3.133962    1.753155
     99          1           0        0.812407   -4.140086   -0.150945
    100          1           0       -0.101225   -4.390862   -1.760877
    101          1           0        0.320051   -5.688145   -0.513401
    102          1           0        3.453619   -1.378936   -2.006946
    103          1           0        3.631158   -2.858925   -1.187512
    104          1           0        5.208475   -0.381727   -0.131893
    105          1           0        6.793569   -4.004843   -1.288687
    106          1           0        5.237554   -4.115859   -0.809815
    107          1           0        6.545776   -4.284226    0.499099
    108          1           0        7.825877   -2.652607    0.992723
    109          1           0        7.075800   -1.150357    1.317359
    110          1           0        8.416072   -1.715606   -1.331160
    111          1           0        9.431978   -1.770739    0.010274
    112          1           0        7.970199    0.659841    0.274620
    113          1           0        8.638853    0.464004   -1.415487
    114          1           0       10.868436   -0.192504    0.074956
    115          1           0        9.970749    1.762590    2.093301
    116          1           0       10.835060    0.185255    2.339731
    117          1           0        9.159066    0.192661    2.031885
    118          1           0       11.323645    2.348112    0.211712
    119          1           0        9.670997    2.522663   -0.389089
    120          1           0       10.394429    2.086421   -2.560766
    121          1           0       11.135081    0.641694   -1.965917
    122          1           0       12.555839    3.353201   -1.373303
    123          1           0       12.215446    2.994069   -3.009395
    124          1           0       13.344821    0.547796   -1.632084
    125          1           0       14.254936    0.076564   -3.464033
    126          1           0       15.044137    1.717062   -3.745514
    127          1           0       13.403069    1.285712   -4.194447
    128          1           0       14.362074    2.710016   -0.300729
    129          1           0       15.318695    2.880365   -1.758149
    130          1           0       16.845275    1.281381   -1.033969
    131          1           0       15.640034    0.177790   -1.086930
    132          1           0       15.808833    2.179837    1.249740
    133          1           0       17.095946    1.130642    1.052490
    134          1           0       15.292296   -0.828037    1.131195
    135          1           0       13.354641    1.342719    1.244746
    136          1           0       13.176549    0.271397    2.512353
    137          1           0       13.287298   -0.446993    0.875493
    138          1           0       14.989595    0.882702    3.693590
    139          1           0       16.663315    0.301481    3.094276
    140          1           0       15.187123   -0.802156    3.539209
 ---------------------------------------------------------------------

 SCF Done:  E(RPBE1PBE) =  -3005.35689567     A.U. after   15 cycles

 Excitation energies and oscillator strengths:

 Excited State   1:      Singlet-A      1.8536 eV  668.88 nm  f=0.3864  <S**2>=0.000
     245 -> 248       -0.18232
     246 -> 247        0.69162
     246 <- 247       -0.10802
 This state for optimization and/or second-order correction.
 Total Energy, E(TD-HF/TD-DFT) =  -3005.28877664
 Copying the excited state density for this state as the 1-particle RhoCI density.

 Excited State   2:      Singlet-A      2.2105 eV  560.89 nm  f=0.1032  <S**2>=0.000
     245 -> 247        0.65197
     246 -> 248        0.26120

 Excited State   3:      Singlet-A      2.9340 eV  422.58 nm  f=0.0033  <S**2>=0.000
     242 -> 247        0.12755
     243 -> 247        0.27877
     244 -> 247        0.60940

 Excited State   4:      Singlet-A      3.0468 eV  406.94 nm  f=0.0011  <S**2>=0.000
     242 -> 247        0.60333
     242 -> 249        0.13397
     243 -> 247       -0.28870

 Excited State   5:      Singlet-A      3.0800 eV  402.55 nm  f=0.0054  <S**2>=0.000
     240 -> 247        0.17899
     242 -> 247        0.25059
     243 -> 247        0.51338
     244 -> 247       -0.32638

 The electronic state is 1-A.
 Alpha  occ. eigenvalues --  -46.92211 -19.25342 -19.23705 -19.19796 -19.19087
 Alpha  occ. eigenvalues --  -19.19070 -19.18672 -14.41839 -14.41161 -14.39018
 Alpha  occ. eigenvalues --  -14.38528 -10.36374 -10.34956 -10.31950 -10.31469
 Alpha  occ. eigenvalues --  -10.29973 -10.28842 -10.28617 -10.28404 -10.27923
 Alpha  occ. eigenvalues --  -10.27837 -10.27573 -10.27147 -10.27097 -10.25975
 Alpha  occ. eigenvalues --  -10.25973 -10.25860 -10.25818 -10.25566 -10.25515
 Alpha  occ. eigenvalues --  -10.25514 -10.25500 -10.25362 -10.25278 -10.24931
 Alpha  occ. eigenvalues --  -10.24595 -10.24387 -10.24294 -10.24136 -10.23808
 Alpha  occ. eigenvalues --  -10.23753 -10.23710 -10.23627 -10.23612 -10.23600
 Alpha  occ. eigenvalues --  -10.23513 -10.23473 -10.23265 -10.23261 -10.22846
 Alpha  occ. eigenvalues --  -10.22834 -10.22768 -10.22766 -10.22653 -10.22292
 Alpha  occ. eigenvalues --  -10.22233 -10.22228 -10.22101 -10.22017 -10.21931
 Alpha  occ. eigenvalues --  -10.21909 -10.21850 -10.21694 -10.21654 -10.21650
 Alpha  occ. eigenvalues --  -10.21273  -3.14293  -1.87147  -1.86664  -1.86514
 Alpha  occ. eigenvalues --   -1.10228  -1.10014  -1.04835  -1.04650  -1.01641
 Alpha  occ. eigenvalues --   -1.01517  -0.99690  -0.99110  -0.98512  -0.96788
 Alpha  occ. eigenvalues --   -0.86822  -0.85437  -0.83910  -0.83676  -0.83375
 Alpha  occ. eigenvalues --   -0.82922  -0.82273  -0.81818  -0.81470  -0.81228
 Alpha  occ. eigenvalues --   -0.80910  -0.79434  -0.78746  -0.77694  -0.77247
 Alpha  occ. eigenvalues --   -0.76802  -0.75951  -0.74898  -0.74714  -0.74329
 Alpha  occ. eigenvalues --   -0.73973  -0.72776  -0.72049  -0.71513  -0.70235
 Alpha  occ. eigenvalues --   -0.69980  -0.69692  -0.69358  -0.68859  -0.68230
 Alpha  occ. eigenvalues --   -0.67448  -0.66767  -0.65993  -0.64203  -0.63165
 Alpha  occ. eigenvalues --   -0.62802  -0.62644  -0.61819  -0.60567  -0.60293
 Alpha  occ. eigenvalues --   -0.60119  -0.59349  -0.59081  -0.58618  -0.57916
 Alpha  occ. eigenvalues --   -0.57386  -0.57286  -0.57048  -0.55209  -0.54855
 Alpha  occ. eigenvalues --   -0.54361  -0.53870  -0.53535  -0.52956  -0.52465
 Alpha  occ. eigenvalues --   -0.51754  -0.51211  -0.50854  -0.50481  -0.49892
 Alpha  occ. eigenvalues --   -0.49509  -0.48973  -0.48813  -0.48232  -0.48051
 Alpha  occ. eigenvalues --   -0.48002  -0.47699  -0.47416  -0.47350  -0.47249
 Alpha  occ. eigenvalues --   -0.47039  -0.46907  -0.46669  -0.46553  -0.46411
 Alpha  occ. eigenvalues --   -0.45982  -0.45721  -0.45622  -0.45215  -0.45086
 Alpha  occ. eigenvalues --   -0.45080  -0.44787  -0.44724  -0.44360  -0.44176
 Alpha  occ. eigenvalues --   -0.44147  -0.43614  -0.43580  -0.43388  -0.43022
 Alpha  occ. eigenvalues --   -0.42919  -0.42862  -0.42613  -0.42555  -0.42191
 Alpha  occ. eigenvalues --   -0.42067  -0.42006  -0.41603  -0.41365  -0.41223
 Alpha  occ. eigenvalues --   -0.41020  -0.40951  -0.40687  -0.40425  -0.40249
 Alpha  occ. eigenvalues --   -0.40000  -0.39926  -0.39881  -0.39766  -0.39577
 Alpha  occ. eigenvalues --   -0.39370  -0.39026  -0.38817  -0.38635  -0.38378
 Alpha  occ. eigenvalues --   -0.38321  -0.38188  -0.38037  -0.37761  -0.37584
 Alpha  occ. eigenvalues --   -0.37357  -0.37229  -0.37141  -0.37076  -0.36988
 Alpha  occ. eigenvalues --   -0.36839  -0.36454  -0.36352  -0.36204  -0.35878
 Alpha  occ. eigenvalues --   -0.35812  -0.35609  -0.35367  -0.35329  -0.35087
 Alpha  occ. eigenvalues --   -0.34782  -0.34200  -0.34054  -0.33884  -0.33195
 Alpha  occ. eigenvalues --   -0.33159  -0.32871  -0.32785  -0.32651  -0.32500
 Alpha  occ. eigenvalues --   -0.31826  -0.31756  -0.31478  -0.31369  -0.30922
 Alpha  occ. eigenvalues --   -0.30039  -0.30000  -0.29605  -0.29010  -0.28929
 Alpha  occ. eigenvalues --   -0.28765  -0.28695  -0.28077  -0.26696  -0.25790
 Alpha  occ. eigenvalues --   -0.25521  -0.25393  -0.25334  -0.24712  -0.20634
 Alpha  occ. eigenvalues --   -0.18484
 Alpha virt. eigenvalues --   -0.10903  -0.04940  -0.03900  -0.01919   0.00065
 Alpha virt. eigenvalues --    0.00329   0.00635   0.01613   0.02355   0.02977
 Alpha virt. eigenvalues --    0.04359   0.04783   0.04978   0.05471   0.06132

 Mulliken charges:
               1
     1  Mg   0.976669
     2  C    0.032244
     3  C   -0.057177
     4  C   -0.031673
     5  C   -0.081007
     6  N   -0.393198
     7  C    0.025523
     8  C   -0.083351
     9  C   -0.150043
    10  C    0.118225
    11  C    0.017220
    12  C    0.005783
    13  C   -0.037003
    14  C    0.233047
    15  O   -0.257951
    16  O   -0.377569
    17  N   -0.466744
    18  C    0.124217
    19  C   -0.167267
    20  C   -0.053788
    21  C    0.153649
    22  C    0.064259
    23  C    0.022788
    24  O   -0.235500
    25  C   -0.037572
    26  N   -0.337536
    27  C    0.011843
    28  C   -0.113918
    29  C   -0.055482
    30  C    0.076965
    31  C   -0.011281
    32  C   -0.040104
    33  C   -0.070860
    34  N   -0.477934
    35  C    0.138304
    36  C   -0.187290
    37  C   -0.025177
    38  C    0.127647
    39  C    0.073719
    40  C    0.133783
    41  O   -0.190757
    42  C   -0.196734
    43  C    0.264868
    44  O   -0.212287
    45  O   -0.389806
    46  C    0.126656
    47  C    0.227950
    48  C   -0.102841
    49  C   -0.219499
    50  C    0.028528
    51  C   -0.021774
    52  C    0.004564
    53  C    0.013069
    54  C   -0.275062
    55  C    0.019194
    56  C    0.034925
    57  C   -0.064192
    58  C    0.015714
    59  C   -0.211260
    60  C   -0.017459
    61  C    0.014266
    62  C   -0.020112
    63  C   -0.064468
    64  C   -0.233692
    65  C   -0.036401
    66  C    0.008813
    67  H   -0.000060
    68  H    0.032196
    69  H   -0.006322
    70  H    0.041775
    71  H    0.043339
    72  H    0.046719
    73  H    0.041676
    74  H    0.051980
    75  H    0.041203
    76  H    0.085334
    77  H    0.061583
    78  H    0.052276
    79  H    0.032914
    80  H    0.043181
    81  H    0.061629
    82  H    0.052316
    83  H    0.042574
    84  H    0.072040
    85  H    0.057664
    86  H    0.051050
    87  H    0.051199
    88  H    0.043590
    89  H    0.040376
    90  H    0.041942
    91  H    0.042851
    92  H    0.053014
    93  H    0.038253
    94  H    0.038087
    95  H    0.070551
    96  H    0.056540
    97  H    0.049267
    98  H    0.084051
    99  H    0.050612
   100  H    0.099495
   101  H    0.047335
   102  H    0.071366
   103  H    0.031203
   104  H    0.026159
   105  H    0.045225
   106  H    0.019529
   107  H    0.069366
   108  H    0.012822
   109  H    0.043168
   110  H    0.019356
   111  H    0.016220
   112  H    0.031052
   113  H    0.037700
   114  H    0.034674
   115  H    0.037279
   116  H    0.040121
   117  H    0.008676
   118  H    0.020058
   119  H    0.022546
   120  H    0.021487
   121  H    0.025682
   122  H    0.024730
   123  H    0.020374
   124  H    0.036535
   125  H    0.025332
   126  H    0.042435
   127  H    0.020998
   128  H    0.027854
   129  H    0.027884
   130  H    0.018054
   131  H    0.013333
   132  H    0.019504
   133  H    0.017772
   134  H    0.031145
   135  H    0.039813
   136  H    0.024526
   137  H    0.050415
   138  H    0.038652
   139  H    0.049175
   140  H    0.036890
 Sum of Mulliken charges =  -0.00000

 Dipole moment (field-independent basis, Debye):
    X=              2.0753    Y=              2.4349    Z=              1.6008  Tot=              3.5774
 Quadrupole moment (field-independent basis, Debye-Ang):
   XX=           -362.4778   YY=           -406.9969   ZZ=           -405.3599
   XY=              2.3120   XZ=             -1.0778   YZ=              9.9313

 Normal termination of Gaussian 16 at Fri Apr 29 17:01:14 2022.
