 Gaussian 16, Revision A.03,
 Gaussian 16:  ES64L-G16RevA.03 25-Dec-2016

 --------------------------------
 #p wB97XD/Def2SVP td=(nstates=5)
 --------------------------------

 ----------------------------------------------------
 step_401_chromophore_22 TDDFT with wB97XD functional
 ----------------------------------------------------
 Symbolic Z-matrix:
 Charge =  0 Multiplicity = 1

                         Standard orientation:
 ---------------------------------------------------------------------
 Center     Atomic      Atomic             Coordinates (Angstroms)
 Number     Number       Type             X           Y           Z
 ---------------------------------------------------------------------
      1         12           0       -6.206204    0.577391    0.036763
      2          6           0       -3.735312   -1.804485    0.637143
      3          6           0       -4.070200    3.051721    0.933054
      4          6           0       -8.726075    2.675067   -0.440276
      5          6           0       -8.578975   -2.106444    0.071183
      6          7           0       -4.144737    0.581964    0.538800
      7          6           0       -3.321892   -0.455244    0.784911
      8          6           0       -1.944786   -0.033829    1.328687
      9          6           0       -2.266282    1.446707    1.703194
     10          6           0       -3.606341    1.734461    1.040598
     11          6           0       -2.391354    1.599112    3.267847
     12          6           0       -0.805610   -0.164914    0.312628
     13          6           0        0.301603   -1.119687    0.753038
     14          6           0        1.352332   -1.398989   -0.390741
     15          8           0        1.056292   -1.736395   -1.521381
     16          8           0        2.661100   -1.436089    0.044737
     17          7           0       -6.334731    2.652976    0.187093
     18          6           0       -5.334325    3.494937    0.476468
     19          6           0       -5.838367    4.856109    0.392990
     20          6           0       -7.156720    4.748353   -0.073713
     21          6           0       -7.457903    3.314355   -0.127501
     22          6           0       -5.046103    6.103809    0.631209
     23          6           0       -8.148435    5.772856   -0.416635
     24          8           0       -9.223691    5.491831   -0.912102
     25          6           0       -7.692086    7.242258   -0.385518
     26          7           0       -8.404103    0.293603    0.008143
     27          6           0       -9.172434    1.295769   -0.372588
     28          6           0      -10.587676    0.840623   -0.761177
     29          6           0      -10.492619   -0.733079   -0.652343
     30          6           0       -9.072962   -0.865813   -0.196205
     31          6           0      -11.732196    1.508321    0.141410
     32          6           0      -10.862407   -1.442627   -1.996411
     33          6           0      -11.754988   -2.671879   -1.913020
     34          7           0       -6.175141   -1.510281    0.177770
     35          6           0       -7.225281   -2.422986    0.258750
     36          6           0       -6.722545   -3.806470    0.332932
     37          6           0       -5.303513   -3.599854    0.539665
     38          6           0       -5.048998   -2.222655    0.485908
     39          6           0       -7.519529   -5.021758    0.253821
     40          6           0       -4.036281   -4.298724    0.664948
     41          8           0       -3.786479   -5.477074    0.817903
     42          6           0       -2.986580   -3.117893    0.804808
     43          6           0       -2.040826   -3.429743   -0.304608
     44          8           0       -1.919993   -2.874007   -1.355939
     45          8           0       -1.207933   -4.435847    0.122547
     46          6           0        0.033040   -4.655735   -0.711642
     47          6           0        3.679719   -1.782681   -1.020031
     48          6           0        5.094033   -1.420332   -0.445018
     49          6           0        6.169547   -2.250083   -0.220662
     50          6           0        6.193893   -3.785373   -0.405069
     51          6           0        7.405081   -1.780932    0.491028
     52          6           0        8.529587   -1.271647   -0.342431
     53          6           0        8.732418    0.207399   -0.359830
     54          6           0       10.128205    0.585606    0.257825
     55          6           0       10.074848    0.725674    1.775417
     56          6           0       10.542287    1.867804   -0.377814
     57          6           0       11.074208    1.716919   -1.793517
     58          6           0       12.410967    2.511514   -2.051905
     59          6           0       13.618771    1.540784   -1.986890
     60          6           0       14.163305    1.162057   -3.423306
     61          6           0       14.800194    2.155923   -1.130587
     62          6           0       15.817196    1.176068   -0.686462
     63          6           0       16.020696    1.175405    0.883485
     64          6           0       15.153936    0.103679    1.680181
     65          6           0       13.658026    0.336856    1.536075
     66          6           0       15.587920    0.140046    3.165628
     67          1           0       -3.432976    3.892609    1.215382
     68          1           0       -9.533481    3.246688   -0.901477
     69          1           0       -9.190344   -3.001803   -0.055830
     70          1           0       -1.793771   -0.687134    2.188295
     71          1           0       -1.459945    2.048559    1.284271
     72          1           0       -1.577603    2.222956    3.638430
     73          1           0       -2.320053    0.653371    3.803676
     74          1           0       -3.373748    2.027416    3.466937
     75          1           0       -0.300627    0.766628    0.056499
     76          1           0       -1.242564   -0.583977   -0.594115
     77          1           0       -0.179423   -2.087953    0.893745
     78          1           0        0.667305   -0.733350    1.704572
     79          1           0       -4.076875    5.990091    1.115665
     80          1           0       -5.611342    6.685802    1.359675
     81          1           0       -4.865266    6.733582   -0.240611
     82          1           0       -7.490637    7.488002    0.657323
     83          1           0       -8.575130    7.802285   -0.692818
     84          1           0       -6.928687    7.533320   -1.105251
     85          1           0      -10.764338    1.191423   -1.777699
     86          1           0      -11.157504   -1.094325    0.132729
     87          1           0      -11.287515    2.232097    0.823701
     88          1           0      -12.386121    0.858436    0.723822
     89          1           0      -12.399432    2.117099   -0.468387
     90          1           0       -9.979856   -1.860351   -2.482278
     91          1           0      -11.318486   -0.760545   -2.714283
     92          1           0      -11.184622   -3.500185   -2.333217
     93          1           0      -12.632611   -2.426802   -2.510628
     94          1           0      -12.186214   -2.820638   -0.923070
     95          1           0       -7.013106   -5.920129    0.606920
     96          1           0       -7.946883   -5.095826   -0.746261
     97          1           0       -8.388217   -4.850640    0.889929
     98          1           0       -2.449676   -3.133962    1.753155
     99          1           0        0.812407   -4.140086   -0.150945
    100          1           0       -0.101225   -4.390862   -1.760877
    101          1           0        0.320051   -5.688145   -0.513401
    102          1           0        3.453619   -1.378936   -2.006946
    103          1           0        3.631158   -2.858925   -1.187512
    104          1           0        5.208475   -0.381727   -0.131893
    105          1           0        6.793569   -4.004843   -1.288687
    106          1           0        5.237554   -4.115859   -0.809815
    107          1           0        6.545776   -4.284226    0.499099
    108          1           0        7.825877   -2.652607    0.992723
    109          1           0        7.075800   -1.150357    1.317359
    110          1           0        8.416072   -1.715606   -1.331160
    111          1           0        9.431978   -1.770739    0.010274
    112          1           0        7.970199    0.659841    0.274620
    113          1           0        8.638853    0.464004   -1.415487
    114          1           0       10.868436   -0.192504    0.074956
    115          1           0        9.970749    1.762590    2.093301
    116          1           0       10.835060    0.185255    2.339731
    117          1           0        9.159066    0.192661    2.031885
    118          1           0       11.323645    2.348112    0.211712
    119          1           0        9.670997    2.522663   -0.389089
    120          1           0       10.394429    2.086421   -2.560766
    121          1           0       11.135081    0.641694   -1.965917
    122          1           0       12.555839    3.353201   -1.373303
    123          1           0       12.215446    2.994069   -3.009395
    124          1           0       13.344821    0.547796   -1.632084
    125          1           0       14.254936    0.076564   -3.464033
    126          1           0       15.044137    1.717062   -3.745514
    127          1           0       13.403069    1.285712   -4.194447
    128          1           0       14.362074    2.710016   -0.300729
    129          1           0       15.318695    2.880365   -1.758149
    130          1           0       16.845275    1.281381   -1.033969
    131          1           0       15.640034    0.177790   -1.086930
    132          1           0       15.808833    2.179837    1.249740
    133          1           0       17.095946    1.130642    1.052490
    134          1           0       15.292296   -0.828037    1.131195
    135          1           0       13.354641    1.342719    1.244746
    136          1           0       13.176549    0.271397    2.512353
    137          1           0       13.287298   -0.446993    0.875493
    138          1           0       14.989595    0.882702    3.693590
    139          1           0       16.663315    0.301481    3.094276
    140          1           0       15.187123   -0.802156    3.539209
 ---------------------------------------------------------------------

 SCF Done:  E(RwB97XD) =  -3007.86978672     A.U. after   19 cycles

 Excitation energies and oscillator strengths:

 Excited State   1:      Singlet-A      1.6358 eV  757.93 nm  f=0.3962  <S**2>=0.000
     245 -> 248        0.19461
     246 -> 247        0.68188
     245 <- 248        0.12080
 This state for optimization and/or second-order correction.
 Total Energy, E(TD-HF/TD-DFT) =  -3007.80967140
 Copying the excited state density for this state as the 1-particle RhoCI density.

 Excited State   2:      Singlet-A      2.1535 eV  575.72 nm  f=0.1043  <S**2>=0.000
     245 -> 247        0.63748
     246 -> 248       -0.29363

 Excited State   3:      Singlet-A      3.3253 eV  372.85 nm  f=0.0020  <S**2>=0.000
     243 -> 247        0.10262
     244 -> 247        0.65068
     244 -> 249       -0.10796
     246 -> 248        0.14958

 Excited State   4:      Singlet-A      3.5044 eV  353.80 nm  f=0.4656  <S**2>=0.000
     240 -> 247        0.10297
     241 -> 247        0.30821
     244 -> 247       -0.12911
     245 -> 247        0.24254
     246 -> 248        0.53141
     245 <- 247       -0.10312

 Excited State   5:      Singlet-A      3.5426 eV  349.98 nm  f=0.0543  <S**2>=0.000
     239 -> 247       -0.13287
     241 -> 247        0.32987
     241 -> 249       -0.23327
     241 -> 250        0.12753
     242 -> 247        0.23493
     242 -> 249       -0.11360
     243 -> 247        0.33457
     243 -> 249       -0.14188
     246 -> 248       -0.18969

 The electronic state is 1-A.
 Alpha  occ. eigenvalues --  -46.95143 -19.29893 -19.28270 -19.24449 -19.23900
 Alpha  occ. eigenvalues --  -19.23803 -19.23514 -14.46889 -14.46273 -14.43965
 Alpha  occ. eigenvalues --  -14.43427 -10.43151 -10.41794 -10.38811 -10.38347
 Alpha  occ. eigenvalues --  -10.36492 -10.35118 -10.34907 -10.34683 -10.34386
 Alpha  occ. eigenvalues --  -10.34270 -10.33811 -10.33494 -10.33348 -10.32486
 Alpha  occ. eigenvalues --  -10.32433 -10.32168 -10.32013 -10.31906 -10.31871
 Alpha  occ. eigenvalues --  -10.31785 -10.31755 -10.31729 -10.31552 -10.31210
 Alpha  occ. eigenvalues --  -10.30984 -10.30928 -10.30689 -10.30532 -10.30212
 Alpha  occ. eigenvalues --  -10.30161 -10.30036 -10.30024 -10.29983 -10.29978
 Alpha  occ. eigenvalues --  -10.29919 -10.29760 -10.29608 -10.29563 -10.29457
 Alpha  occ. eigenvalues --  -10.29138 -10.29127 -10.29052 -10.29040 -10.28639
 Alpha  occ. eigenvalues --  -10.28596 -10.28588 -10.28484 -10.28456 -10.28315
 Alpha  occ. eigenvalues --  -10.28276 -10.28229 -10.28149 -10.28139 -10.28086
 Alpha  occ. eigenvalues --  -10.27658  -3.21083  -1.94687  -1.94203  -1.94052
 Alpha  occ. eigenvalues --   -1.17601  -1.17422  -1.12349  -1.12129  -1.08976
 Alpha  occ. eigenvalues --   -1.08889  -1.07047  -1.06472  -1.05863  -1.04128
 Alpha  occ. eigenvalues --   -0.94428  -0.93104  -0.91534  -0.91348  -0.90934
 Alpha  occ. eigenvalues --   -0.90602  -0.89879  -0.89508  -0.89037  -0.88905
 Alpha  occ. eigenvalues --   -0.88530  -0.87078  -0.86405  -0.85277  -0.84887
 Alpha  occ. eigenvalues --   -0.84449  -0.83596  -0.82636  -0.82406  -0.81940
 Alpha  occ. eigenvalues --   -0.81650  -0.80456  -0.79692  -0.79108  -0.77927
 Alpha  occ. eigenvalues --   -0.77597  -0.77406  -0.76944  -0.76539  -0.75907
 Alpha  occ. eigenvalues --   -0.75061  -0.74303  -0.73515  -0.71813  -0.70721
 Alpha  occ. eigenvalues --   -0.70401  -0.70253  -0.69325  -0.68196  -0.67799
 Alpha  occ. eigenvalues --   -0.67601  -0.66989  -0.66506  -0.66027  -0.65616
 Alpha  occ. eigenvalues --   -0.65061  -0.64740  -0.64686  -0.62632  -0.62313
 Alpha  occ. eigenvalues --   -0.61845  -0.61369  -0.60968  -0.60284  -0.59815
 Alpha  occ. eigenvalues --   -0.59336  -0.58686  -0.58252  -0.57973  -0.57360
 Alpha  occ. eigenvalues --   -0.56902  -0.56392  -0.56259  -0.55596  -0.55521
 Alpha  occ. eigenvalues --   -0.55388  -0.55043  -0.54881  -0.54789  -0.54574
 Alpha  occ. eigenvalues --   -0.54421  -0.54291  -0.54057  -0.53950  -0.53752
 Alpha  occ. eigenvalues --   -0.53428  -0.53107  -0.52940  -0.52556  -0.52431
 Alpha  occ. eigenvalues --   -0.52364  -0.52134  -0.52100  -0.51729  -0.51518
 Alpha  occ. eigenvalues --   -0.51446  -0.50944  -0.50917  -0.50694  -0.50312
 Alpha  occ. eigenvalues --   -0.50213  -0.50134  -0.49952  -0.49819  -0.49513
 Alpha  occ. eigenvalues --   -0.49390  -0.49251  -0.48866  -0.48508  -0.48455
 Alpha  occ. eigenvalues --   -0.48220  -0.48186  -0.47933  -0.47611  -0.47410
 Alpha  occ. eigenvalues --   -0.47193  -0.47070  -0.47065  -0.46909  -0.46804
 Alpha  occ. eigenvalues --   -0.46489  -0.46188  -0.46005  -0.45894  -0.45515
 Alpha  occ. eigenvalues --   -0.45446  -0.45296  -0.45223  -0.44957  -0.44734
 Alpha  occ. eigenvalues --   -0.44519  -0.44389  -0.44318  -0.44208  -0.44108
 Alpha  occ. eigenvalues --   -0.43896  -0.43524  -0.43497  -0.43264  -0.42954
 Alpha  occ. eigenvalues --   -0.42875  -0.42757  -0.42438  -0.42371  -0.42076
 Alpha  occ. eigenvalues --   -0.41716  -0.41223  -0.41003  -0.40952  -0.40237
 Alpha  occ. eigenvalues --   -0.40127  -0.39924  -0.39872  -0.39706  -0.39427
 Alpha  occ. eigenvalues --   -0.38794  -0.38785  -0.38491  -0.38388  -0.37904
 Alpha  occ. eigenvalues --   -0.37074  -0.36957  -0.36419  -0.36113  -0.35819
 Alpha  occ. eigenvalues --   -0.35626  -0.35491  -0.35140  -0.33281  -0.32573
 Alpha  occ. eigenvalues --   -0.32457  -0.32280  -0.32189  -0.31243  -0.25595
 Alpha  occ. eigenvalues --   -0.22633
 Alpha virt. eigenvalues --   -0.06786   0.00473   0.02371   0.04579   0.06303
 Alpha virt. eigenvalues --    0.06756   0.07426   0.08378   0.09109   0.09173
 Alpha virt. eigenvalues --    0.11055   0.11617   0.11635   0.12307   0.12701

 Mulliken charges:
               1
     1  Mg   0.967887
     2  C    0.025481
     3  C   -0.078463
     4  C   -0.049218
     5  C   -0.099953
     6  N   -0.358777
     7  C   -0.005884
     8  C   -0.056207
     9  C   -0.122858
    10  C    0.110311
    11  C    0.026270
    12  C    0.013615
    13  C   -0.003764
    14  C    0.216146
    15  O   -0.253527
    16  O   -0.376756
    17  N   -0.430774
    18  C    0.113039
    19  C   -0.155834
    20  C   -0.043806
    21  C    0.140225
    22  C    0.076181
    23  C    0.016763
    24  O   -0.229624
    25  C   -0.024468
    26  N   -0.304077
    27  C   -0.000096
    28  C   -0.091456
    29  C   -0.029878
    30  C    0.068264
    31  C   -0.000433
    32  C   -0.028107
    33  C   -0.055729
    34  N   -0.445167
    35  C    0.132874
    36  C   -0.182754
    37  C   -0.027069
    38  C    0.118248
    39  C    0.083614
    40  C    0.116203
    41  O   -0.181847
    42  C   -0.157851
    43  C    0.242025
    44  O   -0.204229
    45  O   -0.389623
    46  C    0.142648
    47  C    0.245211
    48  C   -0.113740
    49  C   -0.208184
    50  C    0.045100
    51  C   -0.000646
    52  C    0.016740
    53  C    0.029424
    54  C   -0.234300
    55  C    0.033693
    56  C    0.053966
    57  C   -0.047998
    58  C    0.030180
    59  C   -0.179086
    60  C   -0.008018
    61  C    0.035128
    62  C   -0.010016
    63  C   -0.045641
    64  C   -0.202869
    65  C   -0.019687
    66  C    0.024567
    67  H   -0.007211
    68  H    0.027641
    69  H   -0.014703
    70  H    0.026651
    71  H    0.034150
    72  H    0.041715
    73  H    0.036283
    74  H    0.044849
    75  H    0.033568
    76  H    0.074634
    77  H    0.039965
    78  H    0.047683
    79  H    0.029780
    80  H    0.035865
    81  H    0.056691
    82  H    0.046116
    83  H    0.040814
    84  H    0.068000
    85  H    0.047821
    86  H    0.039021
    87  H    0.044149
    88  H    0.038703
    89  H    0.034914
    90  H    0.033067
    91  H    0.035194
    92  H    0.047899
    93  H    0.032514
    94  H    0.031682
    95  H    0.068746
    96  H    0.051575
    97  H    0.042821
    98  H    0.078372
    99  H    0.044202
   100  H    0.097635
   101  H    0.044696
   102  H    0.067583
   103  H    0.023091
   104  H    0.023525
   105  H    0.038808
   106  H    0.012196
   107  H    0.064727
   108  H    0.004670
   109  H    0.034985
   110  H    0.011325
   111  H    0.008119
   112  H    0.018914
   113  H    0.029834
   114  H    0.013511
   115  H    0.032465
   116  H    0.032778
   117  H   -0.001891
   118  H    0.005335
   119  H    0.013273
   120  H    0.014706
   121  H    0.013797
   122  H    0.016575
   123  H    0.013390
   124  H    0.017844
   125  H    0.020012
   126  H    0.036931
   127  H    0.014480
   128  H    0.014740
   129  H    0.019310
   130  H    0.011737
   131  H    0.003335
   132  H    0.008555
   133  H    0.009888
   134  H    0.020036
   135  H    0.023992
   136  H    0.016293
   137  H    0.044428
   138  H    0.031918
   139  H    0.043197
   140  H    0.030689
 Sum of Mulliken charges =  -0.00000

 Dipole moment (field-independent basis, Debye):
    X=              2.1605    Y=              2.5802    Z=              1.5993  Tot=              3.7260
 Quadrupole moment (field-independent basis, Debye-Ang):
   XX=           -363.1254   YY=           -404.9274   ZZ=           -405.0289
   XY=              0.7277   XZ=             -1.1850   YZ=              9.8879

 Normal termination of Gaussian 16 at Fri Apr 29 17:30:52 2022.
