 Gaussian 16, Revision A.03,
 Gaussian 16:  ES64L-G16RevA.03 25-Dec-2016

 --------------------
 #p ZINDO=(nstates=5)
 --------------------

 -----------------------------
 step_401_chromophore_22 ZINDO
 -----------------------------
 Symbolic Z-matrix:
 Charge =  0 Multiplicity = 1

                         Standard orientation:
 ---------------------------------------------------------------------
 Center     Atomic      Atomic             Coordinates (Angstroms)
 Number     Number       Type             X           Y           Z
 ---------------------------------------------------------------------
      1         12           0       -6.206204    0.577391    0.036763
      2          6           0       -3.735312   -1.804485    0.637143
      3          6           0       -4.070200    3.051721    0.933054
      4          6           0       -8.726075    2.675067   -0.440276
      5          6           0       -8.578975   -2.106444    0.071183
      6          7           0       -4.144737    0.581964    0.538800
      7          6           0       -3.321892   -0.455244    0.784911
      8          6           0       -1.944786   -0.033829    1.328687
      9          6           0       -2.266282    1.446707    1.703194
     10          6           0       -3.606341    1.734461    1.040598
     11          6           0       -2.391354    1.599112    3.267847
     12          6           0       -0.805610   -0.164914    0.312628
     13          6           0        0.301603   -1.119687    0.753038
     14          6           0        1.352332   -1.398989   -0.390741
     15          8           0        1.056292   -1.736395   -1.521381
     16          8           0        2.661100   -1.436089    0.044737
     17          7           0       -6.334731    2.652976    0.187093
     18          6           0       -5.334325    3.494937    0.476468
     19          6           0       -5.838367    4.856109    0.392990
     20          6           0       -7.156720    4.748353   -0.073713
     21          6           0       -7.457903    3.314355   -0.127501
     22          6           0       -5.046103    6.103809    0.631209
     23          6           0       -8.148435    5.772856   -0.416635
     24          8           0       -9.223691    5.491831   -0.912102
     25          6           0       -7.692086    7.242258   -0.385518
     26          7           0       -8.404103    0.293603    0.008143
     27          6           0       -9.172434    1.295769   -0.372588
     28          6           0      -10.587676    0.840623   -0.761177
     29          6           0      -10.492619   -0.733079   -0.652343
     30          6           0       -9.072962   -0.865813   -0.196205
     31          6           0      -11.732196    1.508321    0.141410
     32          6           0      -10.862407   -1.442627   -1.996411
     33          6           0      -11.754988   -2.671879   -1.913020
     34          7           0       -6.175141   -1.510281    0.177770
     35          6           0       -7.225281   -2.422986    0.258750
     36          6           0       -6.722545   -3.806470    0.332932
     37          6           0       -5.303513   -3.599854    0.539665
     38          6           0       -5.048998   -2.222655    0.485908
     39          6           0       -7.519529   -5.021758    0.253821
     40          6           0       -4.036281   -4.298724    0.664948
     41          8           0       -3.786479   -5.477074    0.817903
     42          6           0       -2.986580   -3.117893    0.804808
     43          6           0       -2.040826   -3.429743   -0.304608
     44          8           0       -1.919993   -2.874007   -1.355939
     45          8           0       -1.207933   -4.435847    0.122547
     46          6           0        0.033040   -4.655735   -0.711642
     47          6           0        3.679719   -1.782681   -1.020031
     48          6           0        5.094033   -1.420332   -0.445018
     49          6           0        6.169547   -2.250083   -0.220662
     50          6           0        6.193893   -3.785373   -0.405069
     51          6           0        7.405081   -1.780932    0.491028
     52          6           0        8.529587   -1.271647   -0.342431
     53          6           0        8.732418    0.207399   -0.359830
     54          6           0       10.128205    0.585606    0.257825
     55          6           0       10.074848    0.725674    1.775417
     56          6           0       10.542287    1.867804   -0.377814
     57          6           0       11.074208    1.716919   -1.793517
     58          6           0       12.410967    2.511514   -2.051905
     59          6           0       13.618771    1.540784   -1.986890
     60          6           0       14.163305    1.162057   -3.423306
     61          6           0       14.800194    2.155923   -1.130587
     62          6           0       15.817196    1.176068   -0.686462
     63          6           0       16.020696    1.175405    0.883485
     64          6           0       15.153936    0.103679    1.680181
     65          6           0       13.658026    0.336856    1.536075
     66          6           0       15.587920    0.140046    3.165628
     67          1           0       -3.432976    3.892609    1.215382
     68          1           0       -9.533481    3.246688   -0.901477
     69          1           0       -9.190344   -3.001803   -0.055830
     70          1           0       -1.793771   -0.687134    2.188295
     71          1           0       -1.459945    2.048559    1.284271
     72          1           0       -1.577603    2.222956    3.638430
     73          1           0       -2.320053    0.653371    3.803676
     74          1           0       -3.373748    2.027416    3.466937
     75          1           0       -0.300627    0.766628    0.056499
     76          1           0       -1.242564   -0.583977   -0.594115
     77          1           0       -0.179423   -2.087953    0.893745
     78          1           0        0.667305   -0.733350    1.704572
     79          1           0       -4.076875    5.990091    1.115665
     80          1           0       -5.611342    6.685802    1.359675
     81          1           0       -4.865266    6.733582   -0.240611
     82          1           0       -7.490637    7.488002    0.657323
     83          1           0       -8.575130    7.802285   -0.692818
     84          1           0       -6.928687    7.533320   -1.105251
     85          1           0      -10.764338    1.191423   -1.777699
     86          1           0      -11.157504   -1.094325    0.132729
     87          1           0      -11.287515    2.232097    0.823701
     88          1           0      -12.386121    0.858436    0.723822
     89          1           0      -12.399432    2.117099   -0.468387
     90          1           0       -9.979856   -1.860351   -2.482278
     91          1           0      -11.318486   -0.760545   -2.714283
     92          1           0      -11.184622   -3.500185   -2.333217
     93          1           0      -12.632611   -2.426802   -2.510628
     94          1           0      -12.186214   -2.820638   -0.923070
     95          1           0       -7.013106   -5.920129    0.606920
     96          1           0       -7.946883   -5.095826   -0.746261
     97          1           0       -8.388217   -4.850640    0.889929
     98          1           0       -2.449676   -3.133962    1.753155
     99          1           0        0.812407   -4.140086   -0.150945
    100          1           0       -0.101225   -4.390862   -1.760877
    101          1           0        0.320051   -5.688145   -0.513401
    102          1           0        3.453619   -1.378936   -2.006946
    103          1           0        3.631158   -2.858925   -1.187512
    104          1           0        5.208475   -0.381727   -0.131893
    105          1           0        6.793569   -4.004843   -1.288687
    106          1           0        5.237554   -4.115859   -0.809815
    107          1           0        6.545776   -4.284226    0.499099
    108          1           0        7.825877   -2.652607    0.992723
    109          1           0        7.075800   -1.150357    1.317359
    110          1           0        8.416072   -1.715606   -1.331160
    111          1           0        9.431978   -1.770739    0.010274
    112          1           0        7.970199    0.659841    0.274620
    113          1           0        8.638853    0.464004   -1.415487
    114          1           0       10.868436   -0.192504    0.074956
    115          1           0        9.970749    1.762590    2.093301
    116          1           0       10.835060    0.185255    2.339731
    117          1           0        9.159066    0.192661    2.031885
    118          1           0       11.323645    2.348112    0.211712
    119          1           0        9.670997    2.522663   -0.389089
    120          1           0       10.394429    2.086421   -2.560766
    121          1           0       11.135081    0.641694   -1.965917
    122          1           0       12.555839    3.353201   -1.373303
    123          1           0       12.215446    2.994069   -3.009395
    124          1           0       13.344821    0.547796   -1.632084
    125          1           0       14.254936    0.076564   -3.464033
    126          1           0       15.044137    1.717062   -3.745514
    127          1           0       13.403069    1.285712   -4.194447
    128          1           0       14.362074    2.710016   -0.300729
    129          1           0       15.318695    2.880365   -1.758149
    130          1           0       16.845275    1.281381   -1.033969
    131          1           0       15.640034    0.177790   -1.086930
    132          1           0       15.808833    2.179837    1.249740
    133          1           0       17.095946    1.130642    1.052490
    134          1           0       15.292296   -0.828037    1.131195
    135          1           0       13.354641    1.342719    1.244746
    136          1           0       13.176549    0.271397    2.512353
    137          1           0       13.287298   -0.446993    0.875493
    138          1           0       14.989595    0.882702    3.693590
    139          1           0       16.663315    0.301481    3.094276
    140          1           0       15.187123   -0.802156    3.539209
 ---------------------------------------------------------------------

 SCF Done:  E(RZINDO/S) =  -474.475647414     A.U. after   20 cycles

 Excitation energies and oscillator strengths:

 Excited State   1:      Singlet-A      1.2358 eV 1003.27 nm  f=0.6090  <S**2>=0.000
     175 ->178         0.20135
     176 ->177         0.65973
 This state for optimization and/or second-order correction.
 Total Energy, E(CIS/TDA) =  -474.430232654
 Copying the excited state density for this state as the 1-particle RhoCI density.

 Excited State   2:      Singlet-A      1.8875 eV  656.88 nm  f=0.0469  <S**2>=0.000
     175 ->177         0.55085
     176 ->178        -0.41700

 Excited State   3:      Singlet-A      2.8938 eV  428.45 nm  f=0.0140  <S**2>=0.000
     168 ->177         0.22767
     168 ->179         0.26663
     168 ->180         0.27318
     168 ->186        -0.13746
     169 ->179        -0.11204
     170 ->177         0.21246
     170 ->179         0.22486
     170 ->180         0.23284
     170 ->186        -0.11429

 Excited State   4:      Singlet-A      2.9523 eV  419.96 nm  f=0.4403  <S**2>=0.000
     169 ->177         0.11282
     169 ->180         0.11922
     173 ->177        -0.10032
     175 ->177         0.25653
     176 ->178         0.41140
     176 ->179         0.38381

 Excited State   5:      Singlet-A      2.9904 eV  414.60 nm  f=0.0239  <S**2>=0.000
     169 ->177         0.25801
     169 ->178        -0.13651
     169 ->179        -0.29320
     169 ->180         0.22250
     169 ->186         0.12142
     169 ->187         0.11440
     169 ->200         0.10046
     170 ->177         0.16577
     170 ->179        -0.17364
     170 ->180         0.15121
     176 ->179        -0.24570

 The electronic state is 1-A.
 Alpha  occ. eigenvalues --   -1.84350  -1.82181  -1.81675  -1.73157  -1.71986
 Alpha  occ. eigenvalues --   -1.69269  -1.68098  -1.62066  -1.59588  -1.57179
 Alpha  occ. eigenvalues --   -1.55044  -1.51326  -1.49934  -1.48835  -1.47722
 Alpha  occ. eigenvalues --   -1.43720  -1.42442  -1.39951  -1.39175  -1.38157
 Alpha  occ. eigenvalues --   -1.36469  -1.35023  -1.32702  -1.32390  -1.28513
 Alpha  occ. eigenvalues --   -1.27709  -1.24076  -1.21172  -1.20081  -1.18542
 Alpha  occ. eigenvalues --   -1.17084  -1.16375  -1.14995  -1.14320  -1.12823
 Alpha  occ. eigenvalues --   -1.11914  -1.11063  -1.10648  -1.04966  -1.03263
 Alpha  occ. eigenvalues --   -1.02396  -1.01701  -0.98639  -0.97700  -0.97012
 Alpha  occ. eigenvalues --   -0.95519  -0.94442  -0.93358  -0.92882  -0.91743
 Alpha  occ. eigenvalues --   -0.90468  -0.90216  -0.89733  -0.88356  -0.87421
 Alpha  occ. eigenvalues --   -0.86287  -0.83429  -0.82928  -0.82043  -0.80648
 Alpha  occ. eigenvalues --   -0.80104  -0.78957  -0.76918  -0.76178  -0.76168
 Alpha  occ. eigenvalues --   -0.75324  -0.75194  -0.74349  -0.73949  -0.73480
 Alpha  occ. eigenvalues --   -0.72972  -0.72789  -0.71841  -0.71266  -0.70501
 Alpha  occ. eigenvalues --   -0.70338  -0.69197  -0.69141  -0.68681  -0.68235
 Alpha  occ. eigenvalues --   -0.67591  -0.67272  -0.67161  -0.66240  -0.65835
 Alpha  occ. eigenvalues --   -0.65073  -0.64523  -0.64420  -0.63507  -0.63128
 Alpha  occ. eigenvalues --   -0.62902  -0.62214  -0.62107  -0.61845  -0.61495
 Alpha  occ. eigenvalues --   -0.61046  -0.60523  -0.60263  -0.59852  -0.59821
 Alpha  occ. eigenvalues --   -0.59466  -0.58956  -0.58798  -0.58242  -0.57825
 Alpha  occ. eigenvalues --   -0.57580  -0.57345  -0.56710  -0.56406  -0.56020
 Alpha  occ. eigenvalues --   -0.55420  -0.55288  -0.54752  -0.54476  -0.54372
 Alpha  occ. eigenvalues --   -0.53829  -0.53397  -0.53016  -0.52881  -0.52573
 Alpha  occ. eigenvalues --   -0.52341  -0.51928  -0.51730  -0.51232  -0.51134
 Alpha  occ. eigenvalues --   -0.50869  -0.50791  -0.50623  -0.50549  -0.50002
 Alpha  occ. eigenvalues --   -0.49796  -0.49711  -0.49414  -0.49237  -0.48926
 Alpha  occ. eigenvalues --   -0.48548  -0.48496  -0.48107  -0.47905  -0.47357
 Alpha  occ. eigenvalues --   -0.47058  -0.46907  -0.46663  -0.46508  -0.46471
 Alpha  occ. eigenvalues --   -0.46408  -0.46313  -0.45643  -0.45553  -0.45517
 Alpha  occ. eigenvalues --   -0.44937  -0.44490  -0.44330  -0.44138  -0.43954
 Alpha  occ. eigenvalues --   -0.43101  -0.42517  -0.42430  -0.41893  -0.41841
 Alpha  occ. eigenvalues --   -0.41742  -0.41028  -0.40465  -0.38504  -0.38312
 Alpha  occ. eigenvalues --   -0.37672  -0.37035  -0.34867  -0.34737  -0.34584
 Alpha  occ. eigenvalues --   -0.33183  -0.32242  -0.32176  -0.31503  -0.26117
 Alpha  occ. eigenvalues --   -0.21442
 Alpha virt. eigenvalues --   -0.08244  -0.01823  -0.00395   0.01304   0.02423
 Alpha virt. eigenvalues --    0.02461   0.03246   0.03825   0.04224   0.05387
 Alpha virt. eigenvalues --    0.06599   0.07563   0.08003   0.08254   0.08387

 Mulliken charges:
               1
     1  Mg   0.432104
     2  C   -0.055790
     3  C   -0.085435
     4  C   -0.081127
     5  C   -0.067121
     6  N   -0.269753
     7  C    0.136661
     8  C   -0.001874
     9  C   -0.001326
    10  C    0.131391
    11  C   -0.053612
    12  C   -0.022325
    13  C    0.003857
    14  C    0.457881
    15  O   -0.502596
    16  O   -0.276480
    17  N   -0.304814
    18  C    0.103601
    19  C    0.010175
    20  C   -0.042358
    21  C    0.133257
    22  C   -0.041831
    23  C    0.325113
    24  O   -0.520166
    25  C   -0.041396
    26  N   -0.256074
    27  C    0.141936
    28  C    0.001758
    29  C    0.003700
    30  C    0.131154
    31  C   -0.058533
    32  C   -0.032622
    33  C   -0.061802
    34  N   -0.341008
    35  C    0.087694
    36  C    0.035470
    37  C   -0.068470
    38  C    0.121730
    39  C   -0.027202
    40  C    0.334594
    41  O   -0.512493
    42  C    0.055358
    43  C    0.490291
    44  O   -0.512194
    45  O   -0.286026
    46  C    0.068443
    47  C    0.102475
    48  C   -0.100600
    49  C   -0.000619
    50  C   -0.049485
    51  C   -0.016099
    52  C   -0.023526
    53  C   -0.029651
    54  C   -0.007647
    55  C   -0.064507
    56  C   -0.027274
    57  C   -0.043321
    58  C   -0.036038
    59  C   -0.016067
    60  C   -0.067182
    61  C   -0.024531
    62  C   -0.038394
    63  C   -0.047139
    64  C   -0.016788
    65  C   -0.060385
    66  C   -0.062756
    67  H    0.025636
    68  H    0.046681
    69  H    0.026380
    70  H    0.028360
    71  H    0.033204
    72  H    0.019770
    73  H    0.022260
    74  H    0.027020
    75  H    0.026094
    76  H    0.044607
    77  H    0.047133
    78  H    0.034955
    79  H    0.019109
    80  H    0.023293
    81  H    0.033974
    82  H    0.035541
    83  H    0.025255
    84  H    0.046454
    85  H    0.037556
    86  H    0.036291
    87  H    0.023765
    88  H    0.024919
    89  H    0.018419
    90  H    0.019873
    91  H    0.022837
    92  H    0.029328
    93  H    0.014409
    94  H    0.022304
    95  H    0.039674
    96  H    0.038496
    97  H    0.022748
    98  H    0.054905
    99  H    0.035501
   100  H    0.074550
   101  H    0.029774
   102  H    0.061303
   103  H    0.038980
   104  H    0.029688
   105  H    0.026801
   106  H    0.020569
   107  H    0.040765
   108  H    0.007871
   109  H    0.022349
   110  H    0.014940
   111  H    0.010221
   112  H    0.027046
   113  H    0.023429
   114  H    0.022765
   115  H    0.023732
   116  H    0.023523
   117  H    0.008300
   118  H    0.011718
   119  H    0.016109
   120  H    0.011689
   121  H    0.021197
   122  H    0.020975
   123  H    0.017290
   124  H    0.028571
   125  H    0.015696
   126  H    0.028194
   127  H    0.010234
   128  H    0.020643
   129  H    0.015742
   130  H    0.012282
   131  H    0.016353
   132  H    0.013843
   133  H    0.012657
   134  H    0.024367
   135  H    0.023819
   136  H    0.011311
   137  H    0.020037
   138  H    0.026854
   139  H    0.034763
   140  H    0.020092
 Sum of Mulliken charges =  -0.00000

 Dipole moment (field-independent basis, Debye):
    X=              2.2190    Y=              4.1794    Z=              4.5368  Tot=              6.5554
 N-N= 4.230276810784D+03 E-N= 0.000000000000D+00  KE=-9.135752155033D+03
 Leave Link  601 at Fri Apr 29 17:42:36 2022, MaxMem=  6710886400 cpu:               0.9 elap:               0.1
 (Enter /sw/apps/gaussian-16.0/g16/l9999.exe)
 1\1\GINC-BP1-COMPUTE154\SP\RZINDO CIS\STO-3G\C55H74Mg1N4O6\OF15641\29-
 Apr-2022\0\\#p ZINDO=(nstates=5)\\step_401_chromophore_22 ZINDO\\0,1\M
 g,0,8.939,47.37,24.413\C,0,6.848,47.566,27.193\C,0,11.546,48.49,26.267
 \C,0,10.729,47.262,21.627\C,0,5.982,47.155,22.402\N,0,9.154,47.788,26.
 482\C,0,8.212,47.868,27.441\C,0,8.742,48.407,28.782\C,0,10.111,48.979,
 28.298\C,0,10.298,48.411,26.898\C,0,10.055,50.554,28.241\C,0,8.886,47.
 339,29.871\C,0,8.039,47.611,31.112\C,0,8.041,46.401,32.125\O,0,7.807,4

 Normal termination of Gaussian 16 at Fri Apr 29 17:42:36 2022.
