 Gaussian 16, Revision A.03,
 Gaussian 16:  ES64L-G16RevA.03 25-Dec-2016

 ------------------------------
 #p blyp/Def2SVP td=(nstates=5)
 ------------------------------

 --------------------------------------------------
 step_251_chromophore_18 TDDFT with blyp functional
 --------------------------------------------------
 Symbolic Z-matrix:
 Charge =  0 Multiplicity = 1

                         Standard orientation:
 ---------------------------------------------------------------------
 Center     Atomic      Atomic             Coordinates (Angstroms)
 Number     Number       Type             X           Y           Z
 ---------------------------------------------------------------------
      1         12           0        5.435809    1.159685    0.105315
      2          6           0        4.506375   -2.266583    0.367829
      3          6           0        2.098028    1.961780   -0.090767
      4          6           0        6.488312    4.277937   -0.190692
      5          6           0        8.870650    0.141835   -0.186525
      6          7           0        3.449997   -0.052698    0.066192
      7          6           0        3.391175   -1.415025    0.296226
      8          6           0        1.868304   -1.779579    0.359720
      9          6           0        1.060651   -0.387912    0.164915
     10          6           0        2.263020    0.551159    0.024407
     11          6           0        0.024266   -0.357901   -0.977665
     12          6           0        1.390283   -2.669115    1.580789
     13          6           0        0.735953   -3.971081    1.220251
     14          6           0       -0.012923   -4.201459   -0.065794
     15          8           0        0.230073   -5.036253   -0.942086
     16          8           0       -1.057926   -3.321820   -0.100090
     17          7           0        4.380265    2.973270    0.009289
     18          6           0        3.026754    3.071165   -0.069579
     19          6           0        2.726904    4.475869    0.037428
     20          6           0        3.954522    5.160324   -0.093331
     21          6           0        5.063227    4.151843   -0.126145
     22          6           0        1.264272    4.949378    0.081652
     23          6           0        4.151910    6.630410   -0.307953
     24          8           0        5.287035    7.114525   -0.530154
     25          6           0        2.971613    7.529456   -0.315382
     26          7           0        7.453640    2.032215   -0.219039
     27          6           0        7.591390    3.312308   -0.223621
     28          6           0        9.105307    3.888385   -0.281578
     29          6           0        9.848527    2.543972   -0.299765
     30          6           0        8.728016    1.535369   -0.232265
     31          6           0        9.283128    4.774206   -1.568760
     32          6           0       10.914364    2.307998    0.827437
     33          6           0       10.369393    2.056998    2.253527
     34          7           0        6.430498   -0.621629   -0.030748
     35          6           0        7.819660   -0.849286   -0.172235
     36          6           0        8.049604   -2.297016   -0.072591
     37          6           0        6.781283   -2.885907    0.147475
     38          6           0        5.824830   -1.816702    0.208408
     39          6           0        9.438046   -2.999490   -0.152366
     40          6           0        6.183671   -4.096666    0.355938
     41          8           0        6.616078   -5.231213    0.360235
     42          6           0        4.673765   -3.801068    0.576126
     43          6           0        3.910405   -4.608127   -0.347488
     44          8           0        3.613831   -4.272396   -1.499661
     45          8           0        3.765099   -5.902367    0.166008
     46          6           0        3.161462   -6.871374   -0.782007
     47          6           0       -2.033648   -3.620882   -1.163417
     48          6           0       -3.379815   -2.931698   -0.974234
     49          6           0       -4.576021   -3.516937   -0.696185
     50          6           0       -4.817727   -5.028424   -0.679772
     51          6           0       -5.794842   -2.627318   -0.381926
     52          6           0       -5.745691   -1.328177    0.494429
     53          6           0       -6.635003   -0.212483   -0.018658
     54          6           0       -7.787717    0.107162    0.970322
     55          6           0       -7.407176    0.833183    2.242848
     56          6           0       -9.026973    0.896274    0.290242
     57          6           0      -10.203091   -0.022611   -0.029914
     58          6           0      -11.239542   -0.174836    1.089921
     59          6           0      -12.477164    0.784743    0.913354
     60          6           0      -13.148493    1.046329    2.292256
     61          6           0      -13.475109    0.230792   -0.110416
     62          6           0      -14.326629    1.336852   -0.828841
     63          6           0      -15.816464    1.262244   -0.426242
     64          6           0      -16.602521    2.510913   -0.999277
     65          6           0      -17.180449    3.245299    0.247059
     66          6           0      -17.879679    2.070749   -1.852657
     67          1           0        1.117216    2.320806   -0.410654
     68          1           0        6.805879    5.289870   -0.451003
     69          1           0        9.897428   -0.221137   -0.266139
     70          1           0        1.843438   -2.470521   -0.481952
     71          1           0        0.455225   -0.207661    1.052099
     72          1           0       -0.958701   -0.075046   -0.598840
     73          1           0       -0.081670   -1.267352   -1.568842
     74          1           0        0.399335    0.416069   -1.647292
     75          1           0        0.713544   -2.097478    2.216196
     76          1           0        2.301836   -2.927346    2.119814
     77          1           0       -0.139646   -4.060933    1.864161
     78          1           0        1.471522   -4.762452    1.359965
     79          1           0        0.578255    4.140783    0.334995
     80          1           0        0.985911    5.370424   -0.883589
     81          1           0        1.251523    5.713848    0.857856
     82          1           0        2.474019    7.404505    0.646349
     83          1           0        2.255086    7.239273   -1.084769
     84          1           0        3.269500    8.552903   -0.539662
     85          1           0        9.349050    4.455237    0.617299
     86          1           0       10.247757    2.362992   -1.298007
     87          1           0        8.604905    4.390922   -2.331079
     88          1           0       10.300432    4.635953   -1.936624
     89          1           0        9.109038    5.846878   -1.480247
     90          1           0       11.681508    3.080046    0.777100
     91          1           0       11.503667    1.438117    0.539076
     92          1           0        9.438664    2.557368    2.518772
     93          1           0       11.170596    2.267271    2.962921
     94          1           0       10.225675    0.978166    2.311214
     95          1           0        9.609659   -3.703605    0.661869
     96          1           0       10.272109   -2.300904   -0.208456
     97          1           0        9.413334   -3.739866   -0.952345
     98          1           0        4.533474   -4.143226    1.600952
     99          1           0        3.849631   -7.087754   -1.598741
    100          1           0        2.251274   -6.520876   -1.267283
    101          1           0        2.799540   -7.703907   -0.178437
    102          1           0       -2.135470   -4.705635   -1.189059
    103          1           0       -1.564341   -3.364221   -2.114131
    104          1           0       -3.472613   -1.857540   -0.814317
    105          1           0       -5.822200   -5.433190   -0.798631
    106          1           0       -4.506507   -5.357808    0.311400
    107          1           0       -4.207615   -5.458299   -1.473861
    108          1           0       -6.510564   -3.312003    0.072606
    109          1           0       -6.223410   -2.257741   -1.313568
    110          1           0       -4.760283   -0.873100    0.588990
    111          1           0       -6.000961   -1.604838    1.517539
    112          1           0       -7.068407   -0.407428   -1.000473
    113          1           0       -6.032620    0.683568   -0.164112
    114          1           0       -8.224447   -0.876410    1.143743
    115          1           0       -7.810185    1.826417    2.439231
    116          1           0       -6.326118    0.968139    2.283453
    117          1           0       -7.785368    0.347945    3.142653
    118          1           0       -8.716850    1.266281   -0.686384
    119          1           0       -9.577165    1.659371    0.840361
    120          1           0       -9.917938   -1.018593   -0.369697
    121          1           0      -10.512038    0.536662   -0.912289
    122          1           0      -10.809844   -0.124547    2.089597
    123          1           0      -11.651793   -1.178037    0.975852
    124          1           0      -12.157318    1.774771    0.587295
    125          1           0      -12.704865    0.413477    3.060604
    126          1           0      -14.208550    0.853499    2.127355
    127          1           0      -13.019469    2.068333    2.649226
    128          1           0      -14.178781   -0.439179    0.385046
    129          1           0      -13.032426   -0.324028   -0.938127
    130          1           0      -14.318061    1.312849   -1.918295
    131          1           0      -14.027607    2.351626   -0.564468
    132          1           0      -15.801298    1.213612    0.661862
    133          1           0      -16.236606    0.366628   -0.883718
    134          1           0      -15.975422    3.201636   -1.562651
    135          1           0      -17.361169    4.168237   -0.302384
    136          1           0      -16.373537    3.356858    0.971714
    137          1           0      -18.095785    2.777453    0.609895
    138          1           0      -18.689349    1.652227   -1.254862
    139          1           0      -17.514598    1.342149   -2.576217
    140          1           0      -18.366814    2.797709   -2.502595
 ---------------------------------------------------------------------

 SCF Done:  E(RB-LYP) =  -3007.37137619     A.U. after   23 cycles

 Excitation energies and oscillator strengths:

 Excited State   1:      Singlet-A      1.8072 eV  686.06 nm  f=0.2830  <S**2>=0.000
     245 -> 248       -0.20853
     246 -> 247        0.67394
     246 <- 247       -0.13585
 This state for optimization and/or second-order correction.
 Total Energy, E(TD-HF/TD-DFT) =  -3007.30496303
 Copying the excited state density for this state as the 1-particle RhoCI density.

 Excited State   2:      Singlet-A      1.8836 eV  658.23 nm  f=0.0276  <S**2>=0.000
     243 -> 247        0.58330
     244 -> 247       -0.10334
     245 -> 247        0.35733
     246 -> 247       -0.10472

 Excited State   3:      Singlet-A      1.9089 eV  649.49 nm  f=0.0013  <S**2>=0.000
     243 -> 247        0.13073
     244 -> 247        0.69231

 Excited State   4:      Singlet-A      2.0234 eV  612.75 nm  f=0.0585  <S**2>=0.000
     243 -> 247       -0.36861
     245 -> 247        0.54349
     246 -> 248        0.23598

 Excited State   5:      Singlet-A      2.5146 eV  493.05 nm  f=0.0018  <S**2>=0.000
     240 -> 247        0.35324
     241 -> 247        0.52725
     242 -> 247       -0.30710

 The electronic state is 1-A.
 Alpha  occ. eigenvalues --  -46.28128 -18.82314 -18.80638 -18.77127 -18.75586
 Alpha  occ. eigenvalues --  -18.75045 -18.74778 -14.03608 -14.03052 -14.01365
 Alpha  occ. eigenvalues --  -14.01085 -10.04133 -10.02520  -9.99344  -9.98271
 Alpha  occ. eigenvalues --   -9.98077  -9.96990  -9.96811  -9.96765  -9.96423
 Alpha  occ. eigenvalues --   -9.96119  -9.96084  -9.95869  -9.95426  -9.94704
 Alpha  occ. eigenvalues --   -9.94621  -9.94291  -9.94229  -9.94224  -9.94063
 Alpha  occ. eigenvalues --   -9.93957  -9.93865  -9.93642  -9.93564  -9.93501
 Alpha  occ. eigenvalues --   -9.93369  -9.93272  -9.93100  -9.93025  -9.92939
 Alpha  occ. eigenvalues --   -9.92895  -9.92887  -9.92839  -9.92534  -9.92521
 Alpha  occ. eigenvalues --   -9.92471  -9.92449  -9.92414  -9.92303  -9.92271
 Alpha  occ. eigenvalues --   -9.92188  -9.92112  -9.91957  -9.91903  -9.91851
 Alpha  occ. eigenvalues --   -9.91324  -9.91305  -9.91169  -9.91120  -9.91119
 Alpha  occ. eigenvalues --   -9.91058  -9.90952  -9.90884  -9.90744  -9.90651
 Alpha  occ. eigenvalues --   -9.90355  -2.92566  -1.73001  -1.72504  -1.72223
 Alpha  occ. eigenvalues --   -0.98008  -0.95189  -0.91138  -0.89628  -0.89620
 Alpha  occ. eigenvalues --   -0.88224  -0.87786  -0.85785  -0.85221  -0.84424
 Alpha  occ. eigenvalues --   -0.75287  -0.73843  -0.73088  -0.73016  -0.72619
 Alpha  occ. eigenvalues --   -0.71913  -0.71244  -0.70801  -0.70357  -0.70184
 Alpha  occ. eigenvalues --   -0.69050  -0.68986  -0.68451  -0.67258  -0.66948
 Alpha  occ. eigenvalues --   -0.66311  -0.65771  -0.65316  -0.64777  -0.64475
 Alpha  occ. eigenvalues --   -0.64010  -0.62376  -0.62035  -0.61935  -0.61043
 Alpha  occ. eigenvalues --   -0.59996  -0.59807  -0.59663  -0.59639  -0.58942
 Alpha  occ. eigenvalues --   -0.58511  -0.57542  -0.56547  -0.55838  -0.55722
 Alpha  occ. eigenvalues --   -0.54384  -0.54176  -0.52512  -0.52121  -0.51394
 Alpha  occ. eigenvalues --   -0.51247  -0.50957  -0.50635  -0.50331  -0.50296
 Alpha  occ. eigenvalues --   -0.49451  -0.49266  -0.48351  -0.47259  -0.46288
 Alpha  occ. eigenvalues --   -0.46212  -0.45846  -0.45073  -0.44868  -0.44179
 Alpha  occ. eigenvalues --   -0.44047  -0.43523  -0.43239  -0.42811  -0.42555
 Alpha  occ. eigenvalues --   -0.42117  -0.41889  -0.41720  -0.41606  -0.41128
 Alpha  occ. eigenvalues --   -0.41023  -0.40320  -0.40239  -0.39997  -0.39858
 Alpha  occ. eigenvalues --   -0.39606  -0.39465  -0.39280  -0.39107  -0.39006
 Alpha  occ. eigenvalues --   -0.38684  -0.38629  -0.38437  -0.38147  -0.37814
 Alpha  occ. eigenvalues --   -0.37743  -0.37586  -0.37400  -0.37375  -0.37058
 Alpha  occ. eigenvalues --   -0.36975  -0.36819  -0.36805  -0.36568  -0.36374
 Alpha  occ. eigenvalues --   -0.36320  -0.36095  -0.35783  -0.35658  -0.35413
 Alpha  occ. eigenvalues --   -0.35173  -0.34825  -0.34679  -0.34674  -0.34507
 Alpha  occ. eigenvalues --   -0.34386  -0.34285  -0.34172  -0.33924  -0.33885
 Alpha  occ. eigenvalues --   -0.33744  -0.33547  -0.33434  -0.33262  -0.32972
 Alpha  occ. eigenvalues --   -0.32788  -0.32712  -0.32560  -0.32355  -0.32072
 Alpha  occ. eigenvalues --   -0.31939  -0.31654  -0.31477  -0.31431  -0.31234
 Alpha  occ. eigenvalues --   -0.31132  -0.31030  -0.30982  -0.30835  -0.30708
 Alpha  occ. eigenvalues --   -0.30543  -0.30434  -0.30133  -0.30055  -0.29965
 Alpha  occ. eigenvalues --   -0.29821  -0.29498  -0.29488  -0.29359  -0.29203
 Alpha  occ. eigenvalues --   -0.29009  -0.28512  -0.28415  -0.28207  -0.28116
 Alpha  occ. eigenvalues --   -0.27478  -0.27338  -0.27273  -0.26905  -0.26605
 Alpha  occ. eigenvalues --   -0.25922  -0.25773  -0.25620  -0.25461  -0.25363
 Alpha  occ. eigenvalues --   -0.25281  -0.23769  -0.23665  -0.23555  -0.23361
 Alpha  occ. eigenvalues --   -0.23011  -0.22066  -0.21829  -0.20869  -0.20679
 Alpha  occ. eigenvalues --   -0.20610  -0.20464  -0.18347  -0.18308  -0.16959
 Alpha  occ. eigenvalues --   -0.15818
 Alpha virt. eigenvalues --   -0.11405  -0.06811  -0.06182  -0.04498  -0.03656
 Alpha virt. eigenvalues --   -0.02757  -0.02345  -0.02110  -0.01129   0.00130
 Alpha virt. eigenvalues --    0.01281   0.02079   0.02357   0.02613   0.02969

 Mulliken charges:
               1
     1  Mg   0.680866
     2  C    0.063417
     3  C   -0.055627
     4  C   -0.027382
     5  C   -0.080382
     6  N   -0.169018
     7  C   -0.098429
     8  C   -0.022814
     9  C   -0.002044
    10  C    0.027222
    11  C    0.126751
    12  C    0.151916
    13  C    0.128116
    14  C    0.071885
    15  O   -0.188238
    16  O   -0.289167
    17  N   -0.309173
    18  C    0.095468
    19  C   -0.159413
    20  C    0.044378
    21  C    0.104801
    22  C    0.178321
    23  C   -0.095938
    24  O   -0.191765
    25  C    0.154506
    26  N   -0.136569
    27  C   -0.024499
    28  C   -0.008787
    29  C    0.141381
    30  C   -0.074041
    31  C    0.104396
    32  C    0.066364
    33  C    0.083742
    34  N   -0.297528
    35  C    0.134131
    36  C   -0.169638
    37  C    0.143737
    38  C    0.069876
    39  C    0.174680
    40  C   -0.137141
    41  O   -0.117396
    42  C    0.078731
    43  C    0.119655
    44  O   -0.198805
    45  O   -0.290567
    46  C    0.222714
    47  C    0.314086
    48  C   -0.059913
    49  C   -0.171888
    50  C    0.121604
    51  C    0.135815
    52  C    0.074489
    53  C    0.082908
    54  C   -0.053988
    55  C    0.125253
    56  C    0.095344
    57  C    0.026622
    58  C    0.134804
    59  C   -0.090335
    60  C    0.112543
    61  C    0.128067
    62  C    0.015838
    63  C    0.096351
    64  C   -0.092766
    65  C    0.102874
    66  C    0.067180
    67  H   -0.043767
    68  H   -0.035277
    69  H   -0.066016
    70  H    0.016980
    71  H   -0.015875
    72  H   -0.009935
    73  H    0.002288
    74  H   -0.017066
    75  H   -0.026243
    76  H   -0.020480
    77  H   -0.010805
    78  H    0.003268
    79  H   -0.006730
    80  H    0.013509
    81  H   -0.003840
    82  H    0.003049
    83  H    0.000219
    84  H   -0.006702
    85  H   -0.009312
    86  H   -0.030323
    87  H   -0.001284
    88  H   -0.012137
    89  H    0.018227
    90  H   -0.022268
    91  H   -0.028132
    92  H    0.009605
    93  H   -0.007227
    94  H   -0.006355
    95  H   -0.004571
    96  H   -0.010813
    97  H    0.003846
    98  H    0.000435
    99  H    0.012938
   100  H    0.018186
   101  H    0.004658
   102  H   -0.016620
   103  H    0.000443
   104  H   -0.043301
   105  H   -0.008027
   106  H    0.010787
   107  H    0.014579
   108  H   -0.031494
   109  H   -0.007677
   110  H   -0.025086
   111  H   -0.021050
   112  H   -0.030166
   113  H   -0.037847
   114  H   -0.036493
   115  H   -0.021819
   116  H   -0.025690
   117  H   -0.020665
   118  H   -0.042048
   119  H   -0.029639
   120  H   -0.038799
   121  H   -0.032454
   122  H   -0.032366
   123  H   -0.041404
   124  H   -0.034416
   125  H   -0.019358
   126  H   -0.019681
   127  H   -0.016498
   128  H   -0.030909
   129  H   -0.033918
   130  H   -0.028868
   131  H   -0.029763
   132  H   -0.027889
   133  H   -0.032788
   134  H   -0.024068
   135  H   -0.023159
   136  H   -0.010696
   137  H   -0.001908
   138  H   -0.009115
   139  H   -0.020053
   140  H   -0.019709
 Sum of Mulliken charges =  -0.00000

 Dipole moment (field-independent basis, Debye):
    X=             -3.7457    Y=              2.7586    Z=              2.3461  Tot=              5.2100
 Quadrupole moment (field-independent basis, Debye-Ang):
   XX=           -370.7171   YY=           -439.9929   ZZ=           -406.3455
   XY=             25.8419   XZ=             11.5913   YZ=             -4.8718

 Normal termination of Gaussian 16 at Fri Apr 29 10:49:26 2022.
