 Gaussian 16, Revision A.03,
 Gaussian 16:  ES64L-G16RevA.03 25-Dec-2016

 -----------------------------------
 #p cam-b3lyp/Def2SVP td=(nstates=5)
 -----------------------------------

 -------------------------------------------------------
 step_251_chromophore_18 TDDFT with cam-b3lyp functional
 -------------------------------------------------------
 Symbolic Z-matrix:
 Charge =  0 Multiplicity = 1

                         Standard orientation:
 ---------------------------------------------------------------------
 Center     Atomic      Atomic             Coordinates (Angstroms)
 Number     Number       Type             X           Y           Z
 ---------------------------------------------------------------------
      1         12           0        5.435809    1.159685    0.105315
      2          6           0        4.506375   -2.266583    0.367829
      3          6           0        2.098028    1.961780   -0.090767
      4          6           0        6.488312    4.277937   -0.190692
      5          6           0        8.870650    0.141835   -0.186525
      6          7           0        3.449997   -0.052698    0.066192
      7          6           0        3.391175   -1.415025    0.296226
      8          6           0        1.868304   -1.779579    0.359720
      9          6           0        1.060651   -0.387912    0.164915
     10          6           0        2.263020    0.551159    0.024407
     11          6           0        0.024266   -0.357901   -0.977665
     12          6           0        1.390283   -2.669115    1.580789
     13          6           0        0.735953   -3.971081    1.220251
     14          6           0       -0.012923   -4.201459   -0.065794
     15          8           0        0.230073   -5.036253   -0.942086
     16          8           0       -1.057926   -3.321820   -0.100090
     17          7           0        4.380265    2.973270    0.009289
     18          6           0        3.026754    3.071165   -0.069579
     19          6           0        2.726904    4.475869    0.037428
     20          6           0        3.954522    5.160324   -0.093331
     21          6           0        5.063227    4.151843   -0.126145
     22          6           0        1.264272    4.949378    0.081652
     23          6           0        4.151910    6.630410   -0.307953
     24          8           0        5.287035    7.114525   -0.530154
     25          6           0        2.971613    7.529456   -0.315382
     26          7           0        7.453640    2.032215   -0.219039
     27          6           0        7.591390    3.312308   -0.223621
     28          6           0        9.105307    3.888385   -0.281578
     29          6           0        9.848527    2.543972   -0.299765
     30          6           0        8.728016    1.535369   -0.232265
     31          6           0        9.283128    4.774206   -1.568760
     32          6           0       10.914364    2.307998    0.827437
     33          6           0       10.369393    2.056998    2.253527
     34          7           0        6.430498   -0.621629   -0.030748
     35          6           0        7.819660   -0.849286   -0.172235
     36          6           0        8.049604   -2.297016   -0.072591
     37          6           0        6.781283   -2.885907    0.147475
     38          6           0        5.824830   -1.816702    0.208408
     39          6           0        9.438046   -2.999490   -0.152366
     40          6           0        6.183671   -4.096666    0.355938
     41          8           0        6.616078   -5.231213    0.360235
     42          6           0        4.673765   -3.801068    0.576126
     43          6           0        3.910405   -4.608127   -0.347488
     44          8           0        3.613831   -4.272396   -1.499661
     45          8           0        3.765099   -5.902367    0.166008
     46          6           0        3.161462   -6.871374   -0.782007
     47          6           0       -2.033648   -3.620882   -1.163417
     48          6           0       -3.379815   -2.931698   -0.974234
     49          6           0       -4.576021   -3.516937   -0.696185
     50          6           0       -4.817727   -5.028424   -0.679772
     51          6           0       -5.794842   -2.627318   -0.381926
     52          6           0       -5.745691   -1.328177    0.494429
     53          6           0       -6.635003   -0.212483   -0.018658
     54          6           0       -7.787717    0.107162    0.970322
     55          6           0       -7.407176    0.833183    2.242848
     56          6           0       -9.026973    0.896274    0.290242
     57          6           0      -10.203091   -0.022611   -0.029914
     58          6           0      -11.239542   -0.174836    1.089921
     59          6           0      -12.477164    0.784743    0.913354
     60          6           0      -13.148493    1.046329    2.292256
     61          6           0      -13.475109    0.230792   -0.110416
     62          6           0      -14.326629    1.336852   -0.828841
     63          6           0      -15.816464    1.262244   -0.426242
     64          6           0      -16.602521    2.510913   -0.999277
     65          6           0      -17.180449    3.245299    0.247059
     66          6           0      -17.879679    2.070749   -1.852657
     67          1           0        1.117216    2.320806   -0.410654
     68          1           0        6.805879    5.289870   -0.451003
     69          1           0        9.897428   -0.221137   -0.266139
     70          1           0        1.843438   -2.470521   -0.481952
     71          1           0        0.455225   -0.207661    1.052099
     72          1           0       -0.958701   -0.075046   -0.598840
     73          1           0       -0.081670   -1.267352   -1.568842
     74          1           0        0.399335    0.416069   -1.647292
     75          1           0        0.713544   -2.097478    2.216196
     76          1           0        2.301836   -2.927346    2.119814
     77          1           0       -0.139646   -4.060933    1.864161
     78          1           0        1.471522   -4.762452    1.359965
     79          1           0        0.578255    4.140783    0.334995
     80          1           0        0.985911    5.370424   -0.883589
     81          1           0        1.251523    5.713848    0.857856
     82          1           0        2.474019    7.404505    0.646349
     83          1           0        2.255086    7.239273   -1.084769
     84          1           0        3.269500    8.552903   -0.539662
     85          1           0        9.349050    4.455237    0.617299
     86          1           0       10.247757    2.362992   -1.298007
     87          1           0        8.604905    4.390922   -2.331079
     88          1           0       10.300432    4.635953   -1.936624
     89          1           0        9.109038    5.846878   -1.480247
     90          1           0       11.681508    3.080046    0.777100
     91          1           0       11.503667    1.438117    0.539076
     92          1           0        9.438664    2.557368    2.518772
     93          1           0       11.170596    2.267271    2.962921
     94          1           0       10.225675    0.978166    2.311214
     95          1           0        9.609659   -3.703605    0.661869
     96          1           0       10.272109   -2.300904   -0.208456
     97          1           0        9.413334   -3.739866   -0.952345
     98          1           0        4.533474   -4.143226    1.600952
     99          1           0        3.849631   -7.087754   -1.598741
    100          1           0        2.251274   -6.520876   -1.267283
    101          1           0        2.799540   -7.703907   -0.178437
    102          1           0       -2.135470   -4.705635   -1.189059
    103          1           0       -1.564341   -3.364221   -2.114131
    104          1           0       -3.472613   -1.857540   -0.814317
    105          1           0       -5.822200   -5.433190   -0.798631
    106          1           0       -4.506507   -5.357808    0.311400
    107          1           0       -4.207615   -5.458299   -1.473861
    108          1           0       -6.510564   -3.312003    0.072606
    109          1           0       -6.223410   -2.257741   -1.313568
    110          1           0       -4.760283   -0.873100    0.588990
    111          1           0       -6.000961   -1.604838    1.517539
    112          1           0       -7.068407   -0.407428   -1.000473
    113          1           0       -6.032620    0.683568   -0.164112
    114          1           0       -8.224447   -0.876410    1.143743
    115          1           0       -7.810185    1.826417    2.439231
    116          1           0       -6.326118    0.968139    2.283453
    117          1           0       -7.785368    0.347945    3.142653
    118          1           0       -8.716850    1.266281   -0.686384
    119          1           0       -9.577165    1.659371    0.840361
    120          1           0       -9.917938   -1.018593   -0.369697
    121          1           0      -10.512038    0.536662   -0.912289
    122          1           0      -10.809844   -0.124547    2.089597
    123          1           0      -11.651793   -1.178037    0.975852
    124          1           0      -12.157318    1.774771    0.587295
    125          1           0      -12.704865    0.413477    3.060604
    126          1           0      -14.208550    0.853499    2.127355
    127          1           0      -13.019469    2.068333    2.649226
    128          1           0      -14.178781   -0.439179    0.385046
    129          1           0      -13.032426   -0.324028   -0.938127
    130          1           0      -14.318061    1.312849   -1.918295
    131          1           0      -14.027607    2.351626   -0.564468
    132          1           0      -15.801298    1.213612    0.661862
    133          1           0      -16.236606    0.366628   -0.883718
    134          1           0      -15.975422    3.201636   -1.562651
    135          1           0      -17.361169    4.168237   -0.302384
    136          1           0      -16.373537    3.356858    0.971714
    137          1           0      -18.095785    2.777453    0.609895
    138          1           0      -18.689349    1.652227   -1.254862
    139          1           0      -17.514598    1.342149   -2.576217
    140          1           0      -18.366814    2.797709   -2.502595
 ---------------------------------------------------------------------

 SCF Done:  E(RCAM-B3LYP) =  -3007.15591533     A.U. after   18 cycles

 Excitation energies and oscillator strengths:

 Excited State   1:      Singlet-A      1.7531 eV  707.21 nm  f=0.3632  <S**2>=0.000
     245 -> 248        0.18891
     246 -> 247        0.68182
     245 <- 248        0.10765
 This state for optimization and/or second-order correction.
 Total Energy, E(TD-HF/TD-DFT) =  -3007.09148831
 Copying the excited state density for this state as the 1-particle RhoCI density.

 Excited State   2:      Singlet-A      2.2082 eV  561.47 nm  f=0.1147  <S**2>=0.000
     245 -> 247        0.64188
     246 -> 248       -0.28136

 Excited State   3:      Singlet-A      3.4178 eV  362.76 nm  f=0.2010  <S**2>=0.000
     239 -> 247        0.14574
     242 -> 247        0.44893
     243 -> 247       -0.16745
     244 -> 247       -0.18927
     245 -> 247        0.14128
     246 -> 248        0.42061

 Excited State   4:      Singlet-A      3.4950 eV  354.74 nm  f=0.0076  <S**2>=0.000
     239 -> 247        0.18502
     239 -> 249       -0.10012
     240 -> 247        0.52898
     240 -> 249       -0.30228
     240 -> 250        0.19006

 Excited State   5:      Singlet-A      3.5597 eV  348.30 nm  f=0.1367  <S**2>=0.000
     243 -> 247        0.44285
     243 -> 249        0.21367
     243 -> 250        0.16035
     244 -> 247        0.30520
     245 -> 247        0.11701
     246 -> 248        0.26307

 The electronic state is 1-A.
 Alpha  occ. eigenvalues --  -46.89729 -19.25230 -19.23408 -19.20081 -19.18700
 Alpha  occ. eigenvalues --  -19.18587 -19.17306 -14.42578 -14.41830 -14.39674
 Alpha  occ. eigenvalues --  -14.39571 -10.39422 -10.37935 -10.34997 -10.33065
 Alpha  occ. eigenvalues --  -10.32245 -10.31807 -10.31621 -10.31324 -10.31085
 Alpha  occ. eigenvalues --  -10.30799 -10.30112 -10.29753 -10.29277 -10.29244
 Alpha  occ. eigenvalues --  -10.28741 -10.28646 -10.28561 -10.28309 -10.28021
 Alpha  occ. eigenvalues --  -10.27933 -10.27901 -10.27894 -10.27893 -10.27691
 Alpha  occ. eigenvalues --  -10.27405 -10.27252 -10.27151 -10.27144 -10.27038
 Alpha  occ. eigenvalues --  -10.26926 -10.26791 -10.26611 -10.26570 -10.26349
 Alpha  occ. eigenvalues --  -10.26303 -10.26251 -10.26221 -10.26163 -10.25998
 Alpha  occ. eigenvalues --  -10.25891 -10.25841 -10.25798 -10.25730 -10.25571
 Alpha  occ. eigenvalues --  -10.25039 -10.25017 -10.24867 -10.24842 -10.24838
 Alpha  occ. eigenvalues --  -10.24674 -10.24620 -10.24595 -10.24413 -10.24268
 Alpha  occ. eigenvalues --  -10.23763  -3.18065  -1.92979  -1.92556  -1.92321
 Alpha  occ. eigenvalues --   -1.16454  -1.13554  -1.08998  -1.08393  -1.07448
 Alpha  occ. eigenvalues --   -1.06017  -1.05527  -1.03622  -1.02961  -1.01592
 Alpha  occ. eigenvalues --   -0.92097  -0.90741  -0.89925  -0.89664  -0.89374
 Alpha  occ. eigenvalues --   -0.88639  -0.88193  -0.87414  -0.87180  -0.86728
 Alpha  occ. eigenvalues --   -0.85505  -0.85231  -0.84777  -0.83344  -0.83080
 Alpha  occ. eigenvalues --   -0.82386  -0.82118  -0.81289  -0.80695  -0.80255
 Alpha  occ. eigenvalues --   -0.79813  -0.78241  -0.77699  -0.77389  -0.76442
 Alpha  occ. eigenvalues --   -0.75234  -0.75148  -0.74977  -0.74824  -0.74202
 Alpha  occ. eigenvalues --   -0.73591  -0.72436  -0.71431  -0.70676  -0.70342
 Alpha  occ. eigenvalues --   -0.69015  -0.68709  -0.67215  -0.66567  -0.65601
 Alpha  occ. eigenvalues --   -0.65216  -0.65194  -0.64650  -0.64433  -0.64208
 Alpha  occ. eigenvalues --   -0.63278  -0.63239  -0.62213  -0.60848  -0.60129
 Alpha  occ. eigenvalues --   -0.59707  -0.59271  -0.58487  -0.58174  -0.57600
 Alpha  occ. eigenvalues --   -0.57349  -0.56902  -0.56152  -0.55956  -0.55500
 Alpha  occ. eigenvalues --   -0.55381  -0.54953  -0.54730  -0.54534  -0.54193
 Alpha  occ. eigenvalues --   -0.53736  -0.53165  -0.52964  -0.52937  -0.52502
 Alpha  occ. eigenvalues --   -0.52396  -0.52082  -0.51899  -0.51789  -0.51638
 Alpha  occ. eigenvalues --   -0.51284  -0.51009  -0.50931  -0.50644  -0.50431
 Alpha  occ. eigenvalues --   -0.50351  -0.50057  -0.49631  -0.49540  -0.49386
 Alpha  occ. eigenvalues --   -0.49219  -0.49156  -0.49027  -0.48921  -0.48805
 Alpha  occ. eigenvalues --   -0.48636  -0.48340  -0.48130  -0.47831  -0.47714
 Alpha  occ. eigenvalues --   -0.47513  -0.46956  -0.46619  -0.46579  -0.46438
 Alpha  occ. eigenvalues --   -0.46358  -0.46055  -0.46016  -0.45716  -0.45634
 Alpha  occ. eigenvalues --   -0.45556  -0.45368  -0.45108  -0.44985  -0.44636
 Alpha  occ. eigenvalues --   -0.44410  -0.44267  -0.44067  -0.43915  -0.43696
 Alpha  occ. eigenvalues --   -0.43580  -0.43446  -0.43237  -0.42981  -0.42889
 Alpha  occ. eigenvalues --   -0.42568  -0.42426  -0.42337  -0.42274  -0.42108
 Alpha  occ. eigenvalues --   -0.41789  -0.41517  -0.41461  -0.41363  -0.41322
 Alpha  occ. eigenvalues --   -0.41119  -0.40976  -0.40718  -0.40552  -0.40550
 Alpha  occ. eigenvalues --   -0.40423  -0.40035  -0.39420  -0.39221  -0.39144
 Alpha  occ. eigenvalues --   -0.38341  -0.38247  -0.38176  -0.37700  -0.37334
 Alpha  occ. eigenvalues --   -0.36838  -0.36829  -0.36541  -0.36420  -0.36213
 Alpha  occ. eigenvalues --   -0.35972  -0.35064  -0.34239  -0.33999  -0.33817
 Alpha  occ. eigenvalues --   -0.33739  -0.33018  -0.32865  -0.31234  -0.31134
 Alpha  occ. eigenvalues --   -0.30619  -0.30207  -0.29741  -0.29413  -0.23687
 Alpha  occ. eigenvalues --   -0.21152
 Alpha virt. eigenvalues --   -0.08440  -0.01712   0.00255   0.02466   0.02666
 Alpha virt. eigenvalues --    0.03778   0.04988   0.05538   0.05941   0.06609
 Alpha virt. eigenvalues --    0.07964   0.08537   0.08762   0.09094   0.09185

 Mulliken charges:
               1
     1  Mg   0.812058
     2  C    0.030915
     3  C   -0.077365
     4  C   -0.042513
     5  C   -0.081128
     6  N   -0.244090
     7  C   -0.045512
     8  C   -0.074502
     9  C   -0.047303
    10  C    0.051559
    11  C    0.072776
    12  C    0.100852
    13  C    0.057871
    14  C    0.148388
    15  O   -0.230975
    16  O   -0.349690
    17  N   -0.402009
    18  C    0.117018
    19  C   -0.164431
    20  C   -0.023916
    21  C    0.133579
    22  C    0.121027
    23  C   -0.011829
    24  O   -0.231133
    25  C    0.068181
    26  N   -0.203172
    27  C   -0.004682
    28  C   -0.058810
    29  C    0.082950
    30  C   -0.064698
    31  C    0.045462
    32  C    0.013651
    33  C    0.021068
    34  N   -0.385208
    35  C    0.134430
    36  C   -0.166565
    37  C    0.055525
    38  C    0.105678
    39  C    0.127340
    40  C   -0.039797
    41  O   -0.161561
    42  C    0.005407
    43  C    0.202976
    44  O   -0.233075
    45  O   -0.353032
    46  C    0.182477
    47  C    0.280023
    48  C   -0.081073
    49  C   -0.189403
    50  C    0.055870
    51  C    0.083365
    52  C    0.013308
    53  C    0.032310
    54  C   -0.108568
    55  C    0.060995
    56  C    0.047794
    57  C   -0.026445
    58  C    0.076323
    59  C   -0.142809
    60  C    0.058327
    61  C    0.067190
    62  C   -0.030852
    63  C    0.046643
    64  C   -0.155651
    65  C    0.045364
    66  C    0.011870
    67  H   -0.014116
    68  H    0.003374
    69  H   -0.032083
    70  H    0.048163
    71  H    0.018739
    72  H    0.012680
    73  H    0.025144
    74  H    0.008070
    75  H    0.004955
    76  H    0.011546
    77  H    0.023045
    78  H    0.033198
    79  H    0.024417
    80  H    0.041020
    81  H    0.023325
    82  H    0.030178
    83  H    0.029180
    84  H    0.031351
    85  H    0.024839
    86  H    0.007653
    87  H    0.024016
    88  H    0.013933
    89  H    0.041827
    90  H    0.005411
    91  H    0.000394
    92  H    0.029148
    93  H    0.017197
    94  H    0.017800
    95  H    0.021176
    96  H    0.010257
    97  H    0.029241
    98  H    0.041942
    99  H    0.037047
   100  H    0.042027
   101  H    0.027843
   102  H    0.014857
   103  H    0.028439
   104  H   -0.013595
   105  H    0.019125
   106  H    0.035713
   107  H    0.036654
   108  H   -0.002809
   109  H    0.020497
   110  H    0.002705
   111  H    0.008511
   112  H   -0.002034
   113  H   -0.008205
   114  H   -0.006416
   115  H    0.004203
   116  H   -0.001709
   117  H    0.004140
   118  H   -0.012640
   119  H   -0.003198
   120  H   -0.011207
   121  H   -0.004210
   122  H   -0.004785
   123  H   -0.010914
   124  H   -0.004738
   125  H    0.005555
   126  H    0.000325
   127  H    0.007787
   128  H   -0.001182
   129  H   -0.003305
   130  H   -0.001152
   131  H   -0.004292
   132  H   -0.003717
   133  H   -0.004161
   134  H    0.006747
   135  H    0.001590
   136  H    0.011414
   137  H    0.020750
   138  H    0.013469
   139  H    0.003238
   140  H    0.005845
 Sum of Mulliken charges =  -0.00000

 Dipole moment (field-independent basis, Debye):
    X=             -4.6160    Y=              4.1407    Z=              2.3992  Tot=              6.6490
 Quadrupole moment (field-independent basis, Debye-Ang):
   XX=           -374.4211   YY=           -434.3420   ZZ=           -406.5853
   XY=             31.8699   XZ=             12.0871   YZ=             -5.6328

 Normal termination of Gaussian 16 at Fri Apr 29 09:55:53 2022.
