 Gaussian 16, Revision A.03,
 Gaussian 16:  ES64L-G16RevA.03 25-Dec-2016

 ---------------------------------
 #p PBE1PBE/Def2SVP td=(nstates=5)
 ---------------------------------

 -----------------------------------------------------
 step_251_chromophore_18 TDDFT with PBE1PBE functional
 -----------------------------------------------------
 Symbolic Z-matrix:
 Charge =  0 Multiplicity = 1

                         Standard orientation:
 ---------------------------------------------------------------------
 Center     Atomic      Atomic             Coordinates (Angstroms)
 Number     Number       Type             X           Y           Z
 ---------------------------------------------------------------------
      1         12           0        5.435809    1.159685    0.105315
      2          6           0        4.506375   -2.266583    0.367829
      3          6           0        2.098028    1.961780   -0.090767
      4          6           0        6.488312    4.277937   -0.190692
      5          6           0        8.870650    0.141835   -0.186525
      6          7           0        3.449997   -0.052698    0.066192
      7          6           0        3.391175   -1.415025    0.296226
      8          6           0        1.868304   -1.779579    0.359720
      9          6           0        1.060651   -0.387912    0.164915
     10          6           0        2.263020    0.551159    0.024407
     11          6           0        0.024266   -0.357901   -0.977665
     12          6           0        1.390283   -2.669115    1.580789
     13          6           0        0.735953   -3.971081    1.220251
     14          6           0       -0.012923   -4.201459   -0.065794
     15          8           0        0.230073   -5.036253   -0.942086
     16          8           0       -1.057926   -3.321820   -0.100090
     17          7           0        4.380265    2.973270    0.009289
     18          6           0        3.026754    3.071165   -0.069579
     19          6           0        2.726904    4.475869    0.037428
     20          6           0        3.954522    5.160324   -0.093331
     21          6           0        5.063227    4.151843   -0.126145
     22          6           0        1.264272    4.949378    0.081652
     23          6           0        4.151910    6.630410   -0.307953
     24          8           0        5.287035    7.114525   -0.530154
     25          6           0        2.971613    7.529456   -0.315382
     26          7           0        7.453640    2.032215   -0.219039
     27          6           0        7.591390    3.312308   -0.223621
     28          6           0        9.105307    3.888385   -0.281578
     29          6           0        9.848527    2.543972   -0.299765
     30          6           0        8.728016    1.535369   -0.232265
     31          6           0        9.283128    4.774206   -1.568760
     32          6           0       10.914364    2.307998    0.827437
     33          6           0       10.369393    2.056998    2.253527
     34          7           0        6.430498   -0.621629   -0.030748
     35          6           0        7.819660   -0.849286   -0.172235
     36          6           0        8.049604   -2.297016   -0.072591
     37          6           0        6.781283   -2.885907    0.147475
     38          6           0        5.824830   -1.816702    0.208408
     39          6           0        9.438046   -2.999490   -0.152366
     40          6           0        6.183671   -4.096666    0.355938
     41          8           0        6.616078   -5.231213    0.360235
     42          6           0        4.673765   -3.801068    0.576126
     43          6           0        3.910405   -4.608127   -0.347488
     44          8           0        3.613831   -4.272396   -1.499661
     45          8           0        3.765099   -5.902367    0.166008
     46          6           0        3.161462   -6.871374   -0.782007
     47          6           0       -2.033648   -3.620882   -1.163417
     48          6           0       -3.379815   -2.931698   -0.974234
     49          6           0       -4.576021   -3.516937   -0.696185
     50          6           0       -4.817727   -5.028424   -0.679772
     51          6           0       -5.794842   -2.627318   -0.381926
     52          6           0       -5.745691   -1.328177    0.494429
     53          6           0       -6.635003   -0.212483   -0.018658
     54          6           0       -7.787717    0.107162    0.970322
     55          6           0       -7.407176    0.833183    2.242848
     56          6           0       -9.026973    0.896274    0.290242
     57          6           0      -10.203091   -0.022611   -0.029914
     58          6           0      -11.239542   -0.174836    1.089921
     59          6           0      -12.477164    0.784743    0.913354
     60          6           0      -13.148493    1.046329    2.292256
     61          6           0      -13.475109    0.230792   -0.110416
     62          6           0      -14.326629    1.336852   -0.828841
     63          6           0      -15.816464    1.262244   -0.426242
     64          6           0      -16.602521    2.510913   -0.999277
     65          6           0      -17.180449    3.245299    0.247059
     66          6           0      -17.879679    2.070749   -1.852657
     67          1           0        1.117216    2.320806   -0.410654
     68          1           0        6.805879    5.289870   -0.451003
     69          1           0        9.897428   -0.221137   -0.266139
     70          1           0        1.843438   -2.470521   -0.481952
     71          1           0        0.455225   -0.207661    1.052099
     72          1           0       -0.958701   -0.075046   -0.598840
     73          1           0       -0.081670   -1.267352   -1.568842
     74          1           0        0.399335    0.416069   -1.647292
     75          1           0        0.713544   -2.097478    2.216196
     76          1           0        2.301836   -2.927346    2.119814
     77          1           0       -0.139646   -4.060933    1.864161
     78          1           0        1.471522   -4.762452    1.359965
     79          1           0        0.578255    4.140783    0.334995
     80          1           0        0.985911    5.370424   -0.883589
     81          1           0        1.251523    5.713848    0.857856
     82          1           0        2.474019    7.404505    0.646349
     83          1           0        2.255086    7.239273   -1.084769
     84          1           0        3.269500    8.552903   -0.539662
     85          1           0        9.349050    4.455237    0.617299
     86          1           0       10.247757    2.362992   -1.298007
     87          1           0        8.604905    4.390922   -2.331079
     88          1           0       10.300432    4.635953   -1.936624
     89          1           0        9.109038    5.846878   -1.480247
     90          1           0       11.681508    3.080046    0.777100
     91          1           0       11.503667    1.438117    0.539076
     92          1           0        9.438664    2.557368    2.518772
     93          1           0       11.170596    2.267271    2.962921
     94          1           0       10.225675    0.978166    2.311214
     95          1           0        9.609659   -3.703605    0.661869
     96          1           0       10.272109   -2.300904   -0.208456
     97          1           0        9.413334   -3.739866   -0.952345
     98          1           0        4.533474   -4.143226    1.600952
     99          1           0        3.849631   -7.087754   -1.598741
    100          1           0        2.251274   -6.520876   -1.267283
    101          1           0        2.799540   -7.703907   -0.178437
    102          1           0       -2.135470   -4.705635   -1.189059
    103          1           0       -1.564341   -3.364221   -2.114131
    104          1           0       -3.472613   -1.857540   -0.814317
    105          1           0       -5.822200   -5.433190   -0.798631
    106          1           0       -4.506507   -5.357808    0.311400
    107          1           0       -4.207615   -5.458299   -1.473861
    108          1           0       -6.510564   -3.312003    0.072606
    109          1           0       -6.223410   -2.257741   -1.313568
    110          1           0       -4.760283   -0.873100    0.588990
    111          1           0       -6.000961   -1.604838    1.517539
    112          1           0       -7.068407   -0.407428   -1.000473
    113          1           0       -6.032620    0.683568   -0.164112
    114          1           0       -8.224447   -0.876410    1.143743
    115          1           0       -7.810185    1.826417    2.439231
    116          1           0       -6.326118    0.968139    2.283453
    117          1           0       -7.785368    0.347945    3.142653
    118          1           0       -8.716850    1.266281   -0.686384
    119          1           0       -9.577165    1.659371    0.840361
    120          1           0       -9.917938   -1.018593   -0.369697
    121          1           0      -10.512038    0.536662   -0.912289
    122          1           0      -10.809844   -0.124547    2.089597
    123          1           0      -11.651793   -1.178037    0.975852
    124          1           0      -12.157318    1.774771    0.587295
    125          1           0      -12.704865    0.413477    3.060604
    126          1           0      -14.208550    0.853499    2.127355
    127          1           0      -13.019469    2.068333    2.649226
    128          1           0      -14.178781   -0.439179    0.385046
    129          1           0      -13.032426   -0.324028   -0.938127
    130          1           0      -14.318061    1.312849   -1.918295
    131          1           0      -14.027607    2.351626   -0.564468
    132          1           0      -15.801298    1.213612    0.661862
    133          1           0      -16.236606    0.366628   -0.883718
    134          1           0      -15.975422    3.201636   -1.562651
    135          1           0      -17.361169    4.168237   -0.302384
    136          1           0      -16.373537    3.356858    0.971714
    137          1           0      -18.095785    2.777453    0.609895
    138          1           0      -18.689349    1.652227   -1.254862
    139          1           0      -17.514598    1.342149   -2.576217
    140          1           0      -18.366814    2.797709   -2.502595
 ---------------------------------------------------------------------

 SCF Done:  E(RPBE1PBE) =  -3005.34377805     A.U. after   15 cycles

 Excitation energies and oscillator strengths:

 Excited State   1:      Singlet-A      1.8682 eV  663.64 nm  f=0.3535  <S**2>=0.000
     245 -> 248        0.18724
     246 -> 247        0.68767
 This state for optimization and/or second-order correction.
 Total Energy, E(TD-HF/TD-DFT) =  -3005.27512142
 Copying the excited state density for this state as the 1-particle RhoCI density.

 Excited State   2:      Singlet-A      2.2062 eV  561.97 nm  f=0.1107  <S**2>=0.000
     245 -> 247        0.65379
     246 -> 248       -0.25892

 Excited State   3:      Singlet-A      2.9799 eV  416.07 nm  f=0.0013  <S**2>=0.000
     244 -> 247        0.67258
     244 -> 249        0.15411

 Excited State   4:      Singlet-A      3.0038 eV  412.76 nm  f=0.0001  <S**2>=0.000
     242 -> 247        0.66289
     242 -> 249       -0.16972
     242 -> 250        0.10636

 Excited State   5:      Singlet-A      3.1569 eV  392.74 nm  f=0.0189  <S**2>=0.000
     241 -> 247       -0.39529
     243 -> 247        0.54242
     246 -> 248       -0.18621

 The electronic state is 1-A.
 Alpha  occ. eigenvalues --  -46.93118 -19.25887 -19.24171 -19.20371 -19.18903
 Alpha  occ. eigenvalues --  -19.18630 -19.17915 -14.41969 -14.41381 -14.39427
 Alpha  occ. eigenvalues --  -14.39214 -10.36470 -10.35018 -10.31822 -10.30453
 Alpha  occ. eigenvalues --  -10.29622 -10.29343 -10.29080 -10.29009 -10.28718
 Alpha  occ. eigenvalues --  -10.28140 -10.28080 -10.27969 -10.26630 -10.26576
 Alpha  occ. eigenvalues --  -10.26541 -10.26495 -10.26227 -10.26056 -10.26043
 Alpha  occ. eigenvalues --  -10.25916 -10.25882 -10.25589 -10.25227 -10.25224
 Alpha  occ. eigenvalues --  -10.25083 -10.24931 -10.24863 -10.24792 -10.24791
 Alpha  occ. eigenvalues --  -10.24468 -10.24299 -10.24186 -10.24054 -10.23970
 Alpha  occ. eigenvalues --  -10.23922 -10.23742 -10.23687 -10.23593 -10.23568
 Alpha  occ. eigenvalues --  -10.23548 -10.23339 -10.23270 -10.23136 -10.23132
 Alpha  occ. eigenvalues --  -10.22598 -10.22583 -10.22446 -10.22378 -10.22260
 Alpha  occ. eigenvalues --  -10.22189 -10.22033 -10.21988 -10.21952 -10.21878
 Alpha  occ. eigenvalues --  -10.21668  -3.15042  -1.87896  -1.87451  -1.87220
 Alpha  occ. eigenvalues --   -1.11253  -1.08382  -1.04071  -1.02803  -1.02307
 Alpha  occ. eigenvalues --   -1.00653  -1.00436  -0.98122  -0.97521  -0.96498
 Alpha  occ. eigenvalues --   -0.86687  -0.84853  -0.84027  -0.83985  -0.83546
 Alpha  occ. eigenvalues --   -0.82759  -0.82293  -0.81515  -0.81336  -0.81037
 Alpha  occ. eigenvalues --   -0.79835  -0.79595  -0.78947  -0.77594  -0.77429
 Alpha  occ. eigenvalues --   -0.76566  -0.76189  -0.75490  -0.74949  -0.74482
 Alpha  occ. eigenvalues --   -0.74185  -0.72393  -0.71972  -0.71701  -0.70616
 Alpha  occ. eigenvalues --   -0.69615  -0.69265  -0.69219  -0.69072  -0.68371
 Alpha  occ. eigenvalues --   -0.67905  -0.66980  -0.65848  -0.64993  -0.64697
 Alpha  occ. eigenvalues --   -0.63344  -0.63170  -0.61538  -0.60781  -0.60025
 Alpha  occ. eigenvalues --   -0.59708  -0.59370  -0.59244  -0.58838  -0.58538
 Alpha  occ. eigenvalues --   -0.57758  -0.57439  -0.56402  -0.55520  -0.54495
 Alpha  occ. eigenvalues --   -0.54144  -0.53910  -0.53136  -0.52760  -0.52197
 Alpha  occ. eigenvalues --   -0.51921  -0.51254  -0.50713  -0.50492  -0.50017
 Alpha  occ. eigenvalues --   -0.49876  -0.49489  -0.49303  -0.48901  -0.48686
 Alpha  occ. eigenvalues --   -0.48191  -0.47648  -0.47459  -0.47236  -0.47153
 Alpha  occ. eigenvalues --   -0.46876  -0.46731  -0.46424  -0.46359  -0.46162
 Alpha  occ. eigenvalues --   -0.45814  -0.45586  -0.45413  -0.45276  -0.45021
 Alpha  occ. eigenvalues --   -0.44815  -0.44584  -0.44236  -0.44080  -0.43961
 Alpha  occ. eigenvalues --   -0.43840  -0.43727  -0.43555  -0.43518  -0.43289
 Alpha  occ. eigenvalues --   -0.43177  -0.43045  -0.42768  -0.42483  -0.42398
 Alpha  occ. eigenvalues --   -0.42167  -0.41629  -0.41325  -0.41288  -0.41115
 Alpha  occ. eigenvalues --   -0.41013  -0.40797  -0.40615  -0.40515  -0.40272
 Alpha  occ. eigenvalues --   -0.40221  -0.40143  -0.39919  -0.39654  -0.39318
 Alpha  occ. eigenvalues --   -0.39144  -0.39030  -0.38925  -0.38737  -0.38466
 Alpha  occ. eigenvalues --   -0.38321  -0.38254  -0.37923  -0.37780  -0.37664
 Alpha  occ. eigenvalues --   -0.37329  -0.37248  -0.37197  -0.37065  -0.37031
 Alpha  occ. eigenvalues --   -0.36529  -0.36444  -0.36297  -0.36182  -0.36081
 Alpha  occ. eigenvalues --   -0.36018  -0.35789  -0.35555  -0.35413  -0.35319
 Alpha  occ. eigenvalues --   -0.35282  -0.34959  -0.34222  -0.34151  -0.33909
 Alpha  occ. eigenvalues --   -0.33314  -0.33184  -0.32971  -0.32480  -0.32188
 Alpha  occ. eigenvalues --   -0.31837  -0.31782  -0.31605  -0.31357  -0.31260
 Alpha  occ. eigenvalues --   -0.30816  -0.30055  -0.29170  -0.29137  -0.28765
 Alpha  occ. eigenvalues --   -0.28703  -0.28556  -0.27744  -0.26782  -0.25921
 Alpha  occ. eigenvalues --   -0.25665  -0.25562  -0.25366  -0.24950  -0.20620
 Alpha  occ. eigenvalues --   -0.18757
 Alpha virt. eigenvalues --   -0.10968  -0.05203  -0.03927  -0.01945  -0.00705
 Alpha virt. eigenvalues --   -0.00094   0.00453   0.00873   0.01776   0.02975
 Alpha virt. eigenvalues --    0.03922   0.05127   0.05324   0.05616   0.05941

 Mulliken charges:
               1
     1  Mg   0.956482
     2  C    0.016313
     3  C   -0.068570
     4  C   -0.033160
     5  C   -0.077664
     6  N   -0.349018
     7  C    0.032487
     8  C   -0.136539
     9  C   -0.118162
    10  C    0.083221
    11  C    0.013201
    12  C    0.047491
    13  C   -0.018538
    14  C    0.209023
    15  O   -0.266896
    16  O   -0.375663
    17  N   -0.514130
    18  C    0.144040
    19  C   -0.190932
    20  C   -0.086430
    21  C    0.169991
    22  C    0.058237
    23  C    0.041473
    24  O   -0.270641
    25  C   -0.006676
    26  N   -0.307692
    27  C    0.026217
    28  C   -0.129941
    29  C    0.008764
    30  C   -0.025255
    31  C   -0.012708
    32  C   -0.049266
    33  C   -0.054237
    34  N   -0.513357
    35  C    0.163278
    36  C   -0.171420
    37  C    0.004921
    38  C    0.155391
    39  C    0.075820
    40  C    0.046543
    41  O   -0.206384
    42  C   -0.097253
    43  C    0.288760
    44  O   -0.266919
    45  O   -0.383993
    46  C    0.125227
    47  C    0.238330
    48  C   -0.098283
    49  C   -0.226789
    50  C   -0.008830
    51  C    0.022732
    52  C   -0.050725
    53  C   -0.021289
    54  C   -0.196126
    55  C    0.003298
    56  C   -0.005961
    57  C   -0.086824
    58  C    0.016294
    59  C   -0.225773
    60  C   -0.001097
    61  C    0.007891
    62  C   -0.088439
    63  C   -0.010808
    64  C   -0.249711
    65  C   -0.018619
    66  C   -0.046470
    67  H    0.017132
    68  H    0.035125
    69  H    0.000689
    70  H    0.090139
    71  H    0.054188
    72  H    0.039342
    73  H    0.054206
    74  H    0.036649
    75  H    0.036559
    76  H    0.046351
    77  H    0.056972
    78  H    0.066332
    79  H    0.049130
    80  H    0.067491
    81  H    0.051497
    82  H    0.057059
    83  H    0.056136
    84  H    0.057587
    85  H    0.060066
    86  H    0.046119
    87  H    0.052366
    88  H    0.041755
    89  H    0.068103
    90  H    0.038774
    91  H    0.033040
    92  H    0.058094
    93  H    0.046298
    94  H    0.046263
    95  H    0.049894
    96  H    0.037504
    97  H    0.057936
    98  H    0.078424
    99  H    0.059738
   100  H    0.066850
   101  H    0.050151
   102  H    0.040855
   103  H    0.054492
   104  H    0.018821
   105  H    0.045532
   106  H    0.064258
   107  H    0.062900
   108  H    0.029700
   109  H    0.053876
   110  H    0.033216
   111  H    0.041425
   112  H    0.029545
   113  H    0.025099
   114  H    0.033591
   115  H    0.030872
   116  H    0.025728
   117  H    0.031014
   118  H    0.020377
   119  H    0.029850
   120  H    0.020737
   121  H    0.028019
   122  H    0.027082
   123  H    0.022995
   124  H    0.032273
   125  H    0.032689
   126  H    0.029391
   127  H    0.035029
   128  H    0.031826
   129  H    0.029529
   130  H    0.031747
   131  H    0.028677
   132  H    0.031463
   133  H    0.029029
   134  H    0.041546
   135  H    0.031361
   136  H    0.040149
   137  H    0.047820
   138  H    0.039953
   139  H    0.031636
   140  H    0.033700
 Sum of Mulliken charges =  -0.00000

 Dipole moment (field-independent basis, Debye):
    X=             -4.2269    Y=              3.4189    Z=              2.4126  Tot=              5.9478
 Quadrupole moment (field-independent basis, Debye-Ang):
   XX=           -364.1075   YY=           -433.0887   ZZ=           -404.2935
   XY=             28.7981   XZ=             12.2098   YZ=             -5.7859

 Normal termination of Gaussian 16 at Fri Apr 29 10:13:04 2022.
