 Gaussian 16, Revision A.03,
 Gaussian 16:  ES64L-G16RevA.03 25-Dec-2016

 --------------------------------
 #p wB97XD/Def2SVP td=(nstates=5)
 --------------------------------

 ----------------------------------------------------
 step_251_chromophore_18 TDDFT with wB97XD functional
 ----------------------------------------------------
 Symbolic Z-matrix:
 Charge =  0 Multiplicity = 1

                         Standard orientation:
 ---------------------------------------------------------------------
 Center     Atomic      Atomic             Coordinates (Angstroms)
 Number     Number       Type             X           Y           Z
 ---------------------------------------------------------------------
      1         12           0        5.435809    1.159685    0.105315
      2          6           0        4.506375   -2.266583    0.367829
      3          6           0        2.098028    1.961780   -0.090767
      4          6           0        6.488312    4.277937   -0.190692
      5          6           0        8.870650    0.141835   -0.186525
      6          7           0        3.449997   -0.052698    0.066192
      7          6           0        3.391175   -1.415025    0.296226
      8          6           0        1.868304   -1.779579    0.359720
      9          6           0        1.060651   -0.387912    0.164915
     10          6           0        2.263020    0.551159    0.024407
     11          6           0        0.024266   -0.357901   -0.977665
     12          6           0        1.390283   -2.669115    1.580789
     13          6           0        0.735953   -3.971081    1.220251
     14          6           0       -0.012923   -4.201459   -0.065794
     15          8           0        0.230073   -5.036253   -0.942086
     16          8           0       -1.057926   -3.321820   -0.100090
     17          7           0        4.380265    2.973270    0.009289
     18          6           0        3.026754    3.071165   -0.069579
     19          6           0        2.726904    4.475869    0.037428
     20          6           0        3.954522    5.160324   -0.093331
     21          6           0        5.063227    4.151843   -0.126145
     22          6           0        1.264272    4.949378    0.081652
     23          6           0        4.151910    6.630410   -0.307953
     24          8           0        5.287035    7.114525   -0.530154
     25          6           0        2.971613    7.529456   -0.315382
     26          7           0        7.453640    2.032215   -0.219039
     27          6           0        7.591390    3.312308   -0.223621
     28          6           0        9.105307    3.888385   -0.281578
     29          6           0        9.848527    2.543972   -0.299765
     30          6           0        8.728016    1.535369   -0.232265
     31          6           0        9.283128    4.774206   -1.568760
     32          6           0       10.914364    2.307998    0.827437
     33          6           0       10.369393    2.056998    2.253527
     34          7           0        6.430498   -0.621629   -0.030748
     35          6           0        7.819660   -0.849286   -0.172235
     36          6           0        8.049604   -2.297016   -0.072591
     37          6           0        6.781283   -2.885907    0.147475
     38          6           0        5.824830   -1.816702    0.208408
     39          6           0        9.438046   -2.999490   -0.152366
     40          6           0        6.183671   -4.096666    0.355938
     41          8           0        6.616078   -5.231213    0.360235
     42          6           0        4.673765   -3.801068    0.576126
     43          6           0        3.910405   -4.608127   -0.347488
     44          8           0        3.613831   -4.272396   -1.499661
     45          8           0        3.765099   -5.902367    0.166008
     46          6           0        3.161462   -6.871374   -0.782007
     47          6           0       -2.033648   -3.620882   -1.163417
     48          6           0       -3.379815   -2.931698   -0.974234
     49          6           0       -4.576021   -3.516937   -0.696185
     50          6           0       -4.817727   -5.028424   -0.679772
     51          6           0       -5.794842   -2.627318   -0.381926
     52          6           0       -5.745691   -1.328177    0.494429
     53          6           0       -6.635003   -0.212483   -0.018658
     54          6           0       -7.787717    0.107162    0.970322
     55          6           0       -7.407176    0.833183    2.242848
     56          6           0       -9.026973    0.896274    0.290242
     57          6           0      -10.203091   -0.022611   -0.029914
     58          6           0      -11.239542   -0.174836    1.089921
     59          6           0      -12.477164    0.784743    0.913354
     60          6           0      -13.148493    1.046329    2.292256
     61          6           0      -13.475109    0.230792   -0.110416
     62          6           0      -14.326629    1.336852   -0.828841
     63          6           0      -15.816464    1.262244   -0.426242
     64          6           0      -16.602521    2.510913   -0.999277
     65          6           0      -17.180449    3.245299    0.247059
     66          6           0      -17.879679    2.070749   -1.852657
     67          1           0        1.117216    2.320806   -0.410654
     68          1           0        6.805879    5.289870   -0.451003
     69          1           0        9.897428   -0.221137   -0.266139
     70          1           0        1.843438   -2.470521   -0.481952
     71          1           0        0.455225   -0.207661    1.052099
     72          1           0       -0.958701   -0.075046   -0.598840
     73          1           0       -0.081670   -1.267352   -1.568842
     74          1           0        0.399335    0.416069   -1.647292
     75          1           0        0.713544   -2.097478    2.216196
     76          1           0        2.301836   -2.927346    2.119814
     77          1           0       -0.139646   -4.060933    1.864161
     78          1           0        1.471522   -4.762452    1.359965
     79          1           0        0.578255    4.140783    0.334995
     80          1           0        0.985911    5.370424   -0.883589
     81          1           0        1.251523    5.713848    0.857856
     82          1           0        2.474019    7.404505    0.646349
     83          1           0        2.255086    7.239273   -1.084769
     84          1           0        3.269500    8.552903   -0.539662
     85          1           0        9.349050    4.455237    0.617299
     86          1           0       10.247757    2.362992   -1.298007
     87          1           0        8.604905    4.390922   -2.331079
     88          1           0       10.300432    4.635953   -1.936624
     89          1           0        9.109038    5.846878   -1.480247
     90          1           0       11.681508    3.080046    0.777100
     91          1           0       11.503667    1.438117    0.539076
     92          1           0        9.438664    2.557368    2.518772
     93          1           0       11.170596    2.267271    2.962921
     94          1           0       10.225675    0.978166    2.311214
     95          1           0        9.609659   -3.703605    0.661869
     96          1           0       10.272109   -2.300904   -0.208456
     97          1           0        9.413334   -3.739866   -0.952345
     98          1           0        4.533474   -4.143226    1.600952
     99          1           0        3.849631   -7.087754   -1.598741
    100          1           0        2.251274   -6.520876   -1.267283
    101          1           0        2.799540   -7.703907   -0.178437
    102          1           0       -2.135470   -4.705635   -1.189059
    103          1           0       -1.564341   -3.364221   -2.114131
    104          1           0       -3.472613   -1.857540   -0.814317
    105          1           0       -5.822200   -5.433190   -0.798631
    106          1           0       -4.506507   -5.357808    0.311400
    107          1           0       -4.207615   -5.458299   -1.473861
    108          1           0       -6.510564   -3.312003    0.072606
    109          1           0       -6.223410   -2.257741   -1.313568
    110          1           0       -4.760283   -0.873100    0.588990
    111          1           0       -6.000961   -1.604838    1.517539
    112          1           0       -7.068407   -0.407428   -1.000473
    113          1           0       -6.032620    0.683568   -0.164112
    114          1           0       -8.224447   -0.876410    1.143743
    115          1           0       -7.810185    1.826417    2.439231
    116          1           0       -6.326118    0.968139    2.283453
    117          1           0       -7.785368    0.347945    3.142653
    118          1           0       -8.716850    1.266281   -0.686384
    119          1           0       -9.577165    1.659371    0.840361
    120          1           0       -9.917938   -1.018593   -0.369697
    121          1           0      -10.512038    0.536662   -0.912289
    122          1           0      -10.809844   -0.124547    2.089597
    123          1           0      -11.651793   -1.178037    0.975852
    124          1           0      -12.157318    1.774771    0.587295
    125          1           0      -12.704865    0.413477    3.060604
    126          1           0      -14.208550    0.853499    2.127355
    127          1           0      -13.019469    2.068333    2.649226
    128          1           0      -14.178781   -0.439179    0.385046
    129          1           0      -13.032426   -0.324028   -0.938127
    130          1           0      -14.318061    1.312849   -1.918295
    131          1           0      -14.027607    2.351626   -0.564468
    132          1           0      -15.801298    1.213612    0.661862
    133          1           0      -16.236606    0.366628   -0.883718
    134          1           0      -15.975422    3.201636   -1.562651
    135          1           0      -17.361169    4.168237   -0.302384
    136          1           0      -16.373537    3.356858    0.971714
    137          1           0      -18.095785    2.777453    0.609895
    138          1           0      -18.689349    1.652227   -1.254862
    139          1           0      -17.514598    1.342149   -2.576217
    140          1           0      -18.366814    2.797709   -2.502595
 ---------------------------------------------------------------------

 SCF Done:  E(RwB97XD) =  -3007.85538276     A.U. after   19 cycles

 Excitation energies and oscillator strengths:

 Excited State   1:      Singlet-A      1.7169 eV  722.16 nm  f=0.3621  <S**2>=0.000
     245 -> 248        0.19207
     246 -> 247        0.67988
     245 <- 248        0.11544
 This state for optimization and/or second-order correction.
 Total Energy, E(TD-HF/TD-DFT) =  -3007.79228937
 Copying the excited state density for this state as the 1-particle RhoCI density.

 Excited State   2:      Singlet-A      2.1579 eV  574.56 nm  f=0.1121  <S**2>=0.000
     245 -> 247        0.63931
     246 -> 248       -0.28311

 Excited State   3:      Singlet-A      3.4134 eV  363.23 nm  f=0.1946  <S**2>=0.000
     239 -> 247        0.16907
     242 -> 247        0.47460
     244 -> 247       -0.16216
     245 -> 247        0.13336
     246 -> 248        0.41883

 Excited State   4:      Singlet-A      3.4879 eV  355.47 nm  f=0.0016  <S**2>=0.000
     240 -> 247        0.55254
     240 -> 249       -0.33673
     240 -> 250        0.19987

 Excited State   5:      Singlet-A      3.6097 eV  343.47 nm  f=0.2515  <S**2>=0.000
     242 -> 247       -0.11695
     243 -> 247        0.30711
     243 -> 249        0.18487
     243 -> 250        0.14907
     244 -> 247        0.38731
     244 -> 249        0.11727
     245 -> 247        0.15901
     246 -> 248        0.33347

 The electronic state is 1-A.
 Alpha  occ. eigenvalues --  -46.96069 -19.30439 -19.28592 -19.24986 -19.23814
 Alpha  occ. eigenvalues --  -19.23474 -19.22283 -14.47173 -14.46413 -14.44297
 Alpha  occ. eigenvalues --  -14.44140 -10.43216 -10.41734 -10.39028 -10.36977
 Alpha  occ. eigenvalues --  -10.36154 -10.35898 -10.35720 -10.35501 -10.35097
 Alpha  occ. eigenvalues --  -10.34962 -10.34069 -10.33707 -10.33527 -10.32974
 Alpha  occ. eigenvalues --  -10.32809 -10.32593 -10.32592 -10.32377 -10.32102
 Alpha  occ. eigenvalues --  -10.32050 -10.31993 -10.31986 -10.31918 -10.31764
 Alpha  occ. eigenvalues --  -10.31402 -10.31358 -10.31097 -10.31096 -10.31083
 Alpha  occ. eigenvalues --  -10.31062 -10.30677 -10.30570 -10.30419 -10.30323
 Alpha  occ. eigenvalues --  -10.30229 -10.30219 -10.30143 -10.30135 -10.29956
 Alpha  occ. eigenvalues --  -10.29885 -10.29676 -10.29617 -10.29610 -10.29521
 Alpha  occ. eigenvalues --  -10.28979 -10.28959 -10.28813 -10.28755 -10.28687
 Alpha  occ. eigenvalues --  -10.28555 -10.28503 -10.28431 -10.28331 -10.28096
 Alpha  occ. eigenvalues --  -10.27704  -3.21875  -1.95474  -1.95028  -1.94795
 Alpha  occ. eigenvalues --   -1.18608  -1.15656  -1.11160  -1.10669  -1.09614
 Alpha  occ. eigenvalues --   -1.08039  -1.07675  -1.05700  -1.05010  -1.03570
 Alpha  occ. eigenvalues --   -0.94040  -0.92543  -0.91706  -0.91518  -0.91185
 Alpha  occ. eigenvalues --   -0.90439  -0.90190  -0.89199  -0.89159  -0.88647
 Alpha  occ. eigenvalues --   -0.87440  -0.87111  -0.86612  -0.85228  -0.84982
 Alpha  occ. eigenvalues --   -0.84236  -0.84086  -0.83173  -0.82571  -0.82127
 Alpha  occ. eigenvalues --   -0.81802  -0.80255  -0.79591  -0.79281  -0.78298
 Alpha  occ. eigenvalues --   -0.77177  -0.76968  -0.76782  -0.76738  -0.76047
 Alpha  occ. eigenvalues --   -0.75517  -0.74411  -0.73407  -0.72602  -0.72240
 Alpha  occ. eigenvalues --   -0.70918  -0.70679  -0.69265  -0.68437  -0.67553
 Alpha  occ. eigenvalues --   -0.67152  -0.67045  -0.66661  -0.66248  -0.66210
 Alpha  occ. eigenvalues --   -0.65205  -0.65112  -0.64054  -0.62822  -0.62182
 Alpha  occ. eigenvalues --   -0.61630  -0.61261  -0.60491  -0.60153  -0.59594
 Alpha  occ. eigenvalues --   -0.59268  -0.58767  -0.58104  -0.57913  -0.57432
 Alpha  occ. eigenvalues --   -0.57325  -0.56872  -0.56656  -0.56386  -0.56113
 Alpha  occ. eigenvalues --   -0.55619  -0.55148  -0.54895  -0.54837  -0.54423
 Alpha  occ. eigenvalues --   -0.54345  -0.53972  -0.53780  -0.53712  -0.53532
 Alpha  occ. eigenvalues --   -0.53202  -0.52891  -0.52805  -0.52595  -0.52344
 Alpha  occ. eigenvalues --   -0.52293  -0.51952  -0.51541  -0.51426  -0.51358
 Alpha  occ. eigenvalues --   -0.51145  -0.51055  -0.50959  -0.50831  -0.50764
 Alpha  occ. eigenvalues --   -0.50555  -0.50267  -0.50105  -0.49743  -0.49675
 Alpha  occ. eigenvalues --   -0.49441  -0.48875  -0.48529  -0.48490  -0.48351
 Alpha  occ. eigenvalues --   -0.48273  -0.47990  -0.47870  -0.47632  -0.47508
 Alpha  occ. eigenvalues --   -0.47447  -0.47276  -0.47004  -0.46869  -0.46511
 Alpha  occ. eigenvalues --   -0.46273  -0.46157  -0.45963  -0.45831  -0.45642
 Alpha  occ. eigenvalues --   -0.45504  -0.45349  -0.45207  -0.44887  -0.44785
 Alpha  occ. eigenvalues --   -0.44455  -0.44335  -0.44242  -0.44159  -0.44008
 Alpha  occ. eigenvalues --   -0.43665  -0.43541  -0.43394  -0.43254  -0.43227
 Alpha  occ. eigenvalues --   -0.43004  -0.42922  -0.42609  -0.42473  -0.42406
 Alpha  occ. eigenvalues --   -0.42313  -0.41909  -0.41282  -0.41099  -0.40983
 Alpha  occ. eigenvalues --   -0.40254  -0.40112  -0.40024  -0.39547  -0.39184
 Alpha  occ. eigenvalues --   -0.38794  -0.38788  -0.38562  -0.38307  -0.38267
 Alpha  occ. eigenvalues --   -0.37823  -0.37014  -0.36100  -0.35939  -0.35750
 Alpha  occ. eigenvalues --   -0.35579  -0.35258  -0.34771  -0.33462  -0.33124
 Alpha  occ. eigenvalues --   -0.32675  -0.32419  -0.31699  -0.31514  -0.25639
 Alpha  occ. eigenvalues --   -0.22979
 Alpha virt. eigenvalues --   -0.06789   0.00197   0.02308   0.04571   0.05772
 Alpha virt. eigenvalues --    0.05976   0.07277   0.07747   0.08511   0.09250
 Alpha virt. eigenvalues --    0.10384   0.11912   0.12221   0.12484   0.12654

 Mulliken charges:
               1
     1  Mg   0.949459
     2  C    0.014711
     3  C   -0.090439
     4  C   -0.048575
     5  C   -0.087949
     6  N   -0.314461
     7  C    0.000131
     8  C   -0.111948
     9  C   -0.095482
    10  C    0.078195
    11  C    0.026144
    12  C    0.058060
    13  C    0.003800
    14  C    0.194865
    15  O   -0.261420
    16  O   -0.374471
    17  N   -0.486334
    18  C    0.139951
    19  C   -0.180705
    20  C   -0.072382
    21  C    0.161202
    22  C    0.073371
    23  C    0.036362
    24  O   -0.262026
    25  C    0.006543
    26  N   -0.272053
    27  C    0.015641
    28  C   -0.109963
    29  C    0.029127
    30  C   -0.039871
    31  C   -0.003594
    32  C   -0.032792
    33  C   -0.036077
    34  N   -0.476398
    35  C    0.148829
    36  C   -0.176043
    37  C    0.007963
    38  C    0.137681
    39  C    0.087045
    40  C    0.032139
    41  O   -0.199542
    42  C   -0.060748
    43  C    0.263168
    44  O   -0.259581
    45  O   -0.381959
    46  C    0.141918
    47  C    0.252910
    48  C   -0.102665
    49  C   -0.215377
    50  C    0.002902
    51  C    0.043311
    52  C   -0.036946
    53  C   -0.006612
    54  C   -0.162379
    55  C    0.011976
    56  C    0.008603
    57  C   -0.069912
    58  C    0.033585
    59  C   -0.197636
    60  C    0.013066
    61  C    0.025006
    62  C   -0.072014
    63  C    0.008524
    64  C   -0.221963
    65  C   -0.003242
    66  C   -0.034428
    67  H    0.007822
    68  H    0.028808
    69  H   -0.009055
    70  H    0.071160
    71  H    0.045251
    72  H    0.035085
    73  H    0.046095
    74  H    0.029104
    75  H    0.030069
    76  H    0.036538
    77  H    0.050320
    78  H    0.057899
    79  H    0.047408
    80  H    0.063859
    81  H    0.045893
    82  H    0.050715
    83  H    0.050271
    84  H    0.058308
    85  H    0.052172
    86  H    0.036504
    87  H    0.045648
    88  H    0.036926
    89  H    0.063876
    90  H    0.030749
    91  H    0.025123
    92  H    0.049724
    93  H    0.041041
    94  H    0.038719
    95  H    0.043779
    96  H    0.031205
    97  H    0.051775
    98  H    0.071405
    99  H    0.056487
   100  H    0.059103
   101  H    0.046885
   102  H    0.033644
   103  H    0.050966
   104  H    0.011360
   105  H    0.042027
   106  H    0.058549
   107  H    0.056975
   108  H    0.021812
   109  H    0.043963
   110  H    0.025260
   111  H    0.033015
   112  H    0.019185
   113  H    0.017202
   114  H    0.016375
   115  H    0.025448
   116  H    0.019473
   117  H    0.025977
   118  H    0.012450
   119  H    0.018464
   120  H    0.012486
   121  H    0.018747
   122  H    0.017662
   123  H    0.013981
   124  H    0.018174
   125  H    0.027018
   126  H    0.019242
   127  H    0.030255
   128  H    0.021020
   129  H    0.021850
   130  H    0.023696
   131  H    0.016408
   132  H    0.015474
   133  H    0.019945
   134  H    0.032497
   135  H    0.023946
   136  H    0.032829
   137  H    0.041710
   138  H    0.033333
   139  H    0.024158
   140  H    0.028556
 Sum of Mulliken charges =  -0.00000

 Dipole moment (field-independent basis, Debye):
    X=             -4.7579    Y=              4.3779    Z=              2.4380  Tot=              6.9099
 Quadrupole moment (field-independent basis, Debye-Ang):
   XX=           -369.8805   YY=           -429.6007   ZZ=           -403.9728
   XY=             32.6655   XZ=             12.2599   YZ=             -5.9142

 Normal termination of Gaussian 16 at Fri Apr 29 10:38:11 2022.
