 Gaussian 16, Revision A.03,
 Gaussian 16:  ES64L-G16RevA.03 25-Dec-2016

 --------------------
 #p ZINDO=(nstates=5)
 --------------------

 -----------------------------
 step_251_chromophore_18 ZINDO
 -----------------------------
 Symbolic Z-matrix:
 Charge =  0 Multiplicity = 1

                         Standard orientation:
 ---------------------------------------------------------------------
 Center     Atomic      Atomic             Coordinates (Angstroms)
 Number     Number       Type             X           Y           Z
 ---------------------------------------------------------------------
      1         12           0        5.435809    1.159685    0.105315
      2          6           0        4.506375   -2.266583    0.367829
      3          6           0        2.098028    1.961780   -0.090767
      4          6           0        6.488312    4.277937   -0.190692
      5          6           0        8.870650    0.141835   -0.186525
      6          7           0        3.449997   -0.052698    0.066192
      7          6           0        3.391175   -1.415025    0.296226
      8          6           0        1.868304   -1.779579    0.359720
      9          6           0        1.060651   -0.387912    0.164915
     10          6           0        2.263020    0.551159    0.024407
     11          6           0        0.024266   -0.357901   -0.977665
     12          6           0        1.390283   -2.669115    1.580789
     13          6           0        0.735953   -3.971081    1.220251
     14          6           0       -0.012923   -4.201459   -0.065794
     15          8           0        0.230073   -5.036253   -0.942086
     16          8           0       -1.057926   -3.321820   -0.100090
     17          7           0        4.380265    2.973270    0.009289
     18          6           0        3.026754    3.071165   -0.069579
     19          6           0        2.726904    4.475869    0.037428
     20          6           0        3.954522    5.160324   -0.093331
     21          6           0        5.063227    4.151843   -0.126145
     22          6           0        1.264272    4.949378    0.081652
     23          6           0        4.151910    6.630410   -0.307953
     24          8           0        5.287035    7.114525   -0.530154
     25          6           0        2.971613    7.529456   -0.315382
     26          7           0        7.453640    2.032215   -0.219039
     27          6           0        7.591390    3.312308   -0.223621
     28          6           0        9.105307    3.888385   -0.281578
     29          6           0        9.848527    2.543972   -0.299765
     30          6           0        8.728016    1.535369   -0.232265
     31          6           0        9.283128    4.774206   -1.568760
     32          6           0       10.914364    2.307998    0.827437
     33          6           0       10.369393    2.056998    2.253527
     34          7           0        6.430498   -0.621629   -0.030748
     35          6           0        7.819660   -0.849286   -0.172235
     36          6           0        8.049604   -2.297016   -0.072591
     37          6           0        6.781283   -2.885907    0.147475
     38          6           0        5.824830   -1.816702    0.208408
     39          6           0        9.438046   -2.999490   -0.152366
     40          6           0        6.183671   -4.096666    0.355938
     41          8           0        6.616078   -5.231213    0.360235
     42          6           0        4.673765   -3.801068    0.576126
     43          6           0        3.910405   -4.608127   -0.347488
     44          8           0        3.613831   -4.272396   -1.499661
     45          8           0        3.765099   -5.902367    0.166008
     46          6           0        3.161462   -6.871374   -0.782007
     47          6           0       -2.033648   -3.620882   -1.163417
     48          6           0       -3.379815   -2.931698   -0.974234
     49          6           0       -4.576021   -3.516937   -0.696185
     50          6           0       -4.817727   -5.028424   -0.679772
     51          6           0       -5.794842   -2.627318   -0.381926
     52          6           0       -5.745691   -1.328177    0.494429
     53          6           0       -6.635003   -0.212483   -0.018658
     54          6           0       -7.787717    0.107162    0.970322
     55          6           0       -7.407176    0.833183    2.242848
     56          6           0       -9.026973    0.896274    0.290242
     57          6           0      -10.203091   -0.022611   -0.029914
     58          6           0      -11.239542   -0.174836    1.089921
     59          6           0      -12.477164    0.784743    0.913354
     60          6           0      -13.148493    1.046329    2.292256
     61          6           0      -13.475109    0.230792   -0.110416
     62          6           0      -14.326629    1.336852   -0.828841
     63          6           0      -15.816464    1.262244   -0.426242
     64          6           0      -16.602521    2.510913   -0.999277
     65          6           0      -17.180449    3.245299    0.247059
     66          6           0      -17.879679    2.070749   -1.852657
     67          1           0        1.117216    2.320806   -0.410654
     68          1           0        6.805879    5.289870   -0.451003
     69          1           0        9.897428   -0.221137   -0.266139
     70          1           0        1.843438   -2.470521   -0.481952
     71          1           0        0.455225   -0.207661    1.052099
     72          1           0       -0.958701   -0.075046   -0.598840
     73          1           0       -0.081670   -1.267352   -1.568842
     74          1           0        0.399335    0.416069   -1.647292
     75          1           0        0.713544   -2.097478    2.216196
     76          1           0        2.301836   -2.927346    2.119814
     77          1           0       -0.139646   -4.060933    1.864161
     78          1           0        1.471522   -4.762452    1.359965
     79          1           0        0.578255    4.140783    0.334995
     80          1           0        0.985911    5.370424   -0.883589
     81          1           0        1.251523    5.713848    0.857856
     82          1           0        2.474019    7.404505    0.646349
     83          1           0        2.255086    7.239273   -1.084769
     84          1           0        3.269500    8.552903   -0.539662
     85          1           0        9.349050    4.455237    0.617299
     86          1           0       10.247757    2.362992   -1.298007
     87          1           0        8.604905    4.390922   -2.331079
     88          1           0       10.300432    4.635953   -1.936624
     89          1           0        9.109038    5.846878   -1.480247
     90          1           0       11.681508    3.080046    0.777100
     91          1           0       11.503667    1.438117    0.539076
     92          1           0        9.438664    2.557368    2.518772
     93          1           0       11.170596    2.267271    2.962921
     94          1           0       10.225675    0.978166    2.311214
     95          1           0        9.609659   -3.703605    0.661869
     96          1           0       10.272109   -2.300904   -0.208456
     97          1           0        9.413334   -3.739866   -0.952345
     98          1           0        4.533474   -4.143226    1.600952
     99          1           0        3.849631   -7.087754   -1.598741
    100          1           0        2.251274   -6.520876   -1.267283
    101          1           0        2.799540   -7.703907   -0.178437
    102          1           0       -2.135470   -4.705635   -1.189059
    103          1           0       -1.564341   -3.364221   -2.114131
    104          1           0       -3.472613   -1.857540   -0.814317
    105          1           0       -5.822200   -5.433190   -0.798631
    106          1           0       -4.506507   -5.357808    0.311400
    107          1           0       -4.207615   -5.458299   -1.473861
    108          1           0       -6.510564   -3.312003    0.072606
    109          1           0       -6.223410   -2.257741   -1.313568
    110          1           0       -4.760283   -0.873100    0.588990
    111          1           0       -6.000961   -1.604838    1.517539
    112          1           0       -7.068407   -0.407428   -1.000473
    113          1           0       -6.032620    0.683568   -0.164112
    114          1           0       -8.224447   -0.876410    1.143743
    115          1           0       -7.810185    1.826417    2.439231
    116          1           0       -6.326118    0.968139    2.283453
    117          1           0       -7.785368    0.347945    3.142653
    118          1           0       -8.716850    1.266281   -0.686384
    119          1           0       -9.577165    1.659371    0.840361
    120          1           0       -9.917938   -1.018593   -0.369697
    121          1           0      -10.512038    0.536662   -0.912289
    122          1           0      -10.809844   -0.124547    2.089597
    123          1           0      -11.651793   -1.178037    0.975852
    124          1           0      -12.157318    1.774771    0.587295
    125          1           0      -12.704865    0.413477    3.060604
    126          1           0      -14.208550    0.853499    2.127355
    127          1           0      -13.019469    2.068333    2.649226
    128          1           0      -14.178781   -0.439179    0.385046
    129          1           0      -13.032426   -0.324028   -0.938127
    130          1           0      -14.318061    1.312849   -1.918295
    131          1           0      -14.027607    2.351626   -0.564468
    132          1           0      -15.801298    1.213612    0.661862
    133          1           0      -16.236606    0.366628   -0.883718
    134          1           0      -15.975422    3.201636   -1.562651
    135          1           0      -17.361169    4.168237   -0.302384
    136          1           0      -16.373537    3.356858    0.971714
    137          1           0      -18.095785    2.777453    0.609895
    138          1           0      -18.689349    1.652227   -1.254862
    139          1           0      -17.514598    1.342149   -2.576217
    140          1           0      -18.366814    2.797709   -2.502595
 ---------------------------------------------------------------------

 SCF Done:  E(RZINDO/S) =  -473.997975386     A.U. after   19 cycles

 Excitation energies and oscillator strengths:

 Excited State   1:      Singlet-A      1.3132 eV  944.13 nm  f=0.5292  <S**2>=0.000
     175 ->178         0.17633
     176 ->177         0.66748
 This state for optimization and/or second-order correction.
 Total Energy, E(CIS/TDA) =  -473.949715631
 Copying the excited state density for this state as the 1-particle RhoCI density.

 Excited State   2:      Singlet-A      1.9147 eV  647.55 nm  f=0.0490  <S**2>=0.000
     175 ->177         0.54405
     176 ->178        -0.41945

 Excited State   3:      Singlet-A      2.8993 eV  427.64 nm  f=0.0856  <S**2>=0.000
     167 ->177         0.13788
     167 ->179        -0.18889
     167 ->180         0.11278
     168 ->177         0.32705
     168 ->179        -0.36559
     168 ->180         0.21039
     168 ->184         0.11377
     168 ->186         0.16341
     175 ->177        -0.10957
     176 ->178        -0.15812

 Excited State   4:      Singlet-A      2.9493 eV  420.38 nm  f=0.7777  <S**2>=0.000
     168 ->179        -0.11315
     170 ->177         0.11700
     175 ->177         0.32453
     176 ->178         0.45036
     176 ->179        -0.21940
     176 ->180        -0.16649

 Excited State   5:      Singlet-A      3.0138 eV  411.38 nm  f=0.0533  <S**2>=0.000
     171 ->177         0.27673
     171 ->178        -0.14991
     171 ->179         0.28852
     171 ->180         0.37923
     171 ->186        -0.16149
     171 ->189         0.17093
     171 ->205        -0.16605
     176 ->178        -0.11072

 The electronic state is 1-A.
 Alpha  occ. eigenvalues --   -1.82182  -1.80798  -1.79367  -1.74395  -1.70959
 Alpha  occ. eigenvalues --   -1.68796  -1.65410  -1.60863  -1.58077  -1.57186
 Alpha  occ. eigenvalues --   -1.54789  -1.50344  -1.48032  -1.47281  -1.46039
 Alpha  occ. eigenvalues --   -1.44704  -1.41678  -1.40210  -1.40123  -1.38540
 Alpha  occ. eigenvalues --   -1.36571  -1.32527  -1.31778  -1.30534  -1.28100
 Alpha  occ. eigenvalues --   -1.27823  -1.23757  -1.22475  -1.19968  -1.17602
 Alpha  occ. eigenvalues --   -1.16696  -1.15191  -1.14694  -1.14204  -1.13448
 Alpha  occ. eigenvalues --   -1.13088  -1.10458  -1.10058  -1.03816  -1.02947
 Alpha  occ. eigenvalues --   -1.02345  -1.00305  -0.99370  -0.98911  -0.97047
 Alpha  occ. eigenvalues --   -0.95894  -0.94391  -0.93633  -0.93312  -0.92751
 Alpha  occ. eigenvalues --   -0.90674  -0.89771  -0.88670  -0.88466  -0.86001
 Alpha  occ. eigenvalues --   -0.85767  -0.84192  -0.83604  -0.81608  -0.80816
 Alpha  occ. eigenvalues --   -0.79912  -0.78107  -0.77296  -0.77197  -0.76014
 Alpha  occ. eigenvalues --   -0.75610  -0.75310  -0.74928  -0.74243  -0.74088
 Alpha  occ. eigenvalues --   -0.73133  -0.72548  -0.72227  -0.71393  -0.71007
 Alpha  occ. eigenvalues --   -0.70133  -0.69299  -0.68906  -0.68386  -0.68031
 Alpha  occ. eigenvalues --   -0.67859  -0.67631  -0.66091  -0.65445  -0.65407
 Alpha  occ. eigenvalues --   -0.65104  -0.64539  -0.63958  -0.63676  -0.63362
 Alpha  occ. eigenvalues --   -0.62988  -0.62502  -0.62332  -0.61500  -0.61309
 Alpha  occ. eigenvalues --   -0.60842  -0.60750  -0.60078  -0.59924  -0.59830
 Alpha  occ. eigenvalues --   -0.59505  -0.59319  -0.58668  -0.58389  -0.58245
 Alpha  occ. eigenvalues --   -0.57951  -0.57754  -0.57435  -0.56216  -0.56214
 Alpha  occ. eigenvalues --   -0.55886  -0.55678  -0.55018  -0.54620  -0.54426
 Alpha  occ. eigenvalues --   -0.54047  -0.53438  -0.53184  -0.52814  -0.52643
 Alpha  occ. eigenvalues --   -0.52575  -0.52527  -0.51624  -0.51516  -0.51212
 Alpha  occ. eigenvalues --   -0.51084  -0.50910  -0.50699  -0.50289  -0.50253
 Alpha  occ. eigenvalues --   -0.50138  -0.49550  -0.49405  -0.49357  -0.48889
 Alpha  occ. eigenvalues --   -0.48793  -0.48695  -0.48543  -0.48347  -0.47834
 Alpha  occ. eigenvalues --   -0.47365  -0.47290  -0.46906  -0.46622  -0.46285
 Alpha  occ. eigenvalues --   -0.46198  -0.46049  -0.45792  -0.45363  -0.45044
 Alpha  occ. eigenvalues --   -0.44962  -0.44918  -0.44451  -0.44388  -0.44200
 Alpha  occ. eigenvalues --   -0.43738  -0.43599  -0.42499  -0.42075  -0.41941
 Alpha  occ. eigenvalues --   -0.41620  -0.41327  -0.40453  -0.38336  -0.38154
 Alpha  occ. eigenvalues --   -0.37221  -0.36784  -0.35876  -0.34574  -0.34063
 Alpha  occ. eigenvalues --   -0.33218  -0.32821  -0.32238  -0.31569  -0.26484
 Alpha  occ. eigenvalues --   -0.21824
 Alpha virt. eigenvalues --   -0.08242  -0.02065  -0.00717   0.01358   0.02208
 Alpha virt. eigenvalues --    0.02394   0.03079   0.03415   0.04014   0.04752
 Alpha virt. eigenvalues --    0.06181   0.06409   0.07054   0.07561   0.07991

 Mulliken charges:
               1
     1  Mg   0.434628
     2  C   -0.036560
     3  C   -0.115971
     4  C   -0.082850
     5  C   -0.057496
     6  N   -0.285509
     7  C    0.103400
     8  C   -0.014605
     9  C    0.007832
    10  C    0.182177
    11  C   -0.049821
    12  C   -0.018275
    13  C    0.007668
    14  C    0.475080
    15  O   -0.517011
    16  O   -0.276340
    17  N   -0.328915
    18  C    0.139531
    19  C    0.025716
    20  C   -0.022875
    21  C    0.138371
    22  C   -0.043307
    23  C    0.326430
    24  O   -0.535454
    25  C   -0.026817
    26  N   -0.231989
    27  C    0.170164
    28  C    0.004686
    29  C    0.012165
    30  C    0.074747
    31  C   -0.050308
    32  C   -0.025765
    33  C   -0.052356
    34  N   -0.314736
    35  C    0.046201
    36  C    0.012647
    37  C   -0.062409
    38  C    0.108196
    39  C   -0.047032
    40  C    0.342481
    41  O   -0.546260
    42  C    0.059291
    43  C    0.488295
    44  O   -0.527341
    45  O   -0.273084
    46  C    0.069711
    47  C    0.107180
    48  C   -0.104156
    49  C    0.003650
    50  C   -0.043490
    51  C   -0.027395
    52  C   -0.027931
    53  C   -0.024947
    54  C   -0.009592
    55  C   -0.052907
    56  C   -0.052372
    57  C   -0.043882
    58  C   -0.032612
    59  C   -0.009060
    60  C   -0.064833
    61  C   -0.028728
    62  C   -0.047383
    63  C   -0.040904
    64  C   -0.022909
    65  C   -0.070143
    66  C   -0.064435
    67  H    0.021560
    68  H    0.043428
    69  H    0.027373
    70  H    0.050262
    71  H    0.034120
    72  H    0.019785
    73  H    0.036015
    74  H    0.019401
    75  H    0.024365
    76  H    0.023203
    77  H    0.036381
    78  H    0.042423
    79  H    0.031311
    80  H    0.037273
    81  H    0.029564
    82  H    0.038827
    83  H    0.035625
    84  H    0.040183
    85  H    0.039465
    86  H    0.033847
    87  H    0.024482
    88  H    0.016225
    89  H    0.032379
    90  H    0.015441
    91  H    0.015152
    92  H    0.030301
    93  H    0.016937
    94  H    0.020820
    95  H    0.030009
    96  H    0.026080
    97  H    0.035922
    98  H    0.054449
    99  H    0.052600
   100  H    0.046688
   101  H    0.029961
   102  H    0.047721
   103  H    0.047073
   104  H    0.031970
   105  H    0.025767
   106  H    0.031085
   107  H    0.027754
   108  H    0.017122
   109  H    0.029901
   110  H    0.019099
   111  H    0.018281
   112  H    0.020755
   113  H    0.012771
   114  H    0.021122
   115  H    0.017814
   116  H    0.014089
   117  H    0.015724
   118  H    0.013510
   119  H    0.031162
   120  H    0.013830
   121  H    0.016091
   122  H    0.025149
   123  H    0.010420
   124  H    0.020370
   125  H    0.020713
   126  H    0.022781
   127  H    0.016552
   128  H    0.020989
   129  H    0.016254
   130  H    0.018302
   131  H    0.015859
   132  H    0.027301
   133  H    0.019039
   134  H    0.033329
   135  H    0.016077
   136  H    0.021077
   137  H    0.032870
   138  H    0.023726
   139  H    0.007595
   140  H    0.017616
 Sum of Mulliken charges =   0.00000

 Dipole moment (field-independent basis, Debye):
    X=             -7.8846    Y=              7.3601    Z=              4.7397  Tot=             11.7815
 N-N= 4.267155749245D+03 E-N= 0.000000000000D+00  KE=-9.208790139575D+03
 Leave Link  601 at Fri Apr 29 10:49:32 2022, MaxMem=  6710886400 cpu:               0.8 elap:               0.1
 (Enter /sw/apps/gaussian-16.0/g16/l9999.exe)
 1\1\GINC-BP1-COMPUTE155\SP\RZINDO CIS\STO-3G\C55H74Mg1N4O6\OF15641\29-
 Apr-2022\0\\#p ZINDO=(nstates=5)\\step_251_chromophore_18 ZINDO\\0,1\M
 g,0,34.813,49.432,25.145\C,0,35.016,47.657,28.224\C,0,33.324,52.028,26
 .838\C,0,34.652,50.9,22.189\C,0,35.906,46.466,23.434\N,0,34.149,49.798
 ,27.345\C,0,34.461,48.938,28.382\C,0,33.988,49.651,29.695\C,0,33.385,5
 1.085,29.24\C,0,33.617,50.957,27.731\C,0,31.942,51.39,29.693\C,0,35.01
 9,49.706,30.897\C,0,34.559,49.073,32.178\C,0,33.113,48.967,32.585\O,0,

 Normal termination of Gaussian 16 at Fri Apr 29 10:49:32 2022.
