 Gaussian 16, Revision A.03,
 Gaussian 16:  ES64L-G16RevA.03 25-Dec-2016

 ------------------------------
 #p blyp/Def2SVP td=(nstates=5)
 ------------------------------

 ---------------------------------------------------
 step_1201_chromophore_26 TDDFT with blyp functional
 ---------------------------------------------------
 Symbolic Z-matrix:
 Charge =  0 Multiplicity = 1

                         Standard orientation:
 ---------------------------------------------------------------------
 Center     Atomic      Atomic             Coordinates (Angstroms)
 Number     Number       Type             X           Y           Z
 ---------------------------------------------------------------------
      1         12           0       -3.618041    1.498655    0.467746
      2          6           0       -4.750449   -1.714206   -0.404006
      3          6           0       -2.166688    0.150926    3.310510
      4          6           0       -2.075362    4.387316    0.843251
      5          6           0       -4.960113    2.586179   -2.626430
      6          7           0       -3.154192   -0.715408    1.207410
      7          6           0       -3.961954   -1.760205    0.771170
      8          6           0       -3.950486   -2.904077    1.762929
      9          6           0       -3.395056   -2.210556    3.072459
     10          6           0       -2.892853   -0.834286    2.565256
     11          6           0       -4.447119   -1.984076    4.212660
     12          6           0       -3.415354   -4.314746    1.389650
     13          6           0       -2.362680   -4.344670    0.208664
     14          6           0       -1.088568   -5.146506    0.432140
     15          8           0       -1.049127   -6.315329    0.864335
     16          8           0        0.008302   -4.353118    0.142205
     17          7           0       -2.311692    2.225791    2.037930
     18          6           0       -1.864557    1.507088    3.058922
     19          6           0       -1.090876    2.409394    3.842881
     20          6           0       -1.170274    3.705142    3.330471
     21          6           0       -1.869483    3.525243    1.995067
     22          6           0       -0.310114    2.019385    5.015557
     23          6           0       -0.568750    4.939733    3.850690
     24          8           0       -0.097900    4.816235    4.990835
     25          6           0       -0.680250    6.343336    3.215713
     26          7           0       -3.517210    3.242813   -0.798589
     27          6           0       -2.777976    4.238127   -0.384420
     28          6           0       -2.934973    5.449266   -1.312191
     29          6           0       -3.812780    4.901334   -2.466232
     30          6           0       -4.108164    3.505974   -1.947087
     31          6           0       -3.396075    6.766765   -0.635659
     32          6           0       -3.183527    4.871943   -3.915886
     33          6           0       -2.801131    6.215298   -4.626660
     34          7           0       -4.644300    0.678366   -1.192361
     35          6           0       -5.192122    1.259812   -2.316291
     36          6           0       -5.953865    0.315680   -3.060763
     37          6           0       -5.840509   -0.901532   -2.315890
     38          6           0       -4.991085   -0.595892   -1.235133
     39          6           0       -6.685553    0.513314   -4.378040
     40          6           0       -6.293766   -2.260275   -2.194238
     41          8           0       -7.009396   -2.817281   -2.985670
     42          6           0       -5.614711   -2.854894   -0.999870
     43          6           0       -6.633755   -3.526523   -0.100381
     44          8           0       -6.558742   -4.728375    0.159855
     45          8           0       -7.659375   -2.673436    0.195506
     46          6           0       -8.764633   -3.140073    0.993338
     47          6           0        1.294109   -4.961420    0.402194
     48          6           0        2.467592   -4.229187   -0.229002
     49          6           0        2.905394   -4.082467   -1.501173
     50          6           0        2.042396   -4.344511   -2.695526
     51          6           0        4.246969   -3.339019   -1.739192
     52          6           0        4.068119   -1.819692   -2.029243
     53          6           0        5.507183   -1.125938   -2.381154
     54          6           0        6.046769   -0.031304   -1.358823
     55          6           0        5.958680    1.366281   -1.967999
     56          6           0        7.532948   -0.227248   -0.830631
     57          6           0        7.652942    0.180753    0.679006
     58          6           0        8.397105   -0.808488    1.564993
     59          6           0        9.582999   -0.176468    2.313354
     60          6           0        9.956498   -0.952838    3.555617
     61          6           0       10.898013   -0.175955    1.437918
     62          6           0       11.135272    0.791840    0.244810
     63          6           0       11.445705   -0.046135   -1.029402
     64          6           0       12.409883    0.747869   -1.956058
     65          6           0       11.889245    0.992325   -3.430280
     66          6           0       13.817997    0.111863   -1.853864
     67          1           0       -1.850383   -0.288432    4.258220
     68          1           0       -1.621839    5.380211    0.879691
     69          1           0       -5.374554    2.968352   -3.561684
     70          1           0       -4.994356   -3.087593    2.017935
     71          1           0       -2.549897   -2.806918    3.417182
     72          1           0       -4.595434   -2.944959    4.704706
     73          1           0       -5.366717   -1.557809    3.810767
     74          1           0       -4.079340   -1.269481    4.948444
     75          1           0       -4.235246   -4.987217    1.136232
     76          1           0       -2.833091   -4.648489    2.248375
     77          1           0       -2.165181   -3.283376    0.057730
     78          1           0       -2.913397   -4.692717   -0.665837
     79          1           0        0.745979    2.287392    5.004553
     80          1           0       -0.440263    0.965026    5.257535
     81          1           0       -0.716224    2.556328    5.872612
     82          1           0       -1.702569    6.404476    2.843327
     83          1           0        0.022831    6.290461    2.385086
     84          1           0       -0.375038    7.085291    3.954112
     85          1           0       -1.921429    5.577907   -1.694531
     86          1           0       -4.735450    5.481356   -2.449748
     87          1           0       -4.446218    6.984127   -0.829884
     88          1           0       -2.972882    7.624651   -1.157445
     89          1           0       -3.278503    6.668848    0.443588
     90          1           0       -3.727828    4.221714   -4.599846
     91          1           0       -2.272484    4.318495   -3.687447
     92          1           0       -2.964107    7.203091   -4.196560
     93          1           0       -3.458899    6.201325   -5.495504
     94          1           0       -1.770436    6.215641   -4.982478
     95          1           0       -7.212730   -0.390421   -4.684360
     96          1           0       -6.015334    0.928074   -5.130571
     97          1           0       -7.363855    1.339076   -4.163577
     98          1           0       -4.875837   -3.591417   -1.315222
     99          1           0       -9.077746   -2.271646    1.573107
    100          1           0       -8.621619   -3.939048    1.721154
    101          1           0       -9.630959   -3.525387    0.455407
    102          1           0        1.233991   -5.983320    0.028285
    103          1           0        1.526467   -4.966182    1.467306
    104          1           0        3.209566   -3.858587    0.478101
    105          1           0        0.979310   -4.482064   -2.501661
    106          1           0        2.408335   -5.167757   -3.309357
    107          1           0        2.189918   -3.505039   -3.374862
    108          1           0        4.888898   -3.768445   -2.508026
    109          1           0        4.880084   -3.309839   -0.852183
    110          1           0        3.718595   -1.277732   -1.150350
    111          1           0        3.380646   -1.617828   -2.850277
    112          1           0        5.451382   -0.644447   -3.357905
    113          1           0        6.253409   -1.920210   -2.396306
    114          1           0        5.381001    0.052375   -0.499986
    115          1           0        4.905325    1.619519   -2.080630
    116          1           0        6.514512    1.178229   -2.886346
    117          1           0        6.461649    2.125106   -1.366741
    118          1           0        8.233516    0.399961   -1.383470
    119          1           0        7.645465   -1.305893   -0.941143
    120          1           0        6.662663    0.308385    1.114824
    121          1           0        8.025603    1.184877    0.880083
    122          1           0        8.770527   -1.705570    1.070632
    123          1           0        7.727312   -1.198066    2.331151
    124          1           0        9.353624    0.808728    2.719651
    125          1           0       10.065907   -2.020246    3.365587
    126          1           0        9.186890   -0.660243    4.270289
    127          1           0       10.842369   -0.494544    3.996832
    128          1           0       11.218564   -1.156507    1.085355
    129          1           0       11.691420    0.077174    2.141954
    130          1           0       11.881590    1.537486    0.519116
    131          1           0       10.199663    1.340589    0.137797
    132          1           0       10.479617   -0.245371   -1.493902
    133          1           0       11.882789   -1.003538   -0.744184
    134          1           0       12.496897    1.729226   -1.489580
    135          1           0       12.418513    1.852133   -3.842255
    136          1           0       10.829935    1.232730   -3.346863
    137          1           0       11.999566    0.247150   -4.218552
    138          1           0       14.103363   -0.499658   -2.709796
    139          1           0       13.915303   -0.543328   -0.987893
    140          1           0       14.613739    0.855438   -1.906163
 ---------------------------------------------------------------------

 SCF Done:  E(RB-LYP) =  -3007.37814652     A.U. after   21 cycles

 Excitation energies and oscillator strengths:

 Excited State   1:      Singlet-A      1.7082 eV  725.82 nm  f=0.0105  <S**2>=0.000
     244 -> 247        0.63633
     245 -> 247        0.28044
     246 -> 247       -0.12174
 This state for optimization and/or second-order correction.
 Total Energy, E(TD-HF/TD-DFT) =  -3007.31537117
 Copying the excited state density for this state as the 1-particle RhoCI density.

 Excited State   2:      Singlet-A      1.8016 eV  688.18 nm  f=0.2449  <S**2>=0.000
     243 -> 247       -0.15471
     245 -> 248        0.18668
     246 -> 247        0.65767
     246 <- 247       -0.13491

 Excited State   3:      Singlet-A      1.9213 eV  645.32 nm  f=0.0327  <S**2>=0.000
     243 -> 247        0.64334
     244 -> 247        0.12503
     245 -> 247       -0.19956
     246 -> 247        0.14949

 Excited State   4:      Singlet-A      2.0276 eV  611.47 nm  f=0.0561  <S**2>=0.000
     243 -> 247        0.24467
     244 -> 247       -0.24820
     245 -> 247        0.54620
     246 -> 248       -0.25365

 Excited State   5:      Singlet-A      2.2984 eV  539.44 nm  f=0.0005  <S**2>=0.000
     242 -> 247        0.70615

 The electronic state is 1-A.
 Alpha  occ. eigenvalues --  -46.29694 -18.83943 -18.82123 -18.77628 -18.76795
 Alpha  occ. eigenvalues --  -18.75455 -18.74849 -14.03744 -14.03452 -14.01517
 Alpha  occ. eigenvalues --  -14.01076 -10.05180 -10.04150  -9.99471  -9.99110
 Alpha  occ. eigenvalues --   -9.98567  -9.97567  -9.97276  -9.97070  -9.97012
 Alpha  occ. eigenvalues --   -9.97005  -9.96716  -9.95813  -9.95320  -9.94724
 Alpha  occ. eigenvalues --   -9.94475  -9.94404  -9.94296  -9.94249  -9.94116
 Alpha  occ. eigenvalues --   -9.94006  -9.93964  -9.93912  -9.93871  -9.93579
 Alpha  occ. eigenvalues --   -9.93328  -9.93213  -9.93191  -9.93176  -9.92987
 Alpha  occ. eigenvalues --   -9.92936  -9.92923  -9.92863  -9.92820  -9.92700
 Alpha  occ. eigenvalues --   -9.92613  -9.92597  -9.92327  -9.92036  -9.91908
 Alpha  occ. eigenvalues --   -9.91817  -9.91791  -9.91634  -9.91518  -9.91448
 Alpha  occ. eigenvalues --   -9.91084  -9.91002  -9.90939  -9.90723  -9.90719
 Alpha  occ. eigenvalues --   -9.90696  -9.90686  -9.90620  -9.90502  -9.90282
 Alpha  occ. eigenvalues --   -9.90202  -2.93955  -1.74373  -1.73894  -1.73624
 Alpha  occ. eigenvalues --   -0.98878  -0.97111  -0.92378  -0.90824  -0.90630
 Alpha  occ. eigenvalues --   -0.89057  -0.89052  -0.86927  -0.86531  -0.84695
 Alpha  occ. eigenvalues --   -0.76114  -0.73057  -0.72775  -0.72726  -0.72371
 Alpha  occ. eigenvalues --   -0.72138  -0.71404  -0.70808  -0.70533  -0.70439
 Alpha  occ. eigenvalues --   -0.69891  -0.68996  -0.68127  -0.67788  -0.67129
 Alpha  occ. eigenvalues --   -0.66530  -0.66087  -0.65651  -0.65347  -0.64887
 Alpha  occ. eigenvalues --   -0.64325  -0.62976  -0.62478  -0.61870  -0.61553
 Alpha  occ. eigenvalues --   -0.60474  -0.60039  -0.60012  -0.59142  -0.58383
 Alpha  occ. eigenvalues --   -0.58199  -0.57849  -0.57481  -0.56004  -0.55627
 Alpha  occ. eigenvalues --   -0.54380  -0.53471  -0.53268  -0.52536  -0.52179
 Alpha  occ. eigenvalues --   -0.51997  -0.51360  -0.51112  -0.50716  -0.50343
 Alpha  occ. eigenvalues --   -0.49680  -0.49485  -0.48848  -0.48636  -0.46946
 Alpha  occ. eigenvalues --   -0.46064  -0.45798  -0.45708  -0.45001  -0.44733
 Alpha  occ. eigenvalues --   -0.44443  -0.43663  -0.43615  -0.43361  -0.42890
 Alpha  occ. eigenvalues --   -0.42540  -0.42156  -0.42040  -0.41930  -0.41332
 Alpha  occ. eigenvalues --   -0.40877  -0.40485  -0.40382  -0.40268  -0.39871
 Alpha  occ. eigenvalues --   -0.39768  -0.39675  -0.39380  -0.39199  -0.39078
 Alpha  occ. eigenvalues --   -0.38987  -0.38721  -0.38641  -0.38509  -0.38385
 Alpha  occ. eigenvalues --   -0.38133  -0.37812  -0.37567  -0.37409  -0.37123
 Alpha  occ. eigenvalues --   -0.36948  -0.36765  -0.36605  -0.36400  -0.36334
 Alpha  occ. eigenvalues --   -0.36280  -0.36160  -0.36099  -0.35867  -0.35774
 Alpha  occ. eigenvalues --   -0.35550  -0.35436  -0.35093  -0.34970  -0.34848
 Alpha  occ. eigenvalues --   -0.34769  -0.34399  -0.34215  -0.34171  -0.34144
 Alpha  occ. eigenvalues --   -0.33881  -0.33787  -0.33668  -0.33502  -0.33465
 Alpha  occ. eigenvalues --   -0.33358  -0.32921  -0.32742  -0.32626  -0.32527
 Alpha  occ. eigenvalues --   -0.32362  -0.32265  -0.32045  -0.31661  -0.31473
 Alpha  occ. eigenvalues --   -0.31397  -0.31189  -0.31067  -0.30835  -0.30445
 Alpha  occ. eigenvalues --   -0.30351  -0.30221  -0.30005  -0.29932  -0.29851
 Alpha  occ. eigenvalues --   -0.29530  -0.29278  -0.29088  -0.29037  -0.28936
 Alpha  occ. eigenvalues --   -0.28883  -0.28570  -0.28491  -0.28220  -0.28163
 Alpha  occ. eigenvalues --   -0.27723  -0.27611  -0.27186  -0.26728  -0.26628
 Alpha  occ. eigenvalues --   -0.26543  -0.26197  -0.26111  -0.26107  -0.25718
 Alpha  occ. eigenvalues --   -0.24942  -0.24933  -0.24439  -0.23854  -0.23561
 Alpha  occ. eigenvalues --   -0.23446  -0.22731  -0.22126  -0.21911  -0.20736
 Alpha  occ. eigenvalues --   -0.20388  -0.20226  -0.18749  -0.18054  -0.17523
 Alpha  occ. eigenvalues --   -0.16149
 Alpha virt. eigenvalues --   -0.11782  -0.07473  -0.06344  -0.04783  -0.04154
 Alpha virt. eigenvalues --   -0.03617  -0.03246  -0.02798  -0.02000  -0.00190
 Alpha virt. eigenvalues --    0.00853   0.01409   0.02175   0.02461   0.03011

 Mulliken charges:
               1
     1  Mg   0.662318
     2  C   -0.025051
     3  C   -0.065642
     4  C   -0.046557
     5  C   -0.104265
     6  N   -0.210367
     7  C   -0.110520
     8  C    0.027879
     9  C    0.009535
    10  C   -0.032478
    11  C    0.128002
    12  C    0.127348
    13  C    0.080438
    14  C    0.099284
    15  O   -0.209865
    16  O   -0.258540
    17  N   -0.257935
    18  C    0.170836
    19  C   -0.149265
    20  C    0.080453
    21  C    0.100728
    22  C    0.214854
    23  C   -0.135038
    24  O   -0.199576
    25  C    0.156425
    26  N   -0.146219
    27  C   -0.041110
    28  C    0.015927
    29  C    0.093040
    30  C   -0.061926
    31  C    0.140968
    32  C    0.057043
    33  C    0.069029
    34  N   -0.218248
    35  C    0.155083
    36  C   -0.203670
    37  C    0.066407
    38  C    0.077350
    39  C    0.199201
    40  C   -0.084381
    41  O   -0.106815
    42  C    0.128591
    43  C    0.121230
    44  O   -0.177175
    45  O   -0.257355
    46  C    0.213258
    47  C    0.336468
    48  C   -0.113166
    49  C   -0.105891
    50  C    0.157426
    51  C    0.096554
    52  C    0.058469
    53  C    0.096773
    54  C   -0.101810
    55  C    0.086336
    56  C    0.105128
    57  C    0.084105
    58  C    0.136176
    59  C   -0.071015
    60  C    0.113135
    61  C    0.056905
    62  C    0.088705
    63  C    0.078644
    64  C   -0.051105
    65  C    0.084769
    66  C    0.092201
    67  H   -0.052246
    68  H   -0.069880
    69  H   -0.070110
    70  H   -0.026811
    71  H   -0.022438
    72  H    0.002836
    73  H   -0.007395
    74  H   -0.007496
    75  H    0.009665
    76  H   -0.019138
    77  H    0.004062
    78  H    0.016282
    79  H    0.002383
    80  H   -0.039371
    81  H   -0.001613
    82  H    0.017635
    83  H    0.013036
    84  H    0.004431
    85  H   -0.025704
    86  H   -0.031660
    87  H   -0.024789
    88  H   -0.006176
    89  H    0.004184
    90  H   -0.011626
    91  H   -0.021470
    92  H   -0.005630
    93  H   -0.008992
    94  H   -0.001352
    95  H    0.019037
    96  H   -0.004782
    97  H   -0.009854
    98  H   -0.000770
    99  H    0.010009
   100  H    0.011183
   101  H    0.019557
   102  H    0.000719
   103  H   -0.010520
   104  H   -0.044169
   105  H    0.002614
   106  H   -0.013667
   107  H   -0.020836
   108  H   -0.019707
   109  H   -0.027614
   110  H   -0.022845
   111  H   -0.019933
   112  H   -0.031927
   113  H   -0.033180
   114  H   -0.033644
   115  H   -0.012301
   116  H   -0.012333
   117  H   -0.016329
   118  H    0.000192
   119  H   -0.025956
   120  H   -0.048547
   121  H   -0.032165
   122  H   -0.039199
   123  H   -0.049204
   124  H   -0.046178
   125  H   -0.008887
   126  H   -0.029760
   127  H   -0.027438
   128  H   -0.044727
   129  H   -0.052964
   130  H   -0.026983
   131  H   -0.041343
   132  H   -0.034111
   133  H   -0.025270
   134  H   -0.026960
   135  H   -0.020697
   136  H   -0.016123
   137  H   -0.012291
   138  H   -0.026985
   139  H   -0.012346
   140  H   -0.023423
 Sum of Mulliken charges =  -0.00000

 Dipole moment (field-independent basis, Debye):
    X=             -0.8704    Y=              6.2907    Z=             -1.0538  Tot=              6.4375
 Quadrupole moment (field-independent basis, Debye-Ang):
   XX=           -394.9184   YY=           -425.6515   ZZ=           -412.4774
   XY=            -34.1851   XZ=            -22.5702   YZ=            -28.4833

 Normal termination of Gaussian 16 at Wed May  4 01:40:15 2022.
