 Gaussian 16, Revision A.03,
 Gaussian 16:  ES64L-G16RevA.03 25-Dec-2016

 -----------------------------------
 #p cam-b3lyp/Def2SVP td=(nstates=5)
 -----------------------------------

 --------------------------------------------------------
 step_1201_chromophore_26 TDDFT with cam-b3lyp functional
 --------------------------------------------------------
 Symbolic Z-matrix:
 Charge =  0 Multiplicity = 1

                         Standard orientation:
 ---------------------------------------------------------------------
 Center     Atomic      Atomic             Coordinates (Angstroms)
 Number     Number       Type             X           Y           Z
 ---------------------------------------------------------------------
      1         12           0       -3.618041    1.498655    0.467746
      2          6           0       -4.750449   -1.714206   -0.404006
      3          6           0       -2.166688    0.150926    3.310510
      4          6           0       -2.075362    4.387316    0.843251
      5          6           0       -4.960113    2.586179   -2.626430
      6          7           0       -3.154192   -0.715408    1.207410
      7          6           0       -3.961954   -1.760205    0.771170
      8          6           0       -3.950486   -2.904077    1.762929
      9          6           0       -3.395056   -2.210556    3.072459
     10          6           0       -2.892853   -0.834286    2.565256
     11          6           0       -4.447119   -1.984076    4.212660
     12          6           0       -3.415354   -4.314746    1.389650
     13          6           0       -2.362680   -4.344670    0.208664
     14          6           0       -1.088568   -5.146506    0.432140
     15          8           0       -1.049127   -6.315329    0.864335
     16          8           0        0.008302   -4.353118    0.142205
     17          7           0       -2.311692    2.225791    2.037930
     18          6           0       -1.864557    1.507088    3.058922
     19          6           0       -1.090876    2.409394    3.842881
     20          6           0       -1.170274    3.705142    3.330471
     21          6           0       -1.869483    3.525243    1.995067
     22          6           0       -0.310114    2.019385    5.015557
     23          6           0       -0.568750    4.939733    3.850690
     24          8           0       -0.097900    4.816235    4.990835
     25          6           0       -0.680250    6.343336    3.215713
     26          7           0       -3.517210    3.242813   -0.798589
     27          6           0       -2.777976    4.238127   -0.384420
     28          6           0       -2.934973    5.449266   -1.312191
     29          6           0       -3.812780    4.901334   -2.466232
     30          6           0       -4.108164    3.505974   -1.947087
     31          6           0       -3.396075    6.766765   -0.635659
     32          6           0       -3.183527    4.871943   -3.915886
     33          6           0       -2.801131    6.215298   -4.626660
     34          7           0       -4.644300    0.678366   -1.192361
     35          6           0       -5.192122    1.259812   -2.316291
     36          6           0       -5.953865    0.315680   -3.060763
     37          6           0       -5.840509   -0.901532   -2.315890
     38          6           0       -4.991085   -0.595892   -1.235133
     39          6           0       -6.685553    0.513314   -4.378040
     40          6           0       -6.293766   -2.260275   -2.194238
     41          8           0       -7.009396   -2.817281   -2.985670
     42          6           0       -5.614711   -2.854894   -0.999870
     43          6           0       -6.633755   -3.526523   -0.100381
     44          8           0       -6.558742   -4.728375    0.159855
     45          8           0       -7.659375   -2.673436    0.195506
     46          6           0       -8.764633   -3.140073    0.993338
     47          6           0        1.294109   -4.961420    0.402194
     48          6           0        2.467592   -4.229187   -0.229002
     49          6           0        2.905394   -4.082467   -1.501173
     50          6           0        2.042396   -4.344511   -2.695526
     51          6           0        4.246969   -3.339019   -1.739192
     52          6           0        4.068119   -1.819692   -2.029243
     53          6           0        5.507183   -1.125938   -2.381154
     54          6           0        6.046769   -0.031304   -1.358823
     55          6           0        5.958680    1.366281   -1.967999
     56          6           0        7.532948   -0.227248   -0.830631
     57          6           0        7.652942    0.180753    0.679006
     58          6           0        8.397105   -0.808488    1.564993
     59          6           0        9.582999   -0.176468    2.313354
     60          6           0        9.956498   -0.952838    3.555617
     61          6           0       10.898013   -0.175955    1.437918
     62          6           0       11.135272    0.791840    0.244810
     63          6           0       11.445705   -0.046135   -1.029402
     64          6           0       12.409883    0.747869   -1.956058
     65          6           0       11.889245    0.992325   -3.430280
     66          6           0       13.817997    0.111863   -1.853864
     67          1           0       -1.850383   -0.288432    4.258220
     68          1           0       -1.621839    5.380211    0.879691
     69          1           0       -5.374554    2.968352   -3.561684
     70          1           0       -4.994356   -3.087593    2.017935
     71          1           0       -2.549897   -2.806918    3.417182
     72          1           0       -4.595434   -2.944959    4.704706
     73          1           0       -5.366717   -1.557809    3.810767
     74          1           0       -4.079340   -1.269481    4.948444
     75          1           0       -4.235246   -4.987217    1.136232
     76          1           0       -2.833091   -4.648489    2.248375
     77          1           0       -2.165181   -3.283376    0.057730
     78          1           0       -2.913397   -4.692717   -0.665837
     79          1           0        0.745979    2.287392    5.004553
     80          1           0       -0.440263    0.965026    5.257535
     81          1           0       -0.716224    2.556328    5.872612
     82          1           0       -1.702569    6.404476    2.843327
     83          1           0        0.022831    6.290461    2.385086
     84          1           0       -0.375038    7.085291    3.954112
     85          1           0       -1.921429    5.577907   -1.694531
     86          1           0       -4.735450    5.481356   -2.449748
     87          1           0       -4.446218    6.984127   -0.829884
     88          1           0       -2.972882    7.624651   -1.157445
     89          1           0       -3.278503    6.668848    0.443588
     90          1           0       -3.727828    4.221714   -4.599846
     91          1           0       -2.272484    4.318495   -3.687447
     92          1           0       -2.964107    7.203091   -4.196560
     93          1           0       -3.458899    6.201325   -5.495504
     94          1           0       -1.770436    6.215641   -4.982478
     95          1           0       -7.212730   -0.390421   -4.684360
     96          1           0       -6.015334    0.928074   -5.130571
     97          1           0       -7.363855    1.339076   -4.163577
     98          1           0       -4.875837   -3.591417   -1.315222
     99          1           0       -9.077746   -2.271646    1.573107
    100          1           0       -8.621619   -3.939048    1.721154
    101          1           0       -9.630959   -3.525387    0.455407
    102          1           0        1.233991   -5.983320    0.028285
    103          1           0        1.526467   -4.966182    1.467306
    104          1           0        3.209566   -3.858587    0.478101
    105          1           0        0.979310   -4.482064   -2.501661
    106          1           0        2.408335   -5.167757   -3.309357
    107          1           0        2.189918   -3.505039   -3.374862
    108          1           0        4.888898   -3.768445   -2.508026
    109          1           0        4.880084   -3.309839   -0.852183
    110          1           0        3.718595   -1.277732   -1.150350
    111          1           0        3.380646   -1.617828   -2.850277
    112          1           0        5.451382   -0.644447   -3.357905
    113          1           0        6.253409   -1.920210   -2.396306
    114          1           0        5.381001    0.052375   -0.499986
    115          1           0        4.905325    1.619519   -2.080630
    116          1           0        6.514512    1.178229   -2.886346
    117          1           0        6.461649    2.125106   -1.366741
    118          1           0        8.233516    0.399961   -1.383470
    119          1           0        7.645465   -1.305893   -0.941143
    120          1           0        6.662663    0.308385    1.114824
    121          1           0        8.025603    1.184877    0.880083
    122          1           0        8.770527   -1.705570    1.070632
    123          1           0        7.727312   -1.198066    2.331151
    124          1           0        9.353624    0.808728    2.719651
    125          1           0       10.065907   -2.020246    3.365587
    126          1           0        9.186890   -0.660243    4.270289
    127          1           0       10.842369   -0.494544    3.996832
    128          1           0       11.218564   -1.156507    1.085355
    129          1           0       11.691420    0.077174    2.141954
    130          1           0       11.881590    1.537486    0.519116
    131          1           0       10.199663    1.340589    0.137797
    132          1           0       10.479617   -0.245371   -1.493902
    133          1           0       11.882789   -1.003538   -0.744184
    134          1           0       12.496897    1.729226   -1.489580
    135          1           0       12.418513    1.852133   -3.842255
    136          1           0       10.829935    1.232730   -3.346863
    137          1           0       11.999566    0.247150   -4.218552
    138          1           0       14.103363   -0.499658   -2.709796
    139          1           0       13.915303   -0.543328   -0.987893
    140          1           0       14.613739    0.855438   -1.906163
 ---------------------------------------------------------------------

 SCF Done:  E(RCAM-B3LYP) =  -3007.16707365     A.U. after   19 cycles

 Excitation energies and oscillator strengths:

 Excited State   1:      Singlet-A      1.7156 eV  722.67 nm  f=0.3471  <S**2>=0.000
     245 -> 248        0.19065
     246 -> 247        0.68221
     245 <- 248        0.10977
 This state for optimization and/or second-order correction.
 Total Energy, E(TD-HF/TD-DFT) =  -3007.10402510
 Copying the excited state density for this state as the 1-particle RhoCI density.

 Excited State   2:      Singlet-A      2.2178 eV  559.04 nm  f=0.0769  <S**2>=0.000
     245 -> 247        0.62527
     246 -> 248       -0.31696

 Excited State   3:      Singlet-A      3.3157 eV  373.93 nm  f=0.0365  <S**2>=0.000
     241 -> 247        0.20632
     241 -> 249       -0.15520
     241 -> 251       -0.14316
     243 -> 247        0.45584
     243 -> 249       -0.10103
     244 -> 247       -0.31336
     246 -> 248        0.23133

 Excited State   4:      Singlet-A      3.4297 eV  361.50 nm  f=0.0475  <S**2>=0.000
     241 -> 247        0.45426
     241 -> 248        0.11157
     241 -> 249       -0.21148
     241 -> 250        0.10452
     241 -> 251       -0.15885
     244 -> 247        0.36819
     246 -> 248       -0.16375

 Excited State   5:      Singlet-A      3.4394 eV  360.49 nm  f=0.1951  <S**2>=0.000
     241 -> 247       -0.13395
     243 -> 247        0.21217
     244 -> 247        0.45414
     245 -> 247        0.16445
     246 -> 248        0.38960

 The electronic state is 1-A.
 Alpha  occ. eigenvalues --  -46.91484 -19.26842 -19.24966 -19.20719 -19.19738
 Alpha  occ. eigenvalues --  -19.18537 -19.18223 -14.42644 -14.42338 -14.40093
 Alpha  occ. eigenvalues --  -14.39404 -10.40637 -10.39521 -10.34782 -10.34190
 Alpha  occ. eigenvalues --  -10.32458 -10.32028 -10.31851 -10.31600 -10.31584
 Alpha  occ. eigenvalues --  -10.31470 -10.30936 -10.30338 -10.29277 -10.28819
 Alpha  occ. eigenvalues --  -10.28650 -10.28575 -10.28357 -10.28299 -10.28277
 Alpha  occ. eigenvalues --  -10.28216 -10.28171 -10.27973 -10.27944 -10.27755
 Alpha  occ. eigenvalues --  -10.27745 -10.27457 -10.27132 -10.27099 -10.27094
 Alpha  occ. eigenvalues --  -10.26977 -10.26945 -10.26867 -10.26863 -10.26482
 Alpha  occ. eigenvalues --  -10.26338 -10.26313 -10.26045 -10.25783 -10.25678
 Alpha  occ. eigenvalues --  -10.25554 -10.25360 -10.25350 -10.25346 -10.25235
 Alpha  occ. eigenvalues --  -10.24855 -10.24753 -10.24558 -10.24528 -10.24402
 Alpha  occ. eigenvalues --  -10.24361 -10.24357 -10.24269 -10.24092 -10.23918
 Alpha  occ. eigenvalues --  -10.23879  -3.19628  -1.94528  -1.94122  -1.93879
 Alpha  occ. eigenvalues --   -1.17332  -1.15476  -1.10718  -1.09156  -1.08797
 Alpha  occ. eigenvalues --   -1.06888  -1.06883  -1.04452  -1.04353  -1.02324
 Alpha  occ. eigenvalues --   -0.93213  -0.89883  -0.89519  -0.89429  -0.89128
 Alpha  occ. eigenvalues --   -0.88872  -0.88063  -0.87411  -0.87113  -0.87026
 Alpha  occ. eigenvalues --   -0.86545  -0.85381  -0.84252  -0.84003  -0.83272
 Alpha  occ. eigenvalues --   -0.82577  -0.82207  -0.81535  -0.81329  -0.80829
 Alpha  occ. eigenvalues --   -0.80070  -0.78535  -0.78093  -0.77481  -0.77096
 Alpha  occ. eigenvalues --   -0.75868  -0.75373  -0.75314  -0.74402  -0.73429
 Alpha  occ. eigenvalues --   -0.73410  -0.72843  -0.72434  -0.70655  -0.70444
 Alpha  occ. eigenvalues --   -0.69008  -0.68048  -0.67865  -0.66600  -0.66343
 Alpha  occ. eigenvalues --   -0.66149  -0.65437  -0.65330  -0.64752  -0.64153
 Alpha  occ. eigenvalues --   -0.63733  -0.63249  -0.62802  -0.62551  -0.60658
 Alpha  occ. eigenvalues --   -0.59512  -0.59420  -0.59241  -0.58431  -0.58261
 Alpha  occ. eigenvalues --   -0.58007  -0.57015  -0.56836  -0.56526  -0.56231
 Alpha  occ. eigenvalues --   -0.55527  -0.55355  -0.55041  -0.54931  -0.54067
 Alpha  occ. eigenvalues --   -0.53867  -0.53620  -0.53184  -0.52985  -0.52632
 Alpha  occ. eigenvalues --   -0.52448  -0.52329  -0.52069  -0.51950  -0.51850
 Alpha  occ. eigenvalues --   -0.51362  -0.51151  -0.51053  -0.51007  -0.50748
 Alpha  occ. eigenvalues --   -0.50557  -0.50115  -0.50064  -0.49785  -0.49582
 Alpha  occ. eigenvalues --   -0.49309  -0.49147  -0.49047  -0.48873  -0.48540
 Alpha  occ. eigenvalues --   -0.48361  -0.48168  -0.48103  -0.48031  -0.47839
 Alpha  occ. eigenvalues --   -0.47537  -0.47415  -0.47334  -0.46931  -0.46733
 Alpha  occ. eigenvalues --   -0.46644  -0.46334  -0.46223  -0.46153  -0.45928
 Alpha  occ. eigenvalues --   -0.45891  -0.45677  -0.45540  -0.45378  -0.45245
 Alpha  occ. eigenvalues --   -0.45023  -0.44515  -0.44395  -0.44145  -0.44031
 Alpha  occ. eigenvalues --   -0.43923  -0.43744  -0.43538  -0.43401  -0.43221
 Alpha  occ. eigenvalues --   -0.42944  -0.42915  -0.42558  -0.42297  -0.42123
 Alpha  occ. eigenvalues --   -0.41999  -0.41654  -0.41406  -0.41121  -0.40949
 Alpha  occ. eigenvalues --   -0.40742  -0.40574  -0.40112  -0.40068  -0.40003
 Alpha  occ. eigenvalues --   -0.39801  -0.39638  -0.39556  -0.39224  -0.39203
 Alpha  occ. eigenvalues --   -0.38651  -0.38457  -0.38007  -0.37617  -0.37464
 Alpha  occ. eigenvalues --   -0.37451  -0.37293  -0.37188  -0.36798  -0.36791
 Alpha  occ. eigenvalues --   -0.36232  -0.35543  -0.35070  -0.34564  -0.34260
 Alpha  occ. eigenvalues --   -0.34091  -0.33999  -0.33651  -0.31295  -0.30904
 Alpha  occ. eigenvalues --   -0.30609  -0.29950  -0.29902  -0.29759  -0.24349
 Alpha  occ. eigenvalues --   -0.21440
 Alpha virt. eigenvalues --   -0.08847  -0.02521   0.00064   0.00913   0.02288
 Alpha virt. eigenvalues --    0.04161   0.04515   0.04718   0.05222   0.06067
 Alpha virt. eigenvalues --    0.07734   0.08066   0.08610   0.08820   0.09264

 Mulliken charges:
               1
     1  Mg   0.792920
     2  C   -0.049874
     3  C   -0.079261
     4  C   -0.072247
     5  C   -0.101240
     6  N   -0.270976
     7  C   -0.073888
     8  C   -0.021152
     9  C   -0.044770
    10  C   -0.010744
    11  C    0.070761
    12  C    0.072526
    13  C    0.012684
    14  C    0.181705
    15  O   -0.251680
    16  O   -0.322740
    17  N   -0.348730
    18  C    0.180841
    19  C   -0.151739
    20  C    0.016559
    21  C    0.130837
    22  C    0.152657
    23  C   -0.060730
    24  O   -0.239348
    25  C    0.080276
    26  N   -0.220119
    27  C   -0.008127
    28  C   -0.047227
    29  C    0.037917
    30  C   -0.045560
    31  C    0.082028
    32  C    0.008348
    33  C    0.004960
    34  N   -0.309089
    35  C    0.148639
    36  C   -0.190742
    37  C   -0.014584
    38  C    0.114567
    39  C    0.144581
    40  C    0.016058
    41  O   -0.146819
    42  C    0.049940
    43  C    0.205848
    44  O   -0.216924
    45  O   -0.319614
    46  C    0.174914
    47  C    0.305536
    48  C   -0.138428
    49  C   -0.127572
    50  C    0.094894
    51  C    0.038596
    52  C    0.011849
    53  C    0.042590
    54  C   -0.153242
    55  C    0.033439
    56  C    0.052134
    57  C    0.027975
    58  C    0.079767
    59  C   -0.127809
    60  C    0.051234
    61  C    0.005082
    62  C    0.037949
    63  C    0.026346
    64  C   -0.114592
    65  C    0.032581
    66  C    0.034145
    67  H   -0.018899
    68  H   -0.034989
    69  H   -0.033675
    70  H    0.008670
    71  H    0.012508
    72  H    0.028007
    73  H    0.016467
    74  H    0.017412
    75  H    0.042413
    76  H    0.011957
    77  H    0.039893
    78  H    0.044941
    79  H    0.032002
    80  H   -0.011538
    81  H    0.028815
    82  H    0.041391
    83  H    0.039915
    84  H    0.040280
    85  H    0.009516
    86  H    0.002495
    87  H    0.002150
    88  H    0.018793
    89  H    0.025975
    90  H    0.015657
    91  H    0.005085
    92  H    0.016684
    93  H    0.014118
    94  H    0.022414
    95  H    0.047073
    96  H    0.020049
    97  H    0.014502
    98  H    0.039886
    99  H    0.032363
   100  H    0.035318
   101  H    0.040792
   102  H    0.031860
   103  H    0.016792
   104  H   -0.012967
   105  H    0.027996
   106  H    0.012141
   107  H    0.002268
   108  H    0.009448
   109  H    0.000963
   110  H    0.004510
   111  H    0.006565
   112  H   -0.001942
   113  H   -0.005880
   114  H   -0.004425
   115  H    0.011638
   116  H    0.008878
   117  H    0.007041
   118  H    0.021413
   119  H    0.001341
   120  H   -0.017020
   121  H   -0.005111
   122  H   -0.010903
   123  H   -0.017196
   124  H   -0.014173
   125  H    0.014900
   126  H   -0.003258
   127  H   -0.000985
   128  H   -0.016435
   129  H   -0.022593
   130  H    0.001465
   131  H   -0.015679
   132  H   -0.008140
   133  H    0.002041
   134  H    0.004403
   135  H    0.003021
   136  H    0.005306
   137  H    0.010997
   138  H   -0.002782
   139  H    0.010749
   140  H    0.001200
 Sum of Mulliken charges =  -0.00000

 Dipole moment (field-independent basis, Debye):
    X=             -0.6100    Y=              6.9071    Z=             -0.5926  Tot=              6.9592
 Quadrupole moment (field-independent basis, Debye-Ang):
   XX=           -394.9167   YY=           -423.0048   ZZ=           -410.6394
   XY=            -35.1323   XZ=            -23.9349   YZ=            -28.5299

 Normal termination of Gaussian 16 at Wed May  4 00:43:23 2022.
