 Gaussian 16, Revision A.03,
 Gaussian 16:  ES64L-G16RevA.03 25-Dec-2016

 ---------------------------------
 #p PBE1PBE/Def2SVP td=(nstates=5)
 ---------------------------------

 ------------------------------------------------------
 step_1201_chromophore_26 TDDFT with PBE1PBE functional
 ------------------------------------------------------
 Symbolic Z-matrix:
 Charge =  0 Multiplicity = 1

                         Standard orientation:
 ---------------------------------------------------------------------
 Center     Atomic      Atomic             Coordinates (Angstroms)
 Number     Number       Type             X           Y           Z
 ---------------------------------------------------------------------
      1         12           0       -3.618041    1.498655    0.467746
      2          6           0       -4.750449   -1.714206   -0.404006
      3          6           0       -2.166688    0.150926    3.310510
      4          6           0       -2.075362    4.387316    0.843251
      5          6           0       -4.960113    2.586179   -2.626430
      6          7           0       -3.154192   -0.715408    1.207410
      7          6           0       -3.961954   -1.760205    0.771170
      8          6           0       -3.950486   -2.904077    1.762929
      9          6           0       -3.395056   -2.210556    3.072459
     10          6           0       -2.892853   -0.834286    2.565256
     11          6           0       -4.447119   -1.984076    4.212660
     12          6           0       -3.415354   -4.314746    1.389650
     13          6           0       -2.362680   -4.344670    0.208664
     14          6           0       -1.088568   -5.146506    0.432140
     15          8           0       -1.049127   -6.315329    0.864335
     16          8           0        0.008302   -4.353118    0.142205
     17          7           0       -2.311692    2.225791    2.037930
     18          6           0       -1.864557    1.507088    3.058922
     19          6           0       -1.090876    2.409394    3.842881
     20          6           0       -1.170274    3.705142    3.330471
     21          6           0       -1.869483    3.525243    1.995067
     22          6           0       -0.310114    2.019385    5.015557
     23          6           0       -0.568750    4.939733    3.850690
     24          8           0       -0.097900    4.816235    4.990835
     25          6           0       -0.680250    6.343336    3.215713
     26          7           0       -3.517210    3.242813   -0.798589
     27          6           0       -2.777976    4.238127   -0.384420
     28          6           0       -2.934973    5.449266   -1.312191
     29          6           0       -3.812780    4.901334   -2.466232
     30          6           0       -4.108164    3.505974   -1.947087
     31          6           0       -3.396075    6.766765   -0.635659
     32          6           0       -3.183527    4.871943   -3.915886
     33          6           0       -2.801131    6.215298   -4.626660
     34          7           0       -4.644300    0.678366   -1.192361
     35          6           0       -5.192122    1.259812   -2.316291
     36          6           0       -5.953865    0.315680   -3.060763
     37          6           0       -5.840509   -0.901532   -2.315890
     38          6           0       -4.991085   -0.595892   -1.235133
     39          6           0       -6.685553    0.513314   -4.378040
     40          6           0       -6.293766   -2.260275   -2.194238
     41          8           0       -7.009396   -2.817281   -2.985670
     42          6           0       -5.614711   -2.854894   -0.999870
     43          6           0       -6.633755   -3.526523   -0.100381
     44          8           0       -6.558742   -4.728375    0.159855
     45          8           0       -7.659375   -2.673436    0.195506
     46          6           0       -8.764633   -3.140073    0.993338
     47          6           0        1.294109   -4.961420    0.402194
     48          6           0        2.467592   -4.229187   -0.229002
     49          6           0        2.905394   -4.082467   -1.501173
     50          6           0        2.042396   -4.344511   -2.695526
     51          6           0        4.246969   -3.339019   -1.739192
     52          6           0        4.068119   -1.819692   -2.029243
     53          6           0        5.507183   -1.125938   -2.381154
     54          6           0        6.046769   -0.031304   -1.358823
     55          6           0        5.958680    1.366281   -1.967999
     56          6           0        7.532948   -0.227248   -0.830631
     57          6           0        7.652942    0.180753    0.679006
     58          6           0        8.397105   -0.808488    1.564993
     59          6           0        9.582999   -0.176468    2.313354
     60          6           0        9.956498   -0.952838    3.555617
     61          6           0       10.898013   -0.175955    1.437918
     62          6           0       11.135272    0.791840    0.244810
     63          6           0       11.445705   -0.046135   -1.029402
     64          6           0       12.409883    0.747869   -1.956058
     65          6           0       11.889245    0.992325   -3.430280
     66          6           0       13.817997    0.111863   -1.853864
     67          1           0       -1.850383   -0.288432    4.258220
     68          1           0       -1.621839    5.380211    0.879691
     69          1           0       -5.374554    2.968352   -3.561684
     70          1           0       -4.994356   -3.087593    2.017935
     71          1           0       -2.549897   -2.806918    3.417182
     72          1           0       -4.595434   -2.944959    4.704706
     73          1           0       -5.366717   -1.557809    3.810767
     74          1           0       -4.079340   -1.269481    4.948444
     75          1           0       -4.235246   -4.987217    1.136232
     76          1           0       -2.833091   -4.648489    2.248375
     77          1           0       -2.165181   -3.283376    0.057730
     78          1           0       -2.913397   -4.692717   -0.665837
     79          1           0        0.745979    2.287392    5.004553
     80          1           0       -0.440263    0.965026    5.257535
     81          1           0       -0.716224    2.556328    5.872612
     82          1           0       -1.702569    6.404476    2.843327
     83          1           0        0.022831    6.290461    2.385086
     84          1           0       -0.375038    7.085291    3.954112
     85          1           0       -1.921429    5.577907   -1.694531
     86          1           0       -4.735450    5.481356   -2.449748
     87          1           0       -4.446218    6.984127   -0.829884
     88          1           0       -2.972882    7.624651   -1.157445
     89          1           0       -3.278503    6.668848    0.443588
     90          1           0       -3.727828    4.221714   -4.599846
     91          1           0       -2.272484    4.318495   -3.687447
     92          1           0       -2.964107    7.203091   -4.196560
     93          1           0       -3.458899    6.201325   -5.495504
     94          1           0       -1.770436    6.215641   -4.982478
     95          1           0       -7.212730   -0.390421   -4.684360
     96          1           0       -6.015334    0.928074   -5.130571
     97          1           0       -7.363855    1.339076   -4.163577
     98          1           0       -4.875837   -3.591417   -1.315222
     99          1           0       -9.077746   -2.271646    1.573107
    100          1           0       -8.621619   -3.939048    1.721154
    101          1           0       -9.630959   -3.525387    0.455407
    102          1           0        1.233991   -5.983320    0.028285
    103          1           0        1.526467   -4.966182    1.467306
    104          1           0        3.209566   -3.858587    0.478101
    105          1           0        0.979310   -4.482064   -2.501661
    106          1           0        2.408335   -5.167757   -3.309357
    107          1           0        2.189918   -3.505039   -3.374862
    108          1           0        4.888898   -3.768445   -2.508026
    109          1           0        4.880084   -3.309839   -0.852183
    110          1           0        3.718595   -1.277732   -1.150350
    111          1           0        3.380646   -1.617828   -2.850277
    112          1           0        5.451382   -0.644447   -3.357905
    113          1           0        6.253409   -1.920210   -2.396306
    114          1           0        5.381001    0.052375   -0.499986
    115          1           0        4.905325    1.619519   -2.080630
    116          1           0        6.514512    1.178229   -2.886346
    117          1           0        6.461649    2.125106   -1.366741
    118          1           0        8.233516    0.399961   -1.383470
    119          1           0        7.645465   -1.305893   -0.941143
    120          1           0        6.662663    0.308385    1.114824
    121          1           0        8.025603    1.184877    0.880083
    122          1           0        8.770527   -1.705570    1.070632
    123          1           0        7.727312   -1.198066    2.331151
    124          1           0        9.353624    0.808728    2.719651
    125          1           0       10.065907   -2.020246    3.365587
    126          1           0        9.186890   -0.660243    4.270289
    127          1           0       10.842369   -0.494544    3.996832
    128          1           0       11.218564   -1.156507    1.085355
    129          1           0       11.691420    0.077174    2.141954
    130          1           0       11.881590    1.537486    0.519116
    131          1           0       10.199663    1.340589    0.137797
    132          1           0       10.479617   -0.245371   -1.493902
    133          1           0       11.882789   -1.003538   -0.744184
    134          1           0       12.496897    1.729226   -1.489580
    135          1           0       12.418513    1.852133   -3.842255
    136          1           0       10.829935    1.232730   -3.346863
    137          1           0       11.999566    0.247150   -4.218552
    138          1           0       14.103363   -0.499658   -2.709796
    139          1           0       13.915303   -0.543328   -0.987893
    140          1           0       14.613739    0.855438   -1.906163
 ---------------------------------------------------------------------

 SCF Done:  E(RPBE1PBE) =  -3005.35661674     A.U. after   16 cycles

 Excitation energies and oscillator strengths:

 Excited State   1:      Singlet-A      1.8629 eV  665.54 nm  f=0.3354  <S**2>=0.000
     245 -> 248        0.18339
     246 -> 247        0.68871
 This state for optimization and/or second-order correction.
 Total Energy, E(TD-HF/TD-DFT) =  -3005.28815565
 Copying the excited state density for this state as the 1-particle RhoCI density.

 Excited State   2:      Singlet-A      2.2277 eV  556.56 nm  f=0.0795  <S**2>=0.000
     245 -> 247        0.64011
     246 -> 248       -0.28500

 Excited State   3:      Singlet-A      2.8486 eV  435.25 nm  f=0.0004  <S**2>=0.000
     241 -> 247        0.11794
     244 -> 247        0.65515
     244 -> 249        0.13604

 Excited State   4:      Singlet-A      2.9835 eV  415.56 nm  f=0.0007  <S**2>=0.000
     240 -> 247       -0.28765
     240 -> 249        0.10505
     241 -> 247       -0.20565
     242 -> 247        0.58013

 Excited State   5:      Singlet-A      3.0572 eV  405.55 nm  f=0.0009  <S**2>=0.000
     240 -> 247        0.14007
     241 -> 247        0.58870
     242 -> 247        0.29289
     244 -> 247       -0.14117
     246 -> 248       -0.11511

 The electronic state is 1-A.
 Alpha  occ. eigenvalues --  -46.94806 -19.27498 -19.25640 -19.21005 -19.20041
 Alpha  occ. eigenvalues --  -19.18844 -19.18348 -14.42058 -14.41871 -14.39637
 Alpha  occ. eigenvalues --  -14.39092 -10.37703 -10.36564 -10.31836 -10.31394
 Alpha  occ. eigenvalues --  -10.29685 -10.29656 -10.29414 -10.29286 -10.29206
 Alpha  occ. eigenvalues --  -10.28949 -10.28789 -10.27787 -10.27139 -10.26594
 Alpha  occ. eigenvalues --  -10.26397 -10.26246 -10.26237 -10.26163 -10.26009
 Alpha  occ. eigenvalues --  -10.25994 -10.25901 -10.25783 -10.25443 -10.25416
 Alpha  occ. eigenvalues --  -10.25400 -10.25099 -10.24750 -10.24675 -10.24526
 Alpha  occ. eigenvalues --  -10.24453 -10.24395 -10.24390 -10.24292 -10.23954
 Alpha  occ. eigenvalues --  -10.23888 -10.23838 -10.23624 -10.23452 -10.23298
 Alpha  occ. eigenvalues --  -10.23276 -10.22944 -10.22914 -10.22893 -10.22708
 Alpha  occ. eigenvalues --  -10.22404 -10.22296 -10.22196 -10.21960 -10.21933
 Alpha  occ. eigenvalues --  -10.21889 -10.21881 -10.21644 -10.21502 -10.21459
 Alpha  occ. eigenvalues --  -10.21277  -3.16544  -1.89382  -1.88956  -1.88714
 Alpha  occ. eigenvalues --   -1.12132  -1.10280  -1.05564  -1.03772  -1.03653
 Alpha  occ. eigenvalues --   -1.01741  -1.01533  -0.99239  -0.98912  -0.96903
 Alpha  occ. eigenvalues --   -0.87625  -0.83968  -0.83725  -0.83623  -0.83423
 Alpha  occ. eigenvalues --   -0.83106  -0.82159  -0.81709  -0.81354  -0.81201
 Alpha  occ. eigenvalues --   -0.80840  -0.79603  -0.78573  -0.78207  -0.77454
 Alpha  occ. eigenvalues --   -0.76782  -0.76330  -0.75822  -0.75551  -0.75010
 Alpha  occ. eigenvalues --   -0.74280  -0.72875  -0.72393  -0.71731  -0.71404
 Alpha  occ. eigenvalues --   -0.70193  -0.69500  -0.69434  -0.68549  -0.67868
 Alpha  occ. eigenvalues --   -0.67565  -0.67168  -0.66878  -0.65012  -0.64771
 Alpha  occ. eigenvalues --   -0.63517  -0.62439  -0.62096  -0.61053  -0.60679
 Alpha  occ. eigenvalues --   -0.60553  -0.59924  -0.59569  -0.59239  -0.58729
 Alpha  occ. eigenvalues --   -0.57847  -0.57772  -0.56941  -0.56717  -0.55187
 Alpha  occ. eigenvalues --   -0.54175  -0.53964  -0.53629  -0.53025  -0.52793
 Alpha  occ. eigenvalues --   -0.52459  -0.51513  -0.51321  -0.50904  -0.50772
 Alpha  occ. eigenvalues --   -0.50016  -0.49928  -0.49574  -0.49482  -0.48479
 Alpha  occ. eigenvalues --   -0.48387  -0.48287  -0.47722  -0.47479  -0.47061
 Alpha  occ. eigenvalues --   -0.47006  -0.46837  -0.46563  -0.46454  -0.46310
 Alpha  occ. eigenvalues --   -0.45834  -0.45701  -0.45657  -0.45586  -0.45313
 Alpha  occ. eigenvalues --   -0.45090  -0.44612  -0.44509  -0.44352  -0.44239
 Alpha  occ. eigenvalues --   -0.43924  -0.43776  -0.43625  -0.43450  -0.43147
 Alpha  occ. eigenvalues --   -0.42929  -0.42873  -0.42652  -0.42606  -0.42490
 Alpha  occ. eigenvalues --   -0.42175  -0.42127  -0.41912  -0.41636  -0.41466
 Alpha  occ. eigenvalues --   -0.41263  -0.41102  -0.40947  -0.40845  -0.40555
 Alpha  occ. eigenvalues --   -0.40484  -0.40369  -0.40319  -0.40096  -0.39942
 Alpha  occ. eigenvalues --   -0.39647  -0.39257  -0.39073  -0.38870  -0.38799
 Alpha  occ. eigenvalues --   -0.38777  -0.38566  -0.38288  -0.38186  -0.38096
 Alpha  occ. eigenvalues --   -0.37741  -0.37571  -0.37330  -0.37079  -0.36960
 Alpha  occ. eigenvalues --   -0.36824  -0.36525  -0.36249  -0.35896  -0.35856
 Alpha  occ. eigenvalues --   -0.35666  -0.35400  -0.35006  -0.34865  -0.34812
 Alpha  occ. eigenvalues --   -0.34678  -0.34510  -0.34386  -0.34153  -0.33946
 Alpha  occ. eigenvalues --   -0.33415  -0.33191  -0.32787  -0.32596  -0.32413
 Alpha  occ. eigenvalues --   -0.32311  -0.32255  -0.32081  -0.31858  -0.31675
 Alpha  occ. eigenvalues --   -0.31195  -0.30411  -0.30056  -0.29649  -0.29236
 Alpha  occ. eigenvalues --   -0.29199  -0.28888  -0.28864  -0.26963  -0.25930
 Alpha  occ. eigenvalues --   -0.25539  -0.25394  -0.25261  -0.25032  -0.21283
 Alpha  occ. eigenvalues --   -0.19090
 Alpha virt. eigenvalues --   -0.11354  -0.05933  -0.04095  -0.02228  -0.01843
 Alpha virt. eigenvalues --   -0.00543  -0.00037   0.00223   0.00803   0.02678
 Alpha virt. eigenvalues --    0.03567   0.04430   0.04931   0.05367   0.05890

 Mulliken charges:
               1
     1  Mg   0.926246
     2  C   -0.045271
     3  C   -0.068465
     4  C   -0.076522
     5  C   -0.086991
     6  N   -0.355178
     7  C   -0.018156
     8  C   -0.073121
     9  C   -0.126938
    10  C    0.024026
    11  C    0.009954
    12  C    0.016898
    13  C   -0.066950
    14  C    0.246302
    15  O   -0.283819
    16  O   -0.352970
    17  N   -0.464284
    18  C    0.208512
    19  C   -0.195130
    20  C   -0.029628
    21  C    0.166797
    22  C    0.096124
    23  C   -0.008779
    24  O   -0.271755
    25  C    0.001384
    26  N   -0.334877
    27  C    0.037234
    28  C   -0.123372
    29  C   -0.038764
    30  C    0.001919
    31  C    0.020265
    32  C   -0.054381
    33  C   -0.064113
    34  N   -0.439694
    35  C    0.158168
    36  C   -0.198205
    37  C   -0.065759
    38  C    0.161399
    39  C    0.087358
    40  C    0.121406
    41  O   -0.195620
    42  C   -0.065696
    43  C    0.291405
    44  O   -0.253751
    45  O   -0.351171
    46  C    0.121633
    47  C    0.263359
    48  C   -0.146151
    49  C   -0.174357
    50  C    0.033526
    51  C   -0.030155
    52  C   -0.047886
    53  C   -0.010029
    54  C   -0.231997
    55  C   -0.029641
    56  C   -0.011572
    57  C   -0.029588
    58  C    0.031020
    59  C   -0.223686
    60  C   -0.011591
    61  C   -0.042206
    62  C   -0.024065
    63  C   -0.035832
    64  C   -0.207775
    65  C   -0.029189
    66  C   -0.023758
    67  H    0.013472
    68  H    0.000285
    69  H   -0.002584
    70  H    0.052374
    71  H    0.048772
    72  H    0.056108
    73  H    0.044056
    74  H    0.046016
    75  H    0.073977
    76  H    0.045996
    77  H    0.077722
    78  H    0.077457
    79  H    0.059241
    80  H    0.016602
    81  H    0.056990
    82  H    0.068864
    83  H    0.066581
    84  H    0.066864
    85  H    0.048412
    86  H    0.041127
    87  H    0.029700
    88  H    0.045906
    89  H    0.054014
    90  H    0.046828
    91  H    0.039042
    92  H    0.043594
    93  H    0.041879
    94  H    0.049965
    95  H    0.074185
    96  H    0.048356
    97  H    0.043554
    98  H    0.082308
    99  H    0.054293
   100  H    0.055961
   101  H    0.062346
   102  H    0.058158
   103  H    0.043245
   104  H    0.016818
   105  H    0.055527
   106  H    0.040879
   107  H    0.030246
   108  H    0.041718
   109  H    0.034391
   110  H    0.037670
   111  H    0.038795
   112  H    0.029911
   113  H    0.025762
   114  H    0.032905
   115  H    0.040744
   116  H    0.036923
   117  H    0.036225
   118  H    0.053190
   119  H    0.034809
   120  H    0.015561
   121  H    0.024727
   122  H    0.020185
   123  H    0.016269
   124  H    0.023837
   125  H    0.042368
   126  H    0.026263
   127  H    0.027638
   128  H    0.015520
   129  H    0.011154
   130  H    0.032509
   131  H    0.021129
   132  H    0.029830
   133  H    0.033169
   134  H    0.042514
   135  H    0.030963
   136  H    0.033497
   137  H    0.037548
   138  H    0.024892
   139  H    0.037343
   140  H    0.028808
 Sum of Mulliken charges =  -0.00000

 Dipole moment (field-independent basis, Debye):
    X=             -0.7770    Y=              6.8718    Z=             -0.8341  Tot=              6.9657
 Quadrupole moment (field-independent basis, Debye-Ang):
   XX=           -390.7830   YY=           -419.7809   ZZ=           -406.7074
   XY=            -35.0861   XZ=            -22.6778   YZ=            -30.3232

 Normal termination of Gaussian 16 at Wed May  4 01:01:15 2022.
