 Gaussian 16, Revision A.03,
 Gaussian 16:  ES64L-G16RevA.03 25-Dec-2016

 --------------------------------
 #p wB97XD/Def2SVP td=(nstates=5)
 --------------------------------

 -----------------------------------------------------
 step_1201_chromophore_26 TDDFT with wB97XD functional
 -----------------------------------------------------
 Symbolic Z-matrix:
 Charge =  0 Multiplicity = 1

                         Standard orientation:
 ---------------------------------------------------------------------
 Center     Atomic      Atomic             Coordinates (Angstroms)
 Number     Number       Type             X           Y           Z
 ---------------------------------------------------------------------
      1         12           0       -3.618041    1.498655    0.467746
      2          6           0       -4.750449   -1.714206   -0.404006
      3          6           0       -2.166688    0.150926    3.310510
      4          6           0       -2.075362    4.387316    0.843251
      5          6           0       -4.960113    2.586179   -2.626430
      6          7           0       -3.154192   -0.715408    1.207410
      7          6           0       -3.961954   -1.760205    0.771170
      8          6           0       -3.950486   -2.904077    1.762929
      9          6           0       -3.395056   -2.210556    3.072459
     10          6           0       -2.892853   -0.834286    2.565256
     11          6           0       -4.447119   -1.984076    4.212660
     12          6           0       -3.415354   -4.314746    1.389650
     13          6           0       -2.362680   -4.344670    0.208664
     14          6           0       -1.088568   -5.146506    0.432140
     15          8           0       -1.049127   -6.315329    0.864335
     16          8           0        0.008302   -4.353118    0.142205
     17          7           0       -2.311692    2.225791    2.037930
     18          6           0       -1.864557    1.507088    3.058922
     19          6           0       -1.090876    2.409394    3.842881
     20          6           0       -1.170274    3.705142    3.330471
     21          6           0       -1.869483    3.525243    1.995067
     22          6           0       -0.310114    2.019385    5.015557
     23          6           0       -0.568750    4.939733    3.850690
     24          8           0       -0.097900    4.816235    4.990835
     25          6           0       -0.680250    6.343336    3.215713
     26          7           0       -3.517210    3.242813   -0.798589
     27          6           0       -2.777976    4.238127   -0.384420
     28          6           0       -2.934973    5.449266   -1.312191
     29          6           0       -3.812780    4.901334   -2.466232
     30          6           0       -4.108164    3.505974   -1.947087
     31          6           0       -3.396075    6.766765   -0.635659
     32          6           0       -3.183527    4.871943   -3.915886
     33          6           0       -2.801131    6.215298   -4.626660
     34          7           0       -4.644300    0.678366   -1.192361
     35          6           0       -5.192122    1.259812   -2.316291
     36          6           0       -5.953865    0.315680   -3.060763
     37          6           0       -5.840509   -0.901532   -2.315890
     38          6           0       -4.991085   -0.595892   -1.235133
     39          6           0       -6.685553    0.513314   -4.378040
     40          6           0       -6.293766   -2.260275   -2.194238
     41          8           0       -7.009396   -2.817281   -2.985670
     42          6           0       -5.614711   -2.854894   -0.999870
     43          6           0       -6.633755   -3.526523   -0.100381
     44          8           0       -6.558742   -4.728375    0.159855
     45          8           0       -7.659375   -2.673436    0.195506
     46          6           0       -8.764633   -3.140073    0.993338
     47          6           0        1.294109   -4.961420    0.402194
     48          6           0        2.467592   -4.229187   -0.229002
     49          6           0        2.905394   -4.082467   -1.501173
     50          6           0        2.042396   -4.344511   -2.695526
     51          6           0        4.246969   -3.339019   -1.739192
     52          6           0        4.068119   -1.819692   -2.029243
     53          6           0        5.507183   -1.125938   -2.381154
     54          6           0        6.046769   -0.031304   -1.358823
     55          6           0        5.958680    1.366281   -1.967999
     56          6           0        7.532948   -0.227248   -0.830631
     57          6           0        7.652942    0.180753    0.679006
     58          6           0        8.397105   -0.808488    1.564993
     59          6           0        9.582999   -0.176468    2.313354
     60          6           0        9.956498   -0.952838    3.555617
     61          6           0       10.898013   -0.175955    1.437918
     62          6           0       11.135272    0.791840    0.244810
     63          6           0       11.445705   -0.046135   -1.029402
     64          6           0       12.409883    0.747869   -1.956058
     65          6           0       11.889245    0.992325   -3.430280
     66          6           0       13.817997    0.111863   -1.853864
     67          1           0       -1.850383   -0.288432    4.258220
     68          1           0       -1.621839    5.380211    0.879691
     69          1           0       -5.374554    2.968352   -3.561684
     70          1           0       -4.994356   -3.087593    2.017935
     71          1           0       -2.549897   -2.806918    3.417182
     72          1           0       -4.595434   -2.944959    4.704706
     73          1           0       -5.366717   -1.557809    3.810767
     74          1           0       -4.079340   -1.269481    4.948444
     75          1           0       -4.235246   -4.987217    1.136232
     76          1           0       -2.833091   -4.648489    2.248375
     77          1           0       -2.165181   -3.283376    0.057730
     78          1           0       -2.913397   -4.692717   -0.665837
     79          1           0        0.745979    2.287392    5.004553
     80          1           0       -0.440263    0.965026    5.257535
     81          1           0       -0.716224    2.556328    5.872612
     82          1           0       -1.702569    6.404476    2.843327
     83          1           0        0.022831    6.290461    2.385086
     84          1           0       -0.375038    7.085291    3.954112
     85          1           0       -1.921429    5.577907   -1.694531
     86          1           0       -4.735450    5.481356   -2.449748
     87          1           0       -4.446218    6.984127   -0.829884
     88          1           0       -2.972882    7.624651   -1.157445
     89          1           0       -3.278503    6.668848    0.443588
     90          1           0       -3.727828    4.221714   -4.599846
     91          1           0       -2.272484    4.318495   -3.687447
     92          1           0       -2.964107    7.203091   -4.196560
     93          1           0       -3.458899    6.201325   -5.495504
     94          1           0       -1.770436    6.215641   -4.982478
     95          1           0       -7.212730   -0.390421   -4.684360
     96          1           0       -6.015334    0.928074   -5.130571
     97          1           0       -7.363855    1.339076   -4.163577
     98          1           0       -4.875837   -3.591417   -1.315222
     99          1           0       -9.077746   -2.271646    1.573107
    100          1           0       -8.621619   -3.939048    1.721154
    101          1           0       -9.630959   -3.525387    0.455407
    102          1           0        1.233991   -5.983320    0.028285
    103          1           0        1.526467   -4.966182    1.467306
    104          1           0        3.209566   -3.858587    0.478101
    105          1           0        0.979310   -4.482064   -2.501661
    106          1           0        2.408335   -5.167757   -3.309357
    107          1           0        2.189918   -3.505039   -3.374862
    108          1           0        4.888898   -3.768445   -2.508026
    109          1           0        4.880084   -3.309839   -0.852183
    110          1           0        3.718595   -1.277732   -1.150350
    111          1           0        3.380646   -1.617828   -2.850277
    112          1           0        5.451382   -0.644447   -3.357905
    113          1           0        6.253409   -1.920210   -2.396306
    114          1           0        5.381001    0.052375   -0.499986
    115          1           0        4.905325    1.619519   -2.080630
    116          1           0        6.514512    1.178229   -2.886346
    117          1           0        6.461649    2.125106   -1.366741
    118          1           0        8.233516    0.399961   -1.383470
    119          1           0        7.645465   -1.305893   -0.941143
    120          1           0        6.662663    0.308385    1.114824
    121          1           0        8.025603    1.184877    0.880083
    122          1           0        8.770527   -1.705570    1.070632
    123          1           0        7.727312   -1.198066    2.331151
    124          1           0        9.353624    0.808728    2.719651
    125          1           0       10.065907   -2.020246    3.365587
    126          1           0        9.186890   -0.660243    4.270289
    127          1           0       10.842369   -0.494544    3.996832
    128          1           0       11.218564   -1.156507    1.085355
    129          1           0       11.691420    0.077174    2.141954
    130          1           0       11.881590    1.537486    0.519116
    131          1           0       10.199663    1.340589    0.137797
    132          1           0       10.479617   -0.245371   -1.493902
    133          1           0       11.882789   -1.003538   -0.744184
    134          1           0       12.496897    1.729226   -1.489580
    135          1           0       12.418513    1.852133   -3.842255
    136          1           0       10.829935    1.232730   -3.346863
    137          1           0       11.999566    0.247150   -4.218552
    138          1           0       14.103363   -0.499658   -2.709796
    139          1           0       13.915303   -0.543328   -0.987893
    140          1           0       14.613739    0.855438   -1.906163
 ---------------------------------------------------------------------

 SCF Done:  E(RwB97XD) =  -3007.86591972     A.U. after   20 cycles

 Excitation energies and oscillator strengths:

 Excited State   1:      Singlet-A      1.6617 eV  746.12 nm  f=0.3457  <S**2>=0.000
     245 -> 248        0.19648
     246 -> 247        0.68029
     245 <- 248        0.11940
 This state for optimization and/or second-order correction.
 Total Energy, E(TD-HF/TD-DFT) =  -3007.80485263
 Copying the excited state density for this state as the 1-particle RhoCI density.

 Excited State   2:      Singlet-A      2.1642 eV  572.90 nm  f=0.0744  <S**2>=0.000
     245 -> 247        0.62311
     246 -> 248       -0.31990

 Excited State   3:      Singlet-A      3.3223 eV  373.19 nm  f=0.0357  <S**2>=0.000
     241 -> 247        0.15887
     241 -> 249       -0.17665
     241 -> 251       -0.13630
     242 -> 247        0.50483
     242 -> 249       -0.16326
     244 -> 247       -0.20532
     246 -> 248        0.22205

 Excited State   4:      Singlet-A      3.4408 eV  360.34 nm  f=0.1696  <S**2>=0.000
     241 -> 247        0.46836
     241 -> 249       -0.22496
     241 -> 251       -0.12715
     242 -> 247       -0.13175
     244 -> 247        0.12783
     245 -> 247       -0.14767
     246 -> 248       -0.33417

 Excited State   5:      Singlet-A      3.4637 eV  357.95 nm  f=0.1181  <S**2>=0.000
     244 -> 247        0.58078
     244 -> 249        0.10342
     245 -> 247        0.12756
     246 -> 248        0.29791

 The electronic state is 1-A.
 Alpha  occ. eigenvalues --  -46.97813 -19.32054 -19.30194 -19.25682 -19.24701
 Alpha  occ. eigenvalues --  -19.23542 -19.23277 -14.47195 -14.46935 -14.44679
 Alpha  occ. eigenvalues --  -14.43968 -10.44513 -10.43350 -10.38771 -10.38148
 Alpha  occ. eigenvalues --  -10.36169 -10.36125 -10.35987 -10.35617 -10.35498
 Alpha  occ. eigenvalues --  -10.35467 -10.34887 -10.34413 -10.33232 -10.32883
 Alpha  occ. eigenvalues --  -10.32603 -10.32601 -10.32483 -10.32407 -10.32327
 Alpha  occ. eigenvalues --  -10.32260 -10.32254 -10.32135 -10.32011 -10.31831
 Alpha  occ. eigenvalues --  -10.31698 -10.31452 -10.31238 -10.31151 -10.30982
 Alpha  occ. eigenvalues --  -10.30865 -10.30861 -10.30836 -10.30781 -10.30304
 Alpha  occ. eigenvalues --  -10.30269 -10.30170 -10.29982 -10.29747 -10.29639
 Alpha  occ. eigenvalues --  -10.29541 -10.29314 -10.29276 -10.29198 -10.29147
 Alpha  occ. eigenvalues --  -10.28810 -10.28681 -10.28535 -10.28371 -10.28330
 Alpha  occ. eigenvalues --  -10.28271 -10.28265 -10.28087 -10.27898 -10.27861
 Alpha  occ. eigenvalues --  -10.27712  -3.23457  -1.97035  -1.96607  -1.96365
 Alpha  occ. eigenvalues --   -1.19512  -1.17658  -1.12920  -1.11388  -1.10995
 Alpha  occ. eigenvalues --   -1.09086  -1.08879  -1.06466  -1.06432  -1.04333
 Alpha  occ. eigenvalues --   -0.95177  -0.91649  -0.91298  -0.91274  -0.91069
 Alpha  occ. eigenvalues --   -0.90731  -0.89832  -0.89356  -0.88998  -0.88875
 Alpha  occ. eigenvalues --   -0.88510  -0.87271  -0.86164  -0.85875  -0.85122
 Alpha  occ. eigenvalues --   -0.84476  -0.84050  -0.83472  -0.83230  -0.82677
 Alpha  occ. eigenvalues --   -0.81930  -0.80452  -0.80007  -0.79423  -0.79035
 Alpha  occ. eigenvalues --   -0.77824  -0.77168  -0.77145  -0.76226  -0.75394
 Alpha  occ. eigenvalues --   -0.75240  -0.74774  -0.74423  -0.72566  -0.72373
 Alpha  occ. eigenvalues --   -0.71009  -0.70055  -0.69751  -0.68508  -0.68209
 Alpha  occ. eigenvalues --   -0.68128  -0.67417  -0.67188  -0.66723  -0.66125
 Alpha  occ. eigenvalues --   -0.65533  -0.65222  -0.64620  -0.64373  -0.62628
 Alpha  occ. eigenvalues --   -0.61512  -0.61428  -0.61128  -0.60407  -0.60240
 Alpha  occ. eigenvalues --   -0.59960  -0.58964  -0.58775  -0.58403  -0.58178
 Alpha  occ. eigenvalues --   -0.57427  -0.57332  -0.56938  -0.56874  -0.55904
 Alpha  occ. eigenvalues --   -0.55805  -0.55598  -0.55086  -0.54900  -0.54563
 Alpha  occ. eigenvalues --   -0.54381  -0.54218  -0.53961  -0.53907  -0.53778
 Alpha  occ. eigenvalues --   -0.53209  -0.53036  -0.52940  -0.52920  -0.52644
 Alpha  occ. eigenvalues --   -0.52443  -0.52061  -0.51972  -0.51694  -0.51556
 Alpha  occ. eigenvalues --   -0.51258  -0.51075  -0.50946  -0.50761  -0.50439
 Alpha  occ. eigenvalues --   -0.50241  -0.50070  -0.49960  -0.49924  -0.49755
 Alpha  occ. eigenvalues --   -0.49441  -0.49344  -0.49291  -0.48834  -0.48633
 Alpha  occ. eigenvalues --   -0.48517  -0.48263  -0.48120  -0.48090  -0.47856
 Alpha  occ. eigenvalues --   -0.47760  -0.47625  -0.47463  -0.47286  -0.47173
 Alpha  occ. eigenvalues --   -0.46877  -0.46436  -0.46260  -0.46016  -0.45952
 Alpha  occ. eigenvalues --   -0.45839  -0.45668  -0.45434  -0.45337  -0.45095
 Alpha  occ. eigenvalues --   -0.44895  -0.44766  -0.44487  -0.44210  -0.44119
 Alpha  occ. eigenvalues --   -0.43947  -0.43644  -0.43311  -0.42976  -0.42836
 Alpha  occ. eigenvalues --   -0.42649  -0.42457  -0.41967  -0.41952  -0.41865
 Alpha  occ. eigenvalues --   -0.41678  -0.41523  -0.41444  -0.41123  -0.41054
 Alpha  occ. eigenvalues --   -0.40498  -0.40270  -0.39833  -0.39632  -0.39399
 Alpha  occ. eigenvalues --   -0.39295  -0.39234  -0.39127  -0.38826  -0.38647
 Alpha  occ. eigenvalues --   -0.38231  -0.37381  -0.37039  -0.36560  -0.36083
 Alpha  occ. eigenvalues --   -0.36019  -0.35883  -0.35830  -0.33531  -0.32850
 Alpha  occ. eigenvalues --   -0.32590  -0.32063  -0.31968  -0.31900  -0.26276
 Alpha  occ. eigenvalues --   -0.23245
 Alpha virt. eigenvalues --   -0.07196  -0.00628   0.02175   0.03969   0.04432
 Alpha virt. eigenvalues --    0.06286   0.06737   0.06990   0.07566   0.09016
 Alpha virt. eigenvalues --    0.10136   0.11146   0.11621   0.11999   0.12657

 Mulliken charges:
               1
     1  Mg   0.924580
     2  C   -0.057878
     3  C   -0.091088
     4  C   -0.084645
     5  C   -0.103627
     6  N   -0.329568
     7  C   -0.041493
     8  C   -0.053796
     9  C   -0.099838
    10  C    0.015502
    11  C    0.021497
    12  C    0.027780
    13  C   -0.045171
    14  C    0.237467
    15  O   -0.281315
    16  O   -0.352238
    17  N   -0.432602
    18  C    0.201435
    19  C   -0.176231
    20  C   -0.021796
    21  C    0.157687
    22  C    0.104441
    23  C   -0.016606
    24  O   -0.267240
    25  C    0.018660
    26  N   -0.295345
    27  C    0.020485
    28  C   -0.100759
    29  C   -0.011531
    30  C   -0.018809
    31  C    0.034826
    32  C   -0.035654
    33  C   -0.051436
    34  N   -0.400485
    35  C    0.152290
    36  C   -0.197610
    37  C   -0.061648
    38  C    0.145827
    39  C    0.098025
    40  C    0.098516
    41  O   -0.185627
    42  C   -0.019296
    43  C    0.266260
    44  O   -0.246763
    45  O   -0.349747
    46  C    0.136303
    47  C    0.277348
    48  C   -0.157292
    49  C   -0.159278
    50  C    0.045741
    51  C   -0.006961
    52  C   -0.032588
    53  C    0.004184
    54  C   -0.202110
    55  C   -0.014341
    56  C    0.012005
    57  C   -0.015337
    58  C    0.040444
    59  C   -0.188619
    60  C    0.001178
    61  C   -0.027895
    62  C   -0.006753
    63  C   -0.010472
    64  C   -0.178974
    65  C   -0.014810
    66  C   -0.012381
    67  H    0.005975
    68  H   -0.013843
    69  H   -0.008041
    70  H    0.036107
    71  H    0.040119
    72  H    0.051404
    73  H    0.037809
    74  H    0.039257
    75  H    0.068010
    76  H    0.036646
    77  H    0.065713
    78  H    0.071006
    79  H    0.056564
    80  H    0.011999
    81  H    0.052895
    82  H    0.060670
    83  H    0.062009
    84  H    0.066717
    85  H    0.036592
    86  H    0.029186
    87  H    0.023971
    88  H    0.041072
    89  H    0.045550
    90  H    0.038939
    91  H    0.028235
    92  H    0.037960
    93  H    0.035635
    94  H    0.044541
    95  H    0.071868
    96  H    0.042628
    97  H    0.036491
    98  H    0.070461
    99  H    0.050396
   100  H    0.052093
   101  H    0.058394
   102  H    0.053358
   103  H    0.039484
   104  H    0.012041
   105  H    0.051170
   106  H    0.035629
   107  H    0.022610
   108  H    0.034335
   109  H    0.024183
   110  H    0.027746
   111  H    0.030418
   112  H    0.022388
   113  H    0.014847
   114  H    0.017147
   115  H    0.034814
   116  H    0.027495
   117  H    0.029914
   118  H    0.039672
   119  H    0.022797
   120  H    0.007438
   121  H    0.015624
   122  H    0.010488
   123  H    0.008565
   124  H    0.013015
   125  H    0.036656
   126  H    0.019763
   127  H    0.020887
   128  H    0.003616
   129  H    0.001000
   130  H    0.024953
   131  H    0.006463
   132  H    0.013588
   133  H    0.021947
   134  H    0.029950
   135  H    0.024983
   136  H    0.026265
   137  H    0.032234
   138  H    0.018464
   139  H    0.030719
   140  H    0.023484
 Sum of Mulliken charges =  -0.00000

 Dipole moment (field-independent basis, Debye):
    X=             -0.5833    Y=              7.0778    Z=             -0.4841  Tot=              7.1183
 Quadrupole moment (field-independent basis, Debye-Ang):
   XX=           -391.3011   YY=           -419.2589   ZZ=           -406.1377
   XY=            -35.2615   XZ=            -23.9355   YZ=            -28.9830

 Normal termination of Gaussian 16 at Wed May  4 01:27:40 2022.
