 Gaussian 16, Revision A.03,
 Gaussian 16:  ES64L-G16RevA.03 25-Dec-2016

 --------------------
 #p ZINDO=(nstates=5)
 --------------------

 ------------------------------
 step_1201_chromophore_26 ZINDO
 ------------------------------
 Symbolic Z-matrix:
 Charge =  0 Multiplicity = 1

                         Standard orientation:
 ---------------------------------------------------------------------
 Center     Atomic      Atomic             Coordinates (Angstroms)
 Number     Number       Type             X           Y           Z
 ---------------------------------------------------------------------
      1         12           0       -3.618041    1.498655    0.467746
      2          6           0       -4.750449   -1.714206   -0.404006
      3          6           0       -2.166688    0.150926    3.310510
      4          6           0       -2.075362    4.387316    0.843251
      5          6           0       -4.960113    2.586179   -2.626430
      6          7           0       -3.154192   -0.715408    1.207410
      7          6           0       -3.961954   -1.760205    0.771170
      8          6           0       -3.950486   -2.904077    1.762929
      9          6           0       -3.395056   -2.210556    3.072459
     10          6           0       -2.892853   -0.834286    2.565256
     11          6           0       -4.447119   -1.984076    4.212660
     12          6           0       -3.415354   -4.314746    1.389650
     13          6           0       -2.362680   -4.344670    0.208664
     14          6           0       -1.088568   -5.146506    0.432140
     15          8           0       -1.049127   -6.315329    0.864335
     16          8           0        0.008302   -4.353118    0.142205
     17          7           0       -2.311692    2.225791    2.037930
     18          6           0       -1.864557    1.507088    3.058922
     19          6           0       -1.090876    2.409394    3.842881
     20          6           0       -1.170274    3.705142    3.330471
     21          6           0       -1.869483    3.525243    1.995067
     22          6           0       -0.310114    2.019385    5.015557
     23          6           0       -0.568750    4.939733    3.850690
     24          8           0       -0.097900    4.816235    4.990835
     25          6           0       -0.680250    6.343336    3.215713
     26          7           0       -3.517210    3.242813   -0.798589
     27          6           0       -2.777976    4.238127   -0.384420
     28          6           0       -2.934973    5.449266   -1.312191
     29          6           0       -3.812780    4.901334   -2.466232
     30          6           0       -4.108164    3.505974   -1.947087
     31          6           0       -3.396075    6.766765   -0.635659
     32          6           0       -3.183527    4.871943   -3.915886
     33          6           0       -2.801131    6.215298   -4.626660
     34          7           0       -4.644300    0.678366   -1.192361
     35          6           0       -5.192122    1.259812   -2.316291
     36          6           0       -5.953865    0.315680   -3.060763
     37          6           0       -5.840509   -0.901532   -2.315890
     38          6           0       -4.991085   -0.595892   -1.235133
     39          6           0       -6.685553    0.513314   -4.378040
     40          6           0       -6.293766   -2.260275   -2.194238
     41          8           0       -7.009396   -2.817281   -2.985670
     42          6           0       -5.614711   -2.854894   -0.999870
     43          6           0       -6.633755   -3.526523   -0.100381
     44          8           0       -6.558742   -4.728375    0.159855
     45          8           0       -7.659375   -2.673436    0.195506
     46          6           0       -8.764633   -3.140073    0.993338
     47          6           0        1.294109   -4.961420    0.402194
     48          6           0        2.467592   -4.229187   -0.229002
     49          6           0        2.905394   -4.082467   -1.501173
     50          6           0        2.042396   -4.344511   -2.695526
     51          6           0        4.246969   -3.339019   -1.739192
     52          6           0        4.068119   -1.819692   -2.029243
     53          6           0        5.507183   -1.125938   -2.381154
     54          6           0        6.046769   -0.031304   -1.358823
     55          6           0        5.958680    1.366281   -1.967999
     56          6           0        7.532948   -0.227248   -0.830631
     57          6           0        7.652942    0.180753    0.679006
     58          6           0        8.397105   -0.808488    1.564993
     59          6           0        9.582999   -0.176468    2.313354
     60          6           0        9.956498   -0.952838    3.555617
     61          6           0       10.898013   -0.175955    1.437918
     62          6           0       11.135272    0.791840    0.244810
     63          6           0       11.445705   -0.046135   -1.029402
     64          6           0       12.409883    0.747869   -1.956058
     65          6           0       11.889245    0.992325   -3.430280
     66          6           0       13.817997    0.111863   -1.853864
     67          1           0       -1.850383   -0.288432    4.258220
     68          1           0       -1.621839    5.380211    0.879691
     69          1           0       -5.374554    2.968352   -3.561684
     70          1           0       -4.994356   -3.087593    2.017935
     71          1           0       -2.549897   -2.806918    3.417182
     72          1           0       -4.595434   -2.944959    4.704706
     73          1           0       -5.366717   -1.557809    3.810767
     74          1           0       -4.079340   -1.269481    4.948444
     75          1           0       -4.235246   -4.987217    1.136232
     76          1           0       -2.833091   -4.648489    2.248375
     77          1           0       -2.165181   -3.283376    0.057730
     78          1           0       -2.913397   -4.692717   -0.665837
     79          1           0        0.745979    2.287392    5.004553
     80          1           0       -0.440263    0.965026    5.257535
     81          1           0       -0.716224    2.556328    5.872612
     82          1           0       -1.702569    6.404476    2.843327
     83          1           0        0.022831    6.290461    2.385086
     84          1           0       -0.375038    7.085291    3.954112
     85          1           0       -1.921429    5.577907   -1.694531
     86          1           0       -4.735450    5.481356   -2.449748
     87          1           0       -4.446218    6.984127   -0.829884
     88          1           0       -2.972882    7.624651   -1.157445
     89          1           0       -3.278503    6.668848    0.443588
     90          1           0       -3.727828    4.221714   -4.599846
     91          1           0       -2.272484    4.318495   -3.687447
     92          1           0       -2.964107    7.203091   -4.196560
     93          1           0       -3.458899    6.201325   -5.495504
     94          1           0       -1.770436    6.215641   -4.982478
     95          1           0       -7.212730   -0.390421   -4.684360
     96          1           0       -6.015334    0.928074   -5.130571
     97          1           0       -7.363855    1.339076   -4.163577
     98          1           0       -4.875837   -3.591417   -1.315222
     99          1           0       -9.077746   -2.271646    1.573107
    100          1           0       -8.621619   -3.939048    1.721154
    101          1           0       -9.630959   -3.525387    0.455407
    102          1           0        1.233991   -5.983320    0.028285
    103          1           0        1.526467   -4.966182    1.467306
    104          1           0        3.209566   -3.858587    0.478101
    105          1           0        0.979310   -4.482064   -2.501661
    106          1           0        2.408335   -5.167757   -3.309357
    107          1           0        2.189918   -3.505039   -3.374862
    108          1           0        4.888898   -3.768445   -2.508026
    109          1           0        4.880084   -3.309839   -0.852183
    110          1           0        3.718595   -1.277732   -1.150350
    111          1           0        3.380646   -1.617828   -2.850277
    112          1           0        5.451382   -0.644447   -3.357905
    113          1           0        6.253409   -1.920210   -2.396306
    114          1           0        5.381001    0.052375   -0.499986
    115          1           0        4.905325    1.619519   -2.080630
    116          1           0        6.514512    1.178229   -2.886346
    117          1           0        6.461649    2.125106   -1.366741
    118          1           0        8.233516    0.399961   -1.383470
    119          1           0        7.645465   -1.305893   -0.941143
    120          1           0        6.662663    0.308385    1.114824
    121          1           0        8.025603    1.184877    0.880083
    122          1           0        8.770527   -1.705570    1.070632
    123          1           0        7.727312   -1.198066    2.331151
    124          1           0        9.353624    0.808728    2.719651
    125          1           0       10.065907   -2.020246    3.365587
    126          1           0        9.186890   -0.660243    4.270289
    127          1           0       10.842369   -0.494544    3.996832
    128          1           0       11.218564   -1.156507    1.085355
    129          1           0       11.691420    0.077174    2.141954
    130          1           0       11.881590    1.537486    0.519116
    131          1           0       10.199663    1.340589    0.137797
    132          1           0       10.479617   -0.245371   -1.493902
    133          1           0       11.882789   -1.003538   -0.744184
    134          1           0       12.496897    1.729226   -1.489580
    135          1           0       12.418513    1.852133   -3.842255
    136          1           0       10.829935    1.232730   -3.346863
    137          1           0       11.999566    0.247150   -4.218552
    138          1           0       14.103363   -0.499658   -2.709796
    139          1           0       13.915303   -0.543328   -0.987893
    140          1           0       14.613739    0.855438   -1.906163
 ---------------------------------------------------------------------

 SCF Done:  E(RZINDO/S) =  -474.239907251     A.U. after   19 cycles

 Excitation energies and oscillator strengths:

 Excited State   1:      Singlet-A      1.2574 eV  986.07 nm  f=0.5447  <S**2>=0.000
     175 ->178        -0.18743
     176 ->177         0.66347
 This state for optimization and/or second-order correction.
 Total Energy, E(CIS/TDA) =  -474.193700197
 Copying the excited state density for this state as the 1-particle RhoCI density.

 Excited State   2:      Singlet-A      1.8870 eV  657.04 nm  f=0.0182  <S**2>=0.000
     175 ->177         0.52273
     176 ->178         0.44690

 Excited State   3:      Singlet-A      2.7729 eV  447.13 nm  f=0.0026  <S**2>=0.000
     168 ->177         0.24978
     168 ->178        -0.15622
     168 ->179        -0.29696
     168 ->181         0.20754
     168 ->186        -0.15009
     169 ->177         0.19798
     169 ->178        -0.12219
     169 ->179        -0.22482
     169 ->181         0.15730
     169 ->186        -0.11565

 Excited State   4:      Singlet-A      2.9140 eV  425.48 nm  f=0.7317  <S**2>=0.000
     175 ->177        -0.31088
     176 ->178         0.41509
     176 ->179         0.33632
     176 ->180         0.26924

 Excited State   5:      Singlet-A      2.9886 eV  414.86 nm  f=0.3538  <S**2>=0.000
     170 ->177        -0.12958
     170 ->179        -0.16051
     170 ->181        -0.13969
     175 ->177         0.23859
     176 ->178        -0.27161
     176 ->179         0.23913
     176 ->180         0.41294

 The electronic state is 1-A.
 Alpha  occ. eigenvalues --   -1.85862  -1.83151  -1.80845  -1.73140  -1.71879
 Alpha  occ. eigenvalues --   -1.70926  -1.64955  -1.60067  -1.59595  -1.58870
 Alpha  occ. eigenvalues --   -1.53975  -1.51478  -1.49039  -1.47273  -1.46595
 Alpha  occ. eigenvalues --   -1.45871  -1.42176  -1.41589  -1.38069  -1.36555
 Alpha  occ. eigenvalues --   -1.35972  -1.33508  -1.33167  -1.31219  -1.29221
 Alpha  occ. eigenvalues --   -1.28570  -1.27128  -1.23647  -1.21630  -1.18348
 Alpha  occ. eigenvalues --   -1.16564  -1.16255  -1.15269  -1.14285  -1.12399
 Alpha  occ. eigenvalues --   -1.11295  -1.09531  -1.09415  -1.06764  -1.05040
 Alpha  occ. eigenvalues --   -1.02790  -1.02237  -0.99445  -0.98497  -0.96974
 Alpha  occ. eigenvalues --   -0.96172  -0.94442  -0.93569  -0.92694  -0.91589
 Alpha  occ. eigenvalues --   -0.91003  -0.90384  -0.89596  -0.89087  -0.87493
 Alpha  occ. eigenvalues --   -0.86259  -0.85753  -0.84440  -0.82913  -0.81034
 Alpha  occ. eigenvalues --   -0.79457  -0.78334  -0.77398  -0.77215  -0.76787
 Alpha  occ. eigenvalues --   -0.76518  -0.76391  -0.74916  -0.74457  -0.74272
 Alpha  occ. eigenvalues --   -0.73127  -0.72058  -0.71767  -0.70750  -0.70599
 Alpha  occ. eigenvalues --   -0.70511  -0.69847  -0.69100  -0.68219  -0.67686
 Alpha  occ. eigenvalues --   -0.67380  -0.66851  -0.66330  -0.65862  -0.65214
 Alpha  occ. eigenvalues --   -0.64776  -0.64554  -0.64380  -0.63704  -0.63510
 Alpha  occ. eigenvalues --   -0.63196  -0.62800  -0.62227  -0.62102  -0.62002
 Alpha  occ. eigenvalues --   -0.61745  -0.61247  -0.61005  -0.60665  -0.59952
 Alpha  occ. eigenvalues --   -0.59788  -0.59074  -0.58838  -0.58697  -0.58270
 Alpha  occ. eigenvalues --   -0.57673  -0.57430  -0.57111  -0.56655  -0.56470
 Alpha  occ. eigenvalues --   -0.56409  -0.55845  -0.55410  -0.55057  -0.54901
 Alpha  occ. eigenvalues --   -0.54543  -0.54207  -0.53892  -0.53217  -0.52943
 Alpha  occ. eigenvalues --   -0.52712  -0.52388  -0.52106  -0.51873  -0.51799
 Alpha  occ. eigenvalues --   -0.51460  -0.51053  -0.50882  -0.50674  -0.50414
 Alpha  occ. eigenvalues --   -0.50319  -0.49864  -0.49590  -0.49385  -0.49330
 Alpha  occ. eigenvalues --   -0.49138  -0.48975  -0.48899  -0.48400  -0.48340
 Alpha  occ. eigenvalues --   -0.47586  -0.47221  -0.47205  -0.46815  -0.46597
 Alpha  occ. eigenvalues --   -0.46278  -0.46175  -0.46000  -0.45680  -0.45454
 Alpha  occ. eigenvalues --   -0.45424  -0.45223  -0.45075  -0.44919  -0.44663
 Alpha  occ. eigenvalues --   -0.44343  -0.43365  -0.43052  -0.42326  -0.42006
 Alpha  occ. eigenvalues --   -0.41914  -0.41805  -0.41260  -0.39216  -0.39116
 Alpha  occ. eigenvalues --   -0.38636  -0.37449  -0.35561  -0.35223  -0.34225
 Alpha  occ. eigenvalues --   -0.33621  -0.32706  -0.32663  -0.32083  -0.26957
 Alpha  occ. eigenvalues --   -0.21989
 Alpha virt. eigenvalues --   -0.08589  -0.02813  -0.00876   0.00560   0.00973
 Alpha virt. eigenvalues --    0.01420   0.02197   0.02462   0.04424   0.04442
 Alpha virt. eigenvalues --    0.05808   0.06631   0.06858   0.07440   0.07569

 Mulliken charges:
               1
     1  Mg   0.441714
     2  C   -0.068340
     3  C   -0.093438
     4  C   -0.095719
     5  C   -0.058575
     6  N   -0.315340
     7  C    0.119124
     8  C    0.000942
     9  C    0.007881
    10  C    0.158204
    11  C   -0.045127
    12  C   -0.020685
    13  C   -0.004026
    14  C    0.471565
    15  O   -0.517876
    16  O   -0.261635
    17  N   -0.321452
    18  C    0.150072
    19  C    0.078596
    20  C   -0.038031
    21  C    0.105714
    22  C   -0.036895
    23  C    0.314656
    24  O   -0.535582
    25  C   -0.027025
    26  N   -0.235283
    27  C    0.144070
    28  C    0.001720
    29  C    0.004830
    30  C    0.088484
    31  C   -0.055306
    32  C   -0.028840
    33  C   -0.062896
    34  N   -0.324729
    35  C    0.076534
    36  C    0.021095
    37  C   -0.083162
    38  C    0.120410
    39  C   -0.038909
    40  C    0.342752
    41  O   -0.525774
    42  C    0.056449
    43  C    0.489205
    44  O   -0.522778
    45  O   -0.248936
    46  C    0.077554
    47  C    0.112225
    48  C   -0.094264
    49  C    0.004515
    50  C   -0.040012
    51  C   -0.018271
    52  C   -0.036052
    53  C   -0.049819
    54  C   -0.026956
    55  C   -0.061745
    56  C   -0.036096
    57  C   -0.038716
    58  C   -0.027729
    59  C   -0.008273
    60  C   -0.060459
    61  C   -0.052170
    62  C   -0.042219
    63  C   -0.032712
    64  C   -0.010515
    65  C   -0.059257
    66  C   -0.059505
    67  H    0.023675
    68  H    0.022284
    69  H    0.022244
    70  H    0.023476
    71  H    0.036516
    72  H    0.024564
    73  H    0.028356
    74  H    0.020737
    75  H    0.048906
    76  H    0.029275
    77  H    0.034257
    78  H    0.048924
    79  H    0.045759
    80  H    0.013528
    81  H    0.040160
    82  H    0.040341
    83  H    0.039450
    84  H    0.049795
    85  H    0.025679
    86  H    0.027278
    87  H    0.016182
    88  H    0.025519
    89  H    0.033546
    90  H    0.031068
    91  H    0.014524
    92  H    0.027884
    93  H    0.012672
    94  H    0.020974
    95  H    0.044307
    96  H    0.029678
    97  H    0.024495
    98  H    0.056723
    99  H    0.024339
   100  H    0.043710
   101  H    0.044917
   102  H    0.053337
   103  H    0.041063
   104  H    0.017329
   105  H    0.031411
   106  H    0.026839
   107  H    0.020624
   108  H    0.026695
   109  H    0.018682
   110  H    0.024188
   111  H    0.023162
   112  H    0.021814
   113  H    0.019426
   114  H    0.018480
   115  H    0.017262
   116  H    0.022081
   117  H    0.016934
   118  H    0.032415
   119  H    0.025173
   120  H    0.011855
   121  H    0.021936
   122  H    0.021199
   123  H    0.010209
   124  H    0.025615
   125  H    0.029215
   126  H    0.010330
   127  H    0.013806
   128  H    0.022730
   129  H    0.001938
   130  H    0.025159
   131  H    0.016143
   132  H    0.018433
   133  H    0.026174
   134  H    0.021496
   135  H    0.012584
   136  H    0.014895
   137  H    0.026773
   138  H    0.012606
   139  H    0.022822
   140  H    0.014238
 Sum of Mulliken charges =  -0.00000

 Dipole moment (field-independent basis, Debye):
    X=              1.2318    Y=              9.5193    Z=              0.9282  Tot=              9.6434
 N-N= 4.458724512030D+03 E-N= 0.000000000000D+00  KE=-9.591123260536D+03
 Leave Link  601 at Wed May  4 01:40:22 2022, MaxMem=  6710886400 cpu:               0.8 elap:               0.0
 (Enter /sw/apps/gaussian-16.0/g16/l9999.exe)
 1\1\GINC-BP1-COMPUTE097\SP\RZINDO CIS\STO-3G\C55H74Mg1N4O6\OF15641\04-
 May-2022\0\\#p ZINDO=(nstates=5)\\step_1201_chromophore_26 ZINDO\\0,1\
 Mg,0,-9.464,18.756,42.508\C,0,-6.105,17.716,42.491\C,0,-8.413,21.963,4
 1.724\C,0,-12.628,19.465,41.915\C,0,-10.299,15.355,43.05\N,0,-7.407,19
 .697,41.768\C,0,-6.212,19.078,42.119\C,0,-5.071,20.073,42.135\C,0,-5.8
 32,21.459,42.2\C,0,-7.307,21.073,41.919\C,0,-5.751,22.208,43.575\C,0,-
 3.85,19.944,41.182\C,0,-4.123,19.148,39.842\C,0,-3.652,19.788,38.544\O

 Normal termination of Gaussian 16 at Wed May  4 01:40:22 2022.
