 Gaussian 16, Revision A.03,
 Gaussian 16:  ES64L-G16RevA.03 25-Dec-2016

 ------------------------------
 #p blyp/Def2SVP td=(nstates=5)
 ------------------------------

 --------------------------------------------------
 step_201_chromophore_18 TDDFT with blyp functional
 --------------------------------------------------
 Symbolic Z-matrix:
 Charge =  0 Multiplicity = 1

                         Standard orientation:
 ---------------------------------------------------------------------
 Center     Atomic      Atomic             Coordinates (Angstroms)
 Number     Number       Type             X           Y           Z
 ---------------------------------------------------------------------
      1         12           0        5.293454    1.040246    0.021013
      2          6           0        5.034400   -2.373146   -0.137755
      3          6           0        2.012260    1.438103   -0.099302
      4          6           0        5.845643    4.377171   -0.207846
      5          6           0        8.887354    0.619041   -0.207039
      6          7           0        3.721158   -0.323299   -0.301280
      7          6           0        3.830555   -1.653701   -0.075031
      8          6           0        2.413474   -2.203799    0.215916
      9          6           0        1.465710   -1.032287   -0.177488
     10          6           0        2.459582    0.122148   -0.197202
     11          6           0        0.594171   -1.252583   -1.424078
     12          6           0        2.137289   -2.705424    1.695138
     13          6           0        0.814274   -3.342078    2.034680
     14          6           0       -0.105230   -3.771061    0.846880
     15          8           0        0.227226   -4.575082   -0.027286
     16          8           0       -1.290036   -3.048718    0.797185
     17          7           0        4.071841    2.687465    0.020385
     18          6           0        2.741167    2.618219    0.075496
     19          6           0        2.254775    3.985062    0.214977
     20          6           0        3.333084    4.858609    0.132149
     21          6           0        4.505091    4.002553   -0.035575
     22          6           0        0.728896    4.323192    0.211317
     23          6           0        3.376379    6.415528    0.151910
     24          8           0        4.392265    7.060306   -0.058817
     25          6           0        2.151859    7.165477    0.505961
     26          7           0        7.115930    2.322398   -0.327964
     27          6           0        7.015691    3.697274   -0.384463
     28          6           0        8.399515    4.276582   -0.447660
     29          6           0        9.347219    3.065773   -0.212369
     30          6           0        8.426516    1.930007   -0.225683
     31          6           0        8.639596    5.068340   -1.810022
     32          6           0       10.283490    3.243293    0.977989
     33          6           0        9.884292    2.679927    2.372725
     34          7           0        6.713432   -0.528519   -0.220685
     35          6           0        8.086874   -0.529976   -0.293405
     36          6           0        8.528824   -1.915242   -0.498822
     37          6           0        7.366497   -2.694188   -0.305189
     38          6           0        6.280272   -1.774350   -0.249155
     39          6           0        9.944875   -2.274003   -0.498771
     40          6           0        6.748146   -4.038867   -0.126241
     41          8           0        7.274783   -5.096907   -0.065873
     42          6           0        5.224895   -3.831511    0.009257
     43          6           0        4.576546   -4.630732   -1.074766
     44          8           0        4.743244   -4.367398   -2.249254
     45          8           0        3.843747   -5.684798   -0.590398
     46          6           0        3.414545   -6.685312   -1.523967
     47          6           0       -2.202159   -3.420924   -0.340445
     48          6           0       -3.583938   -2.678432   -0.254743
     49          6           0       -4.814500   -3.219616   -0.393296
     50          6           0       -5.118443   -4.720476   -0.628846
     51          6           0       -6.121635   -2.348901   -0.161946
     52          6           0       -6.883154   -2.455763    1.166705
     53          6           0       -6.942470   -1.153061    1.989181
     54          6           0       -8.427048   -0.863707    2.278717
     55          6           0       -8.518260   -0.266704    3.694649
     56          6           0       -8.878893    0.209246    1.130025
     57          6           0      -10.191806   -0.241663    0.575350
     58          6           0      -11.493731    0.069038    1.463912
     59          6           0      -12.518198    0.989848    0.694045
     60          6           0      -13.108122    2.122804    1.659195
     61          6           0      -13.652777    0.082954    0.029042
     62          6           0      -14.002022    0.585209   -1.451766
     63          6           0      -15.395674    1.170651   -1.528706
     64          6           0      -15.410483    2.496684   -2.380975
     65          6           0      -15.212110    3.716400   -1.367512
     66          6           0      -16.749658    2.750600   -3.139170
     67          1           0        0.957874    1.570915    0.149765
     68          1           0        5.993963    5.450756   -0.077943
     69          1           0        9.966085    0.506849   -0.081285
     70          1           0        2.253285   -3.083179   -0.408004
     71          1           0        0.623415   -0.959907    0.510745
     72          1           0        0.680364   -2.281511   -1.771629
     73          1           0        1.120914   -0.723024   -2.218328
     74          1           0       -0.490955   -1.254053   -1.319802
     75          1           0        2.380684   -1.813933    2.272680
     76          1           0        2.907156   -3.452063    1.885137
     77          1           0        0.249127   -2.531055    2.491519
     78          1           0        1.005235   -4.193517    2.688406
     79          1           0        0.430093    5.007920    1.004590
     80          1           0        0.201803    3.372424    0.301818
     81          1           0        0.412375    4.802123   -0.715038
     82          1           0        1.248990    6.894569   -0.041544
     83          1           0        2.449741    8.207635    0.390962
     84          1           0        1.939472    6.975192    1.558537
     85          1           0        8.423924    4.996671    0.370144
     86          1           0       10.036089    2.923256   -1.045401
     87          1           0        8.497749    6.148719   -1.833462
     88          1           0        8.121416    4.452383   -2.544407
     89          1           0        9.715035    4.934965   -1.931530
     90          1           0       10.375594    4.319410    1.120034
     91          1           0       11.223713    2.759368    0.713365
     92          1           0       10.508918    1.828099    2.642479
     93          1           0        8.860350    2.321860    2.474782
     94          1           0       10.005394    3.426074    3.157478
     95          1           0       10.441228   -1.378125   -0.126952
     96          1           0       10.108059   -2.608444   -1.523578
     97          1           0       10.043508   -3.126473    0.172854
     98          1           0        4.901799   -4.138310    1.004136
     99          1           0        2.984209   -6.106786   -2.341304
    100          1           0        2.666920   -7.347017   -1.085929
    101          1           0        4.259815   -7.351632   -1.690933
    102          1           0       -2.284319   -4.508201   -0.340327
    103          1           0       -1.865547   -2.980512   -1.279031
    104          1           0       -3.407243   -1.627188   -0.025797
    105          1           0       -5.660704   -5.209246    0.182240
    106          1           0       -4.242364   -5.364370   -0.693930
    107          1           0       -5.696147   -4.960747   -1.521189
    108          1           0       -6.786163   -2.564300   -0.998684
    109          1           0       -5.861109   -1.323630   -0.424296
    110          1           0       -6.415801   -3.192710    1.820482
    111          1           0       -7.890621   -2.794333    0.924179
    112          1           0       -6.461078   -0.350637    1.428967
    113          1           0       -6.399109   -1.217367    2.932037
    114          1           0       -9.059381   -1.747978    2.194516
    115          1           0       -9.039080   -1.075843    4.207468
    116          1           0       -9.129219    0.636130    3.691077
    117          1           0       -7.557709   -0.173047    4.200751
    118          1           0       -8.193997    0.288265    0.285121
    119          1           0       -9.003270    1.204641    1.557240
    120          1           0      -10.058764   -1.308228    0.390190
    121          1           0      -10.375831    0.234866   -0.387950
    122          1           0      -11.195011    0.495022    2.422531
    123          1           0      -11.929795   -0.909158    1.664488
    124          1           0      -11.935261    1.395637   -0.132964
    125          1           0      -14.133574    2.306708    1.338965
    126          1           0      -12.706829    3.111473    1.434223
    127          1           0      -13.003104    1.842295    2.707106
    128          1           0      -14.516217    0.116476    0.691548
    129          1           0      -13.302777   -0.949523   -0.005243
    130          1           0      -13.934198   -0.300664   -2.083824
    131          1           0      -13.283456    1.362734   -1.710500
    132          1           0      -15.984983    1.381279   -0.636593
    133          1           0      -15.959371    0.401483   -2.056458
    134          1           0      -14.605455    2.575802   -3.112310
    135          1           0      -14.700581    4.552529   -1.843573
    136          1           0      -14.628535    3.402595   -0.502057
    137          1           0      -16.080452    4.264126   -1.002805
    138          1           0      -17.206871    3.619181   -2.664802
    139          1           0      -17.443649    1.910859   -3.114981
    140          1           0      -16.514273    3.003596   -4.173871
 ---------------------------------------------------------------------

 SCF Done:  E(RB-LYP) =  -3007.35508815     A.U. after   20 cycles

 Excitation energies and oscillator strengths:

 Excited State   1:      Singlet-A      1.8446 eV  672.16 nm  f=0.3100  <S**2>=0.000
     245 -> 248       -0.18985
     246 -> 247        0.68921
     246 <- 247       -0.14569
 This state for optimization and/or second-order correction.
 Total Energy, E(TD-HF/TD-DFT) =  -3007.28730186
 Copying the excited state density for this state as the 1-particle RhoCI density.

 Excited State   2:      Singlet-A      2.0700 eV  598.97 nm  f=0.0565  <S**2>=0.000
     245 -> 247        0.63333
     246 -> 248        0.25558

 Excited State   3:      Singlet-A      2.1112 eV  587.27 nm  f=0.0012  <S**2>=0.000
     244 -> 247        0.69979

 Excited State   4:      Singlet-A      2.2582 eV  549.04 nm  f=0.0017  <S**2>=0.000
     243 -> 247        0.69951

 Excited State   5:      Singlet-A      2.6174 eV  473.69 nm  f=0.0016  <S**2>=0.000
     242 -> 247        0.69110

 The electronic state is 1-A.
 Alpha  occ. eigenvalues --  -46.26659 -18.83340 -18.81142 -18.77702 -18.76029
 Alpha  occ. eigenvalues --  -18.75898 -18.75519 -14.03083 -14.02040 -14.00500
 Alpha  occ. eigenvalues --  -14.00079 -10.05219 -10.03232 -10.00187  -9.99350
 Alpha  occ. eigenvalues --   -9.99036  -9.96722  -9.96352  -9.96215  -9.95427
 Alpha  occ. eigenvalues --   -9.95337  -9.95141  -9.94950  -9.94918  -9.94681
 Alpha  occ. eigenvalues --   -9.94501  -9.93560  -9.93527  -9.93460  -9.93368
 Alpha  occ. eigenvalues --   -9.93270  -9.93191  -9.93158  -9.93120  -9.93079
 Alpha  occ. eigenvalues --   -9.92979  -9.92926  -9.92823  -9.92817  -9.92728
 Alpha  occ. eigenvalues --   -9.92567  -9.92483  -9.92453  -9.92346  -9.92312
 Alpha  occ. eigenvalues --   -9.92267  -9.92231  -9.92106  -9.92040  -9.91853
 Alpha  occ. eigenvalues --   -9.91793  -9.91595  -9.91511  -9.91468  -9.91379
 Alpha  occ. eigenvalues --   -9.91305  -9.91300  -9.91281  -9.91252  -9.91152
 Alpha  occ. eigenvalues --   -9.91034  -9.91032  -9.90899  -9.90872  -9.90623
 Alpha  occ. eigenvalues --   -9.90491  -2.91290  -1.71714  -1.71167  -1.71008
 Alpha  occ. eigenvalues --   -0.97641  -0.97297  -0.93222  -0.92097  -0.89899
 Alpha  occ. eigenvalues --   -0.89656  -0.86911  -0.85835  -0.85594  -0.84697
 Alpha  occ. eigenvalues --   -0.75760  -0.73525  -0.72938  -0.72467  -0.72201
 Alpha  occ. eigenvalues --   -0.71724  -0.71343  -0.70696  -0.70366  -0.70144
 Alpha  occ. eigenvalues --   -0.69704  -0.69107  -0.68003  -0.67113  -0.66868
 Alpha  occ. eigenvalues --   -0.66288  -0.65687  -0.65325  -0.64990  -0.64696
 Alpha  occ. eigenvalues --   -0.64294  -0.62454  -0.62299  -0.61797  -0.60723
 Alpha  occ. eigenvalues --   -0.60625  -0.59807  -0.59673  -0.59477  -0.58833
 Alpha  occ. eigenvalues --   -0.58396  -0.57429  -0.56680  -0.55638  -0.55187
 Alpha  occ. eigenvalues --   -0.53385  -0.53179  -0.52430  -0.52115  -0.51259
 Alpha  occ. eigenvalues --   -0.51013  -0.50542  -0.50505  -0.50320  -0.50227
 Alpha  occ. eigenvalues --   -0.49712  -0.49302  -0.48835  -0.47826  -0.47509
 Alpha  occ. eigenvalues --   -0.46189  -0.46118  -0.45508  -0.44916  -0.44669
 Alpha  occ. eigenvalues --   -0.43595  -0.43504  -0.43100  -0.42578  -0.42213
 Alpha  occ. eigenvalues --   -0.42148  -0.41975  -0.41714  -0.41377  -0.41320
 Alpha  occ. eigenvalues --   -0.41094  -0.40814  -0.40594  -0.40508  -0.40044
 Alpha  occ. eigenvalues --   -0.39897  -0.39776  -0.39678  -0.39426  -0.39391
 Alpha  occ. eigenvalues --   -0.39097  -0.38969  -0.38770  -0.38465  -0.38407
 Alpha  occ. eigenvalues --   -0.37903  -0.37534  -0.37415  -0.37287  -0.37126
 Alpha  occ. eigenvalues --   -0.37001  -0.36904  -0.36819  -0.36605  -0.36342
 Alpha  occ. eigenvalues --   -0.36266  -0.36193  -0.35946  -0.35746  -0.35715
 Alpha  occ. eigenvalues --   -0.35578  -0.35108  -0.34972  -0.34784  -0.34724
 Alpha  occ. eigenvalues --   -0.34553  -0.34349  -0.34139  -0.34029  -0.33963
 Alpha  occ. eigenvalues --   -0.33785  -0.33702  -0.33618  -0.33317  -0.33044
 Alpha  occ. eigenvalues --   -0.33019  -0.32769  -0.32741  -0.32295  -0.32165
 Alpha  occ. eigenvalues --   -0.32148  -0.31952  -0.31906  -0.31473  -0.31423
 Alpha  occ. eigenvalues --   -0.31129  -0.30902  -0.30756  -0.30412  -0.30394
 Alpha  occ. eigenvalues --   -0.30377  -0.30320  -0.29855  -0.29517  -0.29353
 Alpha  occ. eigenvalues --   -0.29314  -0.29181  -0.29114  -0.28933  -0.28827
 Alpha  occ. eigenvalues --   -0.28377  -0.28283  -0.27951  -0.27888  -0.27856
 Alpha  occ. eigenvalues --   -0.27801  -0.27612  -0.27237  -0.26669  -0.26348
 Alpha  occ. eigenvalues --   -0.26133  -0.25968  -0.25670  -0.25574  -0.25300
 Alpha  occ. eigenvalues --   -0.24866  -0.24339  -0.24241  -0.23547  -0.23300
 Alpha  occ. eigenvalues --   -0.22581  -0.22389  -0.21788  -0.21491  -0.21235
 Alpha  occ. eigenvalues --   -0.20694  -0.19962  -0.19151  -0.18586  -0.16962
 Alpha  occ. eigenvalues --   -0.15355
 Alpha virt. eigenvalues --   -0.10942  -0.06447  -0.05597  -0.04234  -0.04152
 Alpha virt. eigenvalues --   -0.02858  -0.02380  -0.01676  -0.01152   0.00587
 Alpha virt. eigenvalues --    0.01672   0.01831   0.02171   0.02428   0.02876

 Mulliken charges:
               1
     1  Mg   0.672012
     2  C   -0.013521
     3  C   -0.052219
     4  C   -0.028764
     5  C   -0.080570
     6  N   -0.226792
     7  C   -0.062549
     8  C    0.004035
     9  C   -0.037959
    10  C    0.073784
    11  C    0.137649
    12  C    0.079507
    13  C    0.196425
    14  C    0.074809
    15  O   -0.203784
    16  O   -0.289985
    17  N   -0.295204
    18  C    0.107868
    19  C   -0.137323
    20  C    0.056828
    21  C    0.060749
    22  C    0.146335
    23  C   -0.064513
    24  O   -0.153968
    25  C    0.127140
    26  N   -0.202286
    27  C    0.010510
    28  C    0.014886
    29  C    0.077291
    30  C   -0.005366
    31  C    0.135679
    32  C    0.076783
    33  C    0.056901
    34  N   -0.208028
    35  C    0.119553
    36  C   -0.238392
    37  C    0.082685
    38  C    0.064027
    39  C    0.201102
    40  C   -0.089590
    41  O   -0.084185
    42  C    0.141034
    43  C    0.097463
    44  O   -0.177214
    45  O   -0.267020
    46  C    0.223666
    47  C    0.281517
    48  C   -0.101676
    49  C   -0.090187
    50  C    0.116682
    51  C    0.101193
    52  C    0.099508
    53  C    0.115223
    54  C   -0.130202
    55  C    0.132907
    56  C    0.104409
    57  C    0.035130
    58  C    0.100350
    59  C   -0.095034
    60  C    0.105751
    61  C    0.080606
    62  C    0.085788
    63  C    0.102288
    64  C   -0.110606
    65  C    0.069421
    66  C    0.116880
    67  H   -0.061222
    68  H   -0.051680
    69  H   -0.067951
    70  H   -0.010469
    71  H   -0.038797
    72  H   -0.021304
    73  H   -0.011567
    74  H   -0.008696
    75  H   -0.021527
    76  H   -0.021134
    77  H   -0.008900
    78  H    0.010179
    79  H   -0.003848
    80  H   -0.021742
    81  H    0.012350
    82  H    0.005039
    83  H   -0.004722
    84  H    0.011483
    85  H   -0.026398
    86  H   -0.034715
    87  H    0.010620
    88  H    0.002362
    89  H   -0.023810
    90  H   -0.017305
    91  H   -0.017316
    92  H   -0.012890
    93  H   -0.001264
    94  H   -0.012545
    95  H   -0.009564
    96  H    0.015140
    97  H    0.007268
    98  H   -0.006634
    99  H    0.024282
   100  H    0.006854
   101  H    0.016122
   102  H    0.009416
   103  H    0.021967
   104  H   -0.027891
   105  H   -0.002848
   106  H   -0.028780
   107  H   -0.001120
   108  H   -0.037190
   109  H   -0.035210
   110  H   -0.020017
   111  H   -0.020547
   112  H   -0.026662
   113  H   -0.040957
   114  H   -0.015884
   115  H   -0.025987
   116  H   -0.003924
   117  H   -0.014051
   118  H   -0.028563
   119  H   -0.035094
   120  H   -0.036314
   121  H   -0.039661
   122  H   -0.037812
   123  H   -0.032971
   124  H   -0.027650
   125  H   -0.008438
   126  H   -0.015620
   127  H   -0.002498
   128  H   -0.026950
   129  H   -0.036554
   130  H   -0.022315
   131  H   -0.013246
   132  H   -0.020424
   133  H   -0.042596
   134  H   -0.025180
   135  H   -0.027317
   136  H   -0.028538
   137  H   -0.013352
   138  H   -0.022856
   139  H   -0.015110
   140  H   -0.016391
 Sum of Mulliken charges =  -0.00000

 Dipole moment (field-independent basis, Debye):
    X=             -4.9412    Y=              1.0703    Z=              3.2015  Tot=              5.9842
 Quadrupole moment (field-independent basis, Debye-Ang):
   XX=           -387.9467   YY=           -424.5892   ZZ=           -407.7105
   XY=             29.7271   XZ=             16.7068   YZ=             -2.5227

 Normal termination of Gaussian 16 at Fri Apr 29 08:40:22 2022.
