 Gaussian 16, Revision A.03,
 Gaussian 16:  ES64L-G16RevA.03 25-Dec-2016

 -----------------------------------
 #p cam-b3lyp/Def2SVP td=(nstates=5)
 -----------------------------------

 -------------------------------------------------------
 step_201_chromophore_18 TDDFT with cam-b3lyp functional
 -------------------------------------------------------
 Symbolic Z-matrix:
 Charge =  0 Multiplicity = 1

                         Standard orientation:
 ---------------------------------------------------------------------
 Center     Atomic      Atomic             Coordinates (Angstroms)
 Number     Number       Type             X           Y           Z
 ---------------------------------------------------------------------
      1         12           0        5.293454    1.040246    0.021013
      2          6           0        5.034400   -2.373146   -0.137755
      3          6           0        2.012260    1.438103   -0.099302
      4          6           0        5.845643    4.377171   -0.207846
      5          6           0        8.887354    0.619041   -0.207039
      6          7           0        3.721158   -0.323299   -0.301280
      7          6           0        3.830555   -1.653701   -0.075031
      8          6           0        2.413474   -2.203799    0.215916
      9          6           0        1.465710   -1.032287   -0.177488
     10          6           0        2.459582    0.122148   -0.197202
     11          6           0        0.594171   -1.252583   -1.424078
     12          6           0        2.137289   -2.705424    1.695138
     13          6           0        0.814274   -3.342078    2.034680
     14          6           0       -0.105230   -3.771061    0.846880
     15          8           0        0.227226   -4.575082   -0.027286
     16          8           0       -1.290036   -3.048718    0.797185
     17          7           0        4.071841    2.687465    0.020385
     18          6           0        2.741167    2.618219    0.075496
     19          6           0        2.254775    3.985062    0.214977
     20          6           0        3.333084    4.858609    0.132149
     21          6           0        4.505091    4.002553   -0.035575
     22          6           0        0.728896    4.323192    0.211317
     23          6           0        3.376379    6.415528    0.151910
     24          8           0        4.392265    7.060306   -0.058817
     25          6           0        2.151859    7.165477    0.505961
     26          7           0        7.115930    2.322398   -0.327964
     27          6           0        7.015691    3.697274   -0.384463
     28          6           0        8.399515    4.276582   -0.447660
     29          6           0        9.347219    3.065773   -0.212369
     30          6           0        8.426516    1.930007   -0.225683
     31          6           0        8.639596    5.068340   -1.810022
     32          6           0       10.283490    3.243293    0.977989
     33          6           0        9.884292    2.679927    2.372725
     34          7           0        6.713432   -0.528519   -0.220685
     35          6           0        8.086874   -0.529976   -0.293405
     36          6           0        8.528824   -1.915242   -0.498822
     37          6           0        7.366497   -2.694188   -0.305189
     38          6           0        6.280272   -1.774350   -0.249155
     39          6           0        9.944875   -2.274003   -0.498771
     40          6           0        6.748146   -4.038867   -0.126241
     41          8           0        7.274783   -5.096907   -0.065873
     42          6           0        5.224895   -3.831511    0.009257
     43          6           0        4.576546   -4.630732   -1.074766
     44          8           0        4.743244   -4.367398   -2.249254
     45          8           0        3.843747   -5.684798   -0.590398
     46          6           0        3.414545   -6.685312   -1.523967
     47          6           0       -2.202159   -3.420924   -0.340445
     48          6           0       -3.583938   -2.678432   -0.254743
     49          6           0       -4.814500   -3.219616   -0.393296
     50          6           0       -5.118443   -4.720476   -0.628846
     51          6           0       -6.121635   -2.348901   -0.161946
     52          6           0       -6.883154   -2.455763    1.166705
     53          6           0       -6.942470   -1.153061    1.989181
     54          6           0       -8.427048   -0.863707    2.278717
     55          6           0       -8.518260   -0.266704    3.694649
     56          6           0       -8.878893    0.209246    1.130025
     57          6           0      -10.191806   -0.241663    0.575350
     58          6           0      -11.493731    0.069038    1.463912
     59          6           0      -12.518198    0.989848    0.694045
     60          6           0      -13.108122    2.122804    1.659195
     61          6           0      -13.652777    0.082954    0.029042
     62          6           0      -14.002022    0.585209   -1.451766
     63          6           0      -15.395674    1.170651   -1.528706
     64          6           0      -15.410483    2.496684   -2.380975
     65          6           0      -15.212110    3.716400   -1.367512
     66          6           0      -16.749658    2.750600   -3.139170
     67          1           0        0.957874    1.570915    0.149765
     68          1           0        5.993963    5.450756   -0.077943
     69          1           0        9.966085    0.506849   -0.081285
     70          1           0        2.253285   -3.083179   -0.408004
     71          1           0        0.623415   -0.959907    0.510745
     72          1           0        0.680364   -2.281511   -1.771629
     73          1           0        1.120914   -0.723024   -2.218328
     74          1           0       -0.490955   -1.254053   -1.319802
     75          1           0        2.380684   -1.813933    2.272680
     76          1           0        2.907156   -3.452063    1.885137
     77          1           0        0.249127   -2.531055    2.491519
     78          1           0        1.005235   -4.193517    2.688406
     79          1           0        0.430093    5.007920    1.004590
     80          1           0        0.201803    3.372424    0.301818
     81          1           0        0.412375    4.802123   -0.715038
     82          1           0        1.248990    6.894569   -0.041544
     83          1           0        2.449741    8.207635    0.390962
     84          1           0        1.939472    6.975192    1.558537
     85          1           0        8.423924    4.996671    0.370144
     86          1           0       10.036089    2.923256   -1.045401
     87          1           0        8.497749    6.148719   -1.833462
     88          1           0        8.121416    4.452383   -2.544407
     89          1           0        9.715035    4.934965   -1.931530
     90          1           0       10.375594    4.319410    1.120034
     91          1           0       11.223713    2.759368    0.713365
     92          1           0       10.508918    1.828099    2.642479
     93          1           0        8.860350    2.321860    2.474782
     94          1           0       10.005394    3.426074    3.157478
     95          1           0       10.441228   -1.378125   -0.126952
     96          1           0       10.108059   -2.608444   -1.523578
     97          1           0       10.043508   -3.126473    0.172854
     98          1           0        4.901799   -4.138310    1.004136
     99          1           0        2.984209   -6.106786   -2.341304
    100          1           0        2.666920   -7.347017   -1.085929
    101          1           0        4.259815   -7.351632   -1.690933
    102          1           0       -2.284319   -4.508201   -0.340327
    103          1           0       -1.865547   -2.980512   -1.279031
    104          1           0       -3.407243   -1.627188   -0.025797
    105          1           0       -5.660704   -5.209246    0.182240
    106          1           0       -4.242364   -5.364370   -0.693930
    107          1           0       -5.696147   -4.960747   -1.521189
    108          1           0       -6.786163   -2.564300   -0.998684
    109          1           0       -5.861109   -1.323630   -0.424296
    110          1           0       -6.415801   -3.192710    1.820482
    111          1           0       -7.890621   -2.794333    0.924179
    112          1           0       -6.461078   -0.350637    1.428967
    113          1           0       -6.399109   -1.217367    2.932037
    114          1           0       -9.059381   -1.747978    2.194516
    115          1           0       -9.039080   -1.075843    4.207468
    116          1           0       -9.129219    0.636130    3.691077
    117          1           0       -7.557709   -0.173047    4.200751
    118          1           0       -8.193997    0.288265    0.285121
    119          1           0       -9.003270    1.204641    1.557240
    120          1           0      -10.058764   -1.308228    0.390190
    121          1           0      -10.375831    0.234866   -0.387950
    122          1           0      -11.195011    0.495022    2.422531
    123          1           0      -11.929795   -0.909158    1.664488
    124          1           0      -11.935261    1.395637   -0.132964
    125          1           0      -14.133574    2.306708    1.338965
    126          1           0      -12.706829    3.111473    1.434223
    127          1           0      -13.003104    1.842295    2.707106
    128          1           0      -14.516217    0.116476    0.691548
    129          1           0      -13.302777   -0.949523   -0.005243
    130          1           0      -13.934198   -0.300664   -2.083824
    131          1           0      -13.283456    1.362734   -1.710500
    132          1           0      -15.984983    1.381279   -0.636593
    133          1           0      -15.959371    0.401483   -2.056458
    134          1           0      -14.605455    2.575802   -3.112310
    135          1           0      -14.700581    4.552529   -1.843573
    136          1           0      -14.628535    3.402595   -0.502057
    137          1           0      -16.080452    4.264126   -1.002805
    138          1           0      -17.206871    3.619181   -2.664802
    139          1           0      -17.443649    1.910859   -3.114981
    140          1           0      -16.514273    3.003596   -4.173871
 ---------------------------------------------------------------------

 SCF Done:  E(RCAM-B3LYP) =  -3007.15436152     A.U. after   18 cycles

 Excitation energies and oscillator strengths:

 Excited State   1:      Singlet-A      1.7368 eV  713.88 nm  f=0.3782  <S**2>=0.000
     245 -> 248       -0.18689
     246 -> 247        0.68428
     245 <- 248       -0.10986
 This state for optimization and/or second-order correction.
 Total Energy, E(TD-HF/TD-DFT) =  -3007.09053643
 Copying the excited state density for this state as the 1-particle RhoCI density.

 Excited State   2:      Singlet-A      2.2874 eV  542.04 nm  f=0.0777  <S**2>=0.000
     245 -> 247        0.62502
     246 -> 248        0.32124

 Excited State   3:      Singlet-A      3.4433 eV  360.07 nm  f=0.0259  <S**2>=0.000
     244 -> 247        0.65968
     246 -> 248       -0.18817

 Excited State   4:      Singlet-A      3.5506 eV  349.20 nm  f=0.6970  <S**2>=0.000
     243 -> 247       -0.22813
     244 -> 247        0.17522
     245 -> 247       -0.29004
     246 -> 248        0.56783
     245 <- 247        0.10551

 Excited State   5:      Singlet-A      3.6903 eV  335.98 nm  f=0.0155  <S**2>=0.000
     242 -> 247        0.54474
     242 -> 249       -0.22354
     242 -> 251       -0.20634
     243 -> 247        0.25878

 The electronic state is 1-A.
 Alpha  occ. eigenvalues --  -46.88238 -19.26240 -19.24059 -19.20700 -19.19266
 Alpha  occ. eigenvalues --  -19.19048 -19.18888 -14.41923 -14.40944 -14.38956
 Alpha  occ. eigenvalues --  -14.38516 -10.40603 -10.38708 -10.35397 -10.34714
 Alpha  occ. eigenvalues --  -10.33252 -10.30961 -10.30629 -10.30615 -10.29799
 Alpha  occ. eigenvalues --  -10.29648 -10.29446 -10.29286 -10.29124 -10.28910
 Alpha  occ. eigenvalues --  -10.28492 -10.27957 -10.27917 -10.27544 -10.27526
 Alpha  occ. eigenvalues --  -10.27452 -10.27429 -10.27367 -10.27065 -10.27041
 Alpha  occ. eigenvalues --  -10.27033 -10.27024 -10.26702 -10.26627 -10.26625
 Alpha  occ. eigenvalues --  -10.26428 -10.26404 -10.26392 -10.26345 -10.26288
 Alpha  occ. eigenvalues --  -10.26267 -10.25999 -10.25873 -10.25713 -10.25682
 Alpha  occ. eigenvalues --  -10.25527 -10.25193 -10.25176 -10.25165 -10.25156
 Alpha  occ. eigenvalues --  -10.25047 -10.25040 -10.25033 -10.24968 -10.24895
 Alpha  occ. eigenvalues --  -10.24744 -10.24716 -10.24697 -10.24520 -10.24477
 Alpha  occ. eigenvalues --  -10.24227  -3.16773  -1.91672  -1.91220  -1.91081
 Alpha  occ. eigenvalues --   -1.16059  -1.15877  -1.11880  -1.10538  -1.07717
 Alpha  occ. eigenvalues --   -1.07662  -1.04707  -1.03521  -1.03208  -1.02268
 Alpha  occ. eigenvalues --   -0.93013  -0.90362  -0.89739  -0.89173  -0.88957
 Alpha  occ. eigenvalues --   -0.88414  -0.87946  -0.87266  -0.87005  -0.86673
 Alpha  occ. eigenvalues --   -0.86384  -0.85469  -0.84231  -0.83302  -0.82995
 Alpha  occ. eigenvalues --   -0.82304  -0.81892  -0.81281  -0.80818  -0.80554
 Alpha  occ. eigenvalues --   -0.80060  -0.78166  -0.77923  -0.77334  -0.76141
 Alpha  occ. eigenvalues --   -0.76003  -0.75142  -0.74927  -0.74768  -0.74012
 Alpha  occ. eigenvalues --   -0.73505  -0.72437  -0.71597  -0.70436  -0.69855
 Alpha  occ. eigenvalues --   -0.67985  -0.67684  -0.66894  -0.66479  -0.65409
 Alpha  occ. eigenvalues --   -0.65197  -0.64652  -0.64469  -0.64380  -0.64312
 Alpha  occ. eigenvalues --   -0.63725  -0.63040  -0.62757  -0.61528  -0.61085
 Alpha  occ. eigenvalues --   -0.59818  -0.59699  -0.59049  -0.58538  -0.58227
 Alpha  occ. eigenvalues --   -0.57066  -0.56773  -0.56390  -0.55774  -0.55356
 Alpha  occ. eigenvalues --   -0.55280  -0.55070  -0.54893  -0.54521  -0.54106
 Alpha  occ. eigenvalues --   -0.53907  -0.53523  -0.53442  -0.53170  -0.52849
 Alpha  occ. eigenvalues --   -0.52637  -0.52490  -0.52364  -0.52276  -0.51858
 Alpha  occ. eigenvalues --   -0.51765  -0.51440  -0.51304  -0.51037  -0.50830
 Alpha  occ. eigenvalues --   -0.50245  -0.49967  -0.49808  -0.49549  -0.49543
 Alpha  occ. eigenvalues --   -0.49456  -0.49405  -0.49172  -0.49033  -0.48991
 Alpha  occ. eigenvalues --   -0.48595  -0.48307  -0.48096  -0.48036  -0.47905
 Alpha  occ. eigenvalues --   -0.47661  -0.47255  -0.46814  -0.46735  -0.46600
 Alpha  occ. eigenvalues --   -0.46494  -0.46373  -0.46172  -0.45876  -0.45674
 Alpha  occ. eigenvalues --   -0.45527  -0.45450  -0.45425  -0.45304  -0.45004
 Alpha  occ. eigenvalues --   -0.44683  -0.44480  -0.44302  -0.44142  -0.43852
 Alpha  occ. eigenvalues --   -0.43754  -0.43634  -0.43373  -0.43183  -0.43074
 Alpha  occ. eigenvalues --   -0.42764  -0.42351  -0.42249  -0.41965  -0.41914
 Alpha  occ. eigenvalues --   -0.41642  -0.41494  -0.41037  -0.40904  -0.40554
 Alpha  occ. eigenvalues --   -0.40463  -0.40334  -0.40191  -0.40068  -0.40000
 Alpha  occ. eigenvalues --   -0.39851  -0.39393  -0.39258  -0.38834  -0.38782
 Alpha  occ. eigenvalues --   -0.38712  -0.38512  -0.38336  -0.37653  -0.37379
 Alpha  occ. eigenvalues --   -0.37126  -0.36819  -0.36618  -0.36288  -0.35903
 Alpha  occ. eigenvalues --   -0.35836  -0.35635  -0.34776  -0.34296  -0.33881
 Alpha  occ. eigenvalues --   -0.33617  -0.33612  -0.32789  -0.31383  -0.31332
 Alpha  occ. eigenvalues --   -0.30965  -0.30694  -0.30103  -0.29267  -0.23780
 Alpha  occ. eigenvalues --   -0.20604
 Alpha virt. eigenvalues --   -0.07958  -0.01331   0.00978   0.02456   0.02886
 Alpha virt. eigenvalues --    0.03749   0.04718   0.05904   0.06111   0.07339
 Alpha virt. eigenvalues --    0.07847   0.08575   0.08696   0.08896   0.09394

 Mulliken charges:
               1
     1  Mg   0.805707
     2  C   -0.044769
     3  C   -0.058373
     4  C   -0.048436
     5  C   -0.087692
     6  N   -0.301800
     7  C   -0.011896
     8  C   -0.051906
     9  C   -0.089265
    10  C    0.084642
    11  C    0.079334
    12  C    0.040143
    13  C    0.122610
    14  C    0.150398
    15  O   -0.242899
    16  O   -0.354434
    17  N   -0.385143
    18  C    0.115106
    19  C   -0.147191
    20  C   -0.013454
    21  C    0.087037
    22  C    0.096128
    23  C    0.019173
    24  O   -0.195631
    25  C    0.043318
    26  N   -0.269448
    27  C    0.031225
    28  C   -0.045930
    29  C    0.015789
    30  C    0.015103
    31  C    0.080490
    32  C    0.022341
    33  C   -0.003710
    34  N   -0.299009
    35  C    0.122865
    36  C   -0.218522
    37  C    0.005258
    38  C    0.100592
    39  C    0.140456
    40  C    0.016322
    41  O   -0.121707
    42  C    0.058669
    43  C    0.186811
    44  O   -0.212950
    45  O   -0.330438
    46  C    0.181966
    47  C    0.250840
    48  C   -0.116651
    49  C   -0.118049
    50  C    0.057330
    51  C    0.048927
    52  C    0.042238
    53  C    0.060975
    54  C   -0.185002
    55  C    0.073799
    56  C    0.055704
    57  C   -0.013987
    58  C    0.048729
    59  C   -0.146151
    60  C    0.049278
    61  C    0.030081
    62  C    0.031039
    63  C    0.045087
    64  C   -0.170286
    65  C    0.017882
    66  C    0.058131
    67  H   -0.029058
    68  H   -0.011062
    69  H   -0.032626
    70  H    0.023465
    71  H   -0.003527
    72  H    0.005068
    73  H    0.017294
    74  H    0.012878
    75  H    0.008542
    76  H    0.005102
    77  H    0.025495
    78  H    0.043393
    79  H    0.020814
    80  H    0.004618
    81  H    0.037282
    82  H    0.032280
    83  H    0.030737
    84  H    0.038915
    85  H    0.008026
    86  H    0.003658
    87  H    0.035068
    88  H    0.026361
    89  H   -0.000688
    90  H    0.011570
    91  H    0.009853
    92  H    0.010200
    93  H    0.021330
    94  H    0.012172
    95  H    0.013608
    96  H    0.041952
    97  H    0.034335
    98  H    0.037754
    99  H    0.048768
   100  H    0.030416
   101  H    0.037894
   102  H    0.038037
   103  H    0.044188
   104  H    0.005124
   105  H    0.020911
   106  H   -0.003710
   107  H    0.023492
   108  H   -0.007154
   109  H   -0.006401
   110  H    0.008992
   111  H    0.005685
   112  H    0.000779
   113  H   -0.010290
   114  H    0.013206
   115  H   -0.001098
   116  H    0.016980
   117  H    0.010703
   118  H   -0.001635
   119  H   -0.007332
   120  H   -0.011143
   121  H   -0.011765
   122  H   -0.012058
   123  H   -0.004502
   124  H    0.001420
   125  H    0.009694
   126  H    0.008527
   127  H    0.021985
   128  H    0.000989
   129  H   -0.007090
   130  H    0.007267
   131  H    0.011828
   132  H    0.006803
   133  H   -0.011996
   134  H    0.006305
   135  H   -0.001791
   136  H   -0.011338
   137  H    0.010032
   138  H    0.000929
   139  H    0.009035
   140  H    0.007713
 Sum of Mulliken charges =  -0.00000

 Dipole moment (field-independent basis, Debye):
    X=             -5.1634    Y=              1.2520    Z=              3.4389  Tot=              6.3288
 Quadrupole moment (field-independent basis, Debye-Ang):
   XX=           -387.3610   YY=           -420.9867   ZZ=           -408.0455
   XY=             29.1278   XZ=             18.2720   YZ=             -2.2980

 Normal termination of Gaussian 16 at Fri Apr 29 07:41:06 2022.
