 Gaussian 16, Revision A.03,
 Gaussian 16:  ES64L-G16RevA.03 25-Dec-2016

 ---------------------------------
 #p PBE1PBE/Def2SVP td=(nstates=5)
 ---------------------------------

 -----------------------------------------------------
 step_201_chromophore_18 TDDFT with PBE1PBE functional
 -----------------------------------------------------
 Symbolic Z-matrix:
 Charge =  0 Multiplicity = 1

                         Standard orientation:
 ---------------------------------------------------------------------
 Center     Atomic      Atomic             Coordinates (Angstroms)
 Number     Number       Type             X           Y           Z
 ---------------------------------------------------------------------
      1         12           0        5.293454    1.040246    0.021013
      2          6           0        5.034400   -2.373146   -0.137755
      3          6           0        2.012260    1.438103   -0.099302
      4          6           0        5.845643    4.377171   -0.207846
      5          6           0        8.887354    0.619041   -0.207039
      6          7           0        3.721158   -0.323299   -0.301280
      7          6           0        3.830555   -1.653701   -0.075031
      8          6           0        2.413474   -2.203799    0.215916
      9          6           0        1.465710   -1.032287   -0.177488
     10          6           0        2.459582    0.122148   -0.197202
     11          6           0        0.594171   -1.252583   -1.424078
     12          6           0        2.137289   -2.705424    1.695138
     13          6           0        0.814274   -3.342078    2.034680
     14          6           0       -0.105230   -3.771061    0.846880
     15          8           0        0.227226   -4.575082   -0.027286
     16          8           0       -1.290036   -3.048718    0.797185
     17          7           0        4.071841    2.687465    0.020385
     18          6           0        2.741167    2.618219    0.075496
     19          6           0        2.254775    3.985062    0.214977
     20          6           0        3.333084    4.858609    0.132149
     21          6           0        4.505091    4.002553   -0.035575
     22          6           0        0.728896    4.323192    0.211317
     23          6           0        3.376379    6.415528    0.151910
     24          8           0        4.392265    7.060306   -0.058817
     25          6           0        2.151859    7.165477    0.505961
     26          7           0        7.115930    2.322398   -0.327964
     27          6           0        7.015691    3.697274   -0.384463
     28          6           0        8.399515    4.276582   -0.447660
     29          6           0        9.347219    3.065773   -0.212369
     30          6           0        8.426516    1.930007   -0.225683
     31          6           0        8.639596    5.068340   -1.810022
     32          6           0       10.283490    3.243293    0.977989
     33          6           0        9.884292    2.679927    2.372725
     34          7           0        6.713432   -0.528519   -0.220685
     35          6           0        8.086874   -0.529976   -0.293405
     36          6           0        8.528824   -1.915242   -0.498822
     37          6           0        7.366497   -2.694188   -0.305189
     38          6           0        6.280272   -1.774350   -0.249155
     39          6           0        9.944875   -2.274003   -0.498771
     40          6           0        6.748146   -4.038867   -0.126241
     41          8           0        7.274783   -5.096907   -0.065873
     42          6           0        5.224895   -3.831511    0.009257
     43          6           0        4.576546   -4.630732   -1.074766
     44          8           0        4.743244   -4.367398   -2.249254
     45          8           0        3.843747   -5.684798   -0.590398
     46          6           0        3.414545   -6.685312   -1.523967
     47          6           0       -2.202159   -3.420924   -0.340445
     48          6           0       -3.583938   -2.678432   -0.254743
     49          6           0       -4.814500   -3.219616   -0.393296
     50          6           0       -5.118443   -4.720476   -0.628846
     51          6           0       -6.121635   -2.348901   -0.161946
     52          6           0       -6.883154   -2.455763    1.166705
     53          6           0       -6.942470   -1.153061    1.989181
     54          6           0       -8.427048   -0.863707    2.278717
     55          6           0       -8.518260   -0.266704    3.694649
     56          6           0       -8.878893    0.209246    1.130025
     57          6           0      -10.191806   -0.241663    0.575350
     58          6           0      -11.493731    0.069038    1.463912
     59          6           0      -12.518198    0.989848    0.694045
     60          6           0      -13.108122    2.122804    1.659195
     61          6           0      -13.652777    0.082954    0.029042
     62          6           0      -14.002022    0.585209   -1.451766
     63          6           0      -15.395674    1.170651   -1.528706
     64          6           0      -15.410483    2.496684   -2.380975
     65          6           0      -15.212110    3.716400   -1.367512
     66          6           0      -16.749658    2.750600   -3.139170
     67          1           0        0.957874    1.570915    0.149765
     68          1           0        5.993963    5.450756   -0.077943
     69          1           0        9.966085    0.506849   -0.081285
     70          1           0        2.253285   -3.083179   -0.408004
     71          1           0        0.623415   -0.959907    0.510745
     72          1           0        0.680364   -2.281511   -1.771629
     73          1           0        1.120914   -0.723024   -2.218328
     74          1           0       -0.490955   -1.254053   -1.319802
     75          1           0        2.380684   -1.813933    2.272680
     76          1           0        2.907156   -3.452063    1.885137
     77          1           0        0.249127   -2.531055    2.491519
     78          1           0        1.005235   -4.193517    2.688406
     79          1           0        0.430093    5.007920    1.004590
     80          1           0        0.201803    3.372424    0.301818
     81          1           0        0.412375    4.802123   -0.715038
     82          1           0        1.248990    6.894569   -0.041544
     83          1           0        2.449741    8.207635    0.390962
     84          1           0        1.939472    6.975192    1.558537
     85          1           0        8.423924    4.996671    0.370144
     86          1           0       10.036089    2.923256   -1.045401
     87          1           0        8.497749    6.148719   -1.833462
     88          1           0        8.121416    4.452383   -2.544407
     89          1           0        9.715035    4.934965   -1.931530
     90          1           0       10.375594    4.319410    1.120034
     91          1           0       11.223713    2.759368    0.713365
     92          1           0       10.508918    1.828099    2.642479
     93          1           0        8.860350    2.321860    2.474782
     94          1           0       10.005394    3.426074    3.157478
     95          1           0       10.441228   -1.378125   -0.126952
     96          1           0       10.108059   -2.608444   -1.523578
     97          1           0       10.043508   -3.126473    0.172854
     98          1           0        4.901799   -4.138310    1.004136
     99          1           0        2.984209   -6.106786   -2.341304
    100          1           0        2.666920   -7.347017   -1.085929
    101          1           0        4.259815   -7.351632   -1.690933
    102          1           0       -2.284319   -4.508201   -0.340327
    103          1           0       -1.865547   -2.980512   -1.279031
    104          1           0       -3.407243   -1.627188   -0.025797
    105          1           0       -5.660704   -5.209246    0.182240
    106          1           0       -4.242364   -5.364370   -0.693930
    107          1           0       -5.696147   -4.960747   -1.521189
    108          1           0       -6.786163   -2.564300   -0.998684
    109          1           0       -5.861109   -1.323630   -0.424296
    110          1           0       -6.415801   -3.192710    1.820482
    111          1           0       -7.890621   -2.794333    0.924179
    112          1           0       -6.461078   -0.350637    1.428967
    113          1           0       -6.399109   -1.217367    2.932037
    114          1           0       -9.059381   -1.747978    2.194516
    115          1           0       -9.039080   -1.075843    4.207468
    116          1           0       -9.129219    0.636130    3.691077
    117          1           0       -7.557709   -0.173047    4.200751
    118          1           0       -8.193997    0.288265    0.285121
    119          1           0       -9.003270    1.204641    1.557240
    120          1           0      -10.058764   -1.308228    0.390190
    121          1           0      -10.375831    0.234866   -0.387950
    122          1           0      -11.195011    0.495022    2.422531
    123          1           0      -11.929795   -0.909158    1.664488
    124          1           0      -11.935261    1.395637   -0.132964
    125          1           0      -14.133574    2.306708    1.338965
    126          1           0      -12.706829    3.111473    1.434223
    127          1           0      -13.003104    1.842295    2.707106
    128          1           0      -14.516217    0.116476    0.691548
    129          1           0      -13.302777   -0.949523   -0.005243
    130          1           0      -13.934198   -0.300664   -2.083824
    131          1           0      -13.283456    1.362734   -1.710500
    132          1           0      -15.984983    1.381279   -0.636593
    133          1           0      -15.959371    0.401483   -2.056458
    134          1           0      -14.605455    2.575802   -3.112310
    135          1           0      -14.700581    4.552529   -1.843573
    136          1           0      -14.628535    3.402595   -0.502057
    137          1           0      -16.080452    4.264126   -1.002805
    138          1           0      -17.206871    3.619181   -2.664802
    139          1           0      -17.443649    1.910859   -3.114981
    140          1           0      -16.514273    3.003596   -4.173871
 ---------------------------------------------------------------------

 SCF Done:  E(RPBE1PBE) =  -3005.34121553     A.U. after   15 cycles

 Excitation energies and oscillator strengths:

 Excited State   1:      Singlet-A      1.8934 eV  654.81 nm  f=0.3695  <S**2>=0.000
     245 -> 248       -0.17870
     246 -> 247        0.69127
     246 <- 247       -0.10368
 This state for optimization and/or second-order correction.
 Total Energy, E(TD-HF/TD-DFT) =  -3005.27163286
 Copying the excited state density for this state as the 1-particle RhoCI density.

 Excited State   2:      Singlet-A      2.2976 eV  539.63 nm  f=0.0801  <S**2>=0.000
     245 -> 247        0.63827
     246 -> 248        0.29344

 Excited State   3:      Singlet-A      3.0765 eV  403.01 nm  f=0.0006  <S**2>=0.000
     242 -> 247       -0.12214
     243 -> 247        0.19132
     244 -> 247        0.65503

 Excited State   4:      Singlet-A      3.2181 eV  385.28 nm  f=0.0002  <S**2>=0.000
     242 -> 247       -0.14806
     243 -> 247        0.63187
     244 -> 247       -0.22998

 Excited State   5:      Singlet-A      3.3282 eV  372.52 nm  f=0.1905  <S**2>=0.000
     240 -> 247        0.11864
     241 -> 247        0.11208
     242 -> 247       -0.43108
     243 -> 247       -0.12615
     245 -> 247       -0.16401
     246 -> 248        0.45664
     246 -> 249        0.11671

 The electronic state is 1-A.
 Alpha  occ. eigenvalues --  -46.91604 -19.26944 -19.24695 -19.20988 -19.19489
 Alpha  occ. eigenvalues --  -19.19243 -19.19010 -14.41446 -14.40436 -14.38605
 Alpha  occ. eigenvalues --  -14.38124 -10.37693 -10.35700 -10.32540 -10.31811
 Alpha  occ. eigenvalues --  -10.30697 -10.28649 -10.28343 -10.27822 -10.27492
 Alpha  occ. eigenvalues --  -10.27399 -10.27198 -10.26965 -10.26831 -10.26626
 Alpha  occ. eigenvalues --  -10.25984 -10.25703 -10.25515 -10.25188 -10.25145
 Alpha  occ. eigenvalues --  -10.25108 -10.25060 -10.24998 -10.24889 -10.24875
 Alpha  occ. eigenvalues --  -10.24834 -10.24483 -10.24442 -10.24421 -10.24067
 Alpha  occ. eigenvalues --  -10.24056 -10.24054 -10.24037 -10.23995 -10.23980
 Alpha  occ. eigenvalues --  -10.23929 -10.23780 -10.23257 -10.23245 -10.23164
 Alpha  occ. eigenvalues --  -10.22913 -10.22798 -10.22710 -10.22663 -10.22651
 Alpha  occ. eigenvalues --  -10.22647 -10.22605 -10.22566 -10.22507 -10.22460
 Alpha  occ. eigenvalues --  -10.22441 -10.22287 -10.22257 -10.21949 -10.21911
 Alpha  occ. eigenvalues --  -10.21621  -3.13721  -1.86561  -1.86087  -1.85951
 Alpha  occ. eigenvalues --   -1.10861  -1.10627  -1.06594  -1.05277  -1.02590
 Alpha  occ. eigenvalues --   -1.02462  -0.99317  -0.98168  -0.97886  -0.96903
 Alpha  occ. eigenvalues --   -0.87348  -0.84478  -0.83927  -0.83494  -0.83071
 Alpha  occ. eigenvalues --   -0.82524  -0.82293  -0.81608  -0.81297  -0.80793
 Alpha  occ. eigenvalues --   -0.80643  -0.79728  -0.78414  -0.77633  -0.77268
 Alpha  occ. eigenvalues --   -0.76489  -0.76073  -0.75546  -0.75053  -0.74876
 Alpha  occ. eigenvalues --   -0.74246  -0.72474  -0.72196  -0.71638  -0.70446
 Alpha  occ. eigenvalues --   -0.70196  -0.69302  -0.69234  -0.68881  -0.68231
 Alpha  occ. eigenvalues --   -0.67777  -0.66878  -0.66037  -0.64786  -0.64206
 Alpha  occ. eigenvalues --   -0.62424  -0.61966  -0.61333  -0.60749  -0.59871
 Alpha  occ. eigenvalues --   -0.59415  -0.59164  -0.58975  -0.58920  -0.58479
 Alpha  occ. eigenvalues --   -0.57869  -0.57570  -0.56963  -0.56092  -0.55454
 Alpha  occ. eigenvalues --   -0.54375  -0.54187  -0.53648  -0.52979  -0.52778
 Alpha  occ. eigenvalues --   -0.51642  -0.51221  -0.50839  -0.50335  -0.49853
 Alpha  occ. eigenvalues --   -0.49794  -0.49601  -0.49394  -0.49057  -0.48616
 Alpha  occ. eigenvalues --   -0.48339  -0.48141  -0.47993  -0.47694  -0.47387
 Alpha  occ. eigenvalues --   -0.47188  -0.47068  -0.46859  -0.46768  -0.46365
 Alpha  occ. eigenvalues --   -0.46221  -0.46018  -0.45862  -0.45545  -0.45349
 Alpha  occ. eigenvalues --   -0.44781  -0.44497  -0.44388  -0.44123  -0.44092
 Alpha  occ. eigenvalues --   -0.44048  -0.43965  -0.43771  -0.43629  -0.43578
 Alpha  occ. eigenvalues --   -0.43240  -0.42976  -0.42759  -0.42737  -0.42586
 Alpha  occ. eigenvalues --   -0.42254  -0.41930  -0.41476  -0.41361  -0.41308
 Alpha  occ. eigenvalues --   -0.41135  -0.41104  -0.40902  -0.40577  -0.40313
 Alpha  occ. eigenvalues --   -0.40254  -0.40209  -0.40080  -0.39938  -0.39726
 Alpha  occ. eigenvalues --   -0.39423  -0.39219  -0.38919  -0.38867  -0.38654
 Alpha  occ. eigenvalues --   -0.38506  -0.38381  -0.38068  -0.37960  -0.37885
 Alpha  occ. eigenvalues --   -0.37611  -0.37171  -0.37088  -0.36782  -0.36766
 Alpha  occ. eigenvalues --   -0.36379  -0.36266  -0.35858  -0.35787  -0.35371
 Alpha  occ. eigenvalues --   -0.35227  -0.35214  -0.34994  -0.34946  -0.34808
 Alpha  occ. eigenvalues --   -0.34636  -0.34289  -0.34105  -0.33753  -0.33620
 Alpha  occ. eigenvalues --   -0.33453  -0.33329  -0.33281  -0.32638  -0.32256
 Alpha  occ. eigenvalues --   -0.32118  -0.31718  -0.31658  -0.31170  -0.30848
 Alpha  occ. eigenvalues --   -0.30782  -0.30655  -0.29754  -0.29188  -0.28878
 Alpha  occ. eigenvalues --   -0.28686  -0.28613  -0.28196  -0.26682  -0.26552
 Alpha  occ. eigenvalues --   -0.26159  -0.25742  -0.25550  -0.24805  -0.20691
 Alpha  occ. eigenvalues --   -0.18265
 Alpha virt. eigenvalues --   -0.10477  -0.04802  -0.03268  -0.01554  -0.01005
 Alpha virt. eigenvalues --   -0.00192   0.00152   0.01415   0.01626   0.03602
 Alpha virt. eigenvalues --    0.04405   0.04801   0.05055   0.05377   0.05699

 Mulliken charges:
               1
     1  Mg   0.950600
     2  C   -0.052218
     3  C   -0.046065
     4  C   -0.046829
     5  C   -0.077490
     6  N   -0.413188
     7  C    0.075015
     8  C   -0.133116
     9  C   -0.159343
    10  C    0.113350
    11  C    0.021296
    12  C   -0.008026
    13  C    0.042107
    14  C    0.213782
    15  O   -0.273599
    16  O   -0.383306
    17  N   -0.505167
    18  C    0.145226
    19  C   -0.176437
    20  C   -0.066509
    21  C    0.125003
    22  C    0.037365
    23  C    0.071943
    24  O   -0.233525
    25  C   -0.029653
    26  N   -0.373236
    27  C    0.073587
    28  C   -0.130075
    29  C   -0.057777
    30  C    0.056693
    31  C    0.020918
    32  C   -0.040694
    33  C   -0.073593
    34  N   -0.429944
    35  C    0.144723
    36  C   -0.229138
    37  C   -0.044060
    38  C    0.150963
    39  C    0.074739
    40  C    0.126817
    41  O   -0.170792
    42  C   -0.067729
    43  C    0.281637
    44  O   -0.246784
    45  O   -0.366034
    46  C    0.128661
    47  C    0.207399
    48  C   -0.130075
    49  C   -0.162920
    50  C   -0.001676
    51  C   -0.008781
    52  C   -0.019995
    53  C    0.007777
    54  C   -0.271693
    55  C    0.014795
    56  C    0.005819
    57  C   -0.083665
    58  C   -0.000982
    59  C   -0.229189
    60  C   -0.013885
    61  C   -0.020766
    62  C   -0.034659
    63  C   -0.010647
    64  C   -0.262115
    65  C   -0.048481
    66  C   -0.000479
    67  H    0.003181
    68  H    0.021862
    69  H   -0.001582
    70  H    0.066293
    71  H    0.034351
    72  H    0.032789
    73  H    0.046582
    74  H    0.041968
    75  H    0.042604
    76  H    0.041558
    77  H    0.057508
    78  H    0.074757
    79  H    0.048394
    80  H    0.033863
    81  H    0.064915
    82  H    0.058328
    83  H    0.058153
    84  H    0.066457
    85  H    0.045533
    86  H    0.041319
    87  H    0.061659
    88  H    0.055155
    89  H    0.028784
    90  H    0.044339
    91  H    0.041202
    92  H    0.037655
    93  H    0.050680
    94  H    0.039999
    95  H    0.042139
    96  H    0.070395
    97  H    0.062794
    98  H    0.075721
    99  H    0.068963
   100  H    0.052138
   101  H    0.059985
   102  H    0.063757
   103  H    0.071240
   104  H    0.033946
   105  H    0.047699
   106  H    0.023875
   107  H    0.050481
   108  H    0.025751
   109  H    0.024432
   110  H    0.042373
   111  H    0.037236
   112  H    0.032246
   113  H    0.022574
   114  H    0.047808
   115  H    0.027668
   116  H    0.042673
   117  H    0.037332
   118  H    0.030841
   119  H    0.025949
   120  H    0.023333
   121  H    0.021037
   122  H    0.022278
   123  H    0.027670
   124  H    0.038498
   125  H    0.036417
   126  H    0.036148
   127  H    0.048937
   128  H    0.033229
   129  H    0.025479
   130  H    0.039883
   131  H    0.043676
   132  H    0.037237
   133  H    0.022170
   134  H    0.042364
   135  H    0.026913
   136  H    0.024753
   137  H    0.036348
   138  H    0.028347
   139  H    0.035670
   140  H    0.035410
 Sum of Mulliken charges =  -0.00000

 Dipole moment (field-independent basis, Debye):
    X=             -5.2049    Y=              1.3496    Z=              3.4701  Tot=              6.3995
 Quadrupole moment (field-independent basis, Debye-Ang):
   XX=           -381.8491   YY=           -417.7319   ZZ=           -405.7443
   XY=             30.5840   XZ=             18.3409   YZ=             -2.3078

 Normal termination of Gaussian 16 at Fri Apr 29 08:01:38 2022.
