 Gaussian 16, Revision A.03,
 Gaussian 16:  ES64L-G16RevA.03 25-Dec-2016

 --------------------------------
 #p wB97XD/Def2SVP td=(nstates=5)
 --------------------------------

 ----------------------------------------------------
 step_201_chromophore_18 TDDFT with wB97XD functional
 ----------------------------------------------------
 Symbolic Z-matrix:
 Charge =  0 Multiplicity = 1

                         Standard orientation:
 ---------------------------------------------------------------------
 Center     Atomic      Atomic             Coordinates (Angstroms)
 Number     Number       Type             X           Y           Z
 ---------------------------------------------------------------------
      1         12           0        5.293454    1.040246    0.021013
      2          6           0        5.034400   -2.373146   -0.137755
      3          6           0        2.012260    1.438103   -0.099302
      4          6           0        5.845643    4.377171   -0.207846
      5          6           0        8.887354    0.619041   -0.207039
      6          7           0        3.721158   -0.323299   -0.301280
      7          6           0        3.830555   -1.653701   -0.075031
      8          6           0        2.413474   -2.203799    0.215916
      9          6           0        1.465710   -1.032287   -0.177488
     10          6           0        2.459582    0.122148   -0.197202
     11          6           0        0.594171   -1.252583   -1.424078
     12          6           0        2.137289   -2.705424    1.695138
     13          6           0        0.814274   -3.342078    2.034680
     14          6           0       -0.105230   -3.771061    0.846880
     15          8           0        0.227226   -4.575082   -0.027286
     16          8           0       -1.290036   -3.048718    0.797185
     17          7           0        4.071841    2.687465    0.020385
     18          6           0        2.741167    2.618219    0.075496
     19          6           0        2.254775    3.985062    0.214977
     20          6           0        3.333084    4.858609    0.132149
     21          6           0        4.505091    4.002553   -0.035575
     22          6           0        0.728896    4.323192    0.211317
     23          6           0        3.376379    6.415528    0.151910
     24          8           0        4.392265    7.060306   -0.058817
     25          6           0        2.151859    7.165477    0.505961
     26          7           0        7.115930    2.322398   -0.327964
     27          6           0        7.015691    3.697274   -0.384463
     28          6           0        8.399515    4.276582   -0.447660
     29          6           0        9.347219    3.065773   -0.212369
     30          6           0        8.426516    1.930007   -0.225683
     31          6           0        8.639596    5.068340   -1.810022
     32          6           0       10.283490    3.243293    0.977989
     33          6           0        9.884292    2.679927    2.372725
     34          7           0        6.713432   -0.528519   -0.220685
     35          6           0        8.086874   -0.529976   -0.293405
     36          6           0        8.528824   -1.915242   -0.498822
     37          6           0        7.366497   -2.694188   -0.305189
     38          6           0        6.280272   -1.774350   -0.249155
     39          6           0        9.944875   -2.274003   -0.498771
     40          6           0        6.748146   -4.038867   -0.126241
     41          8           0        7.274783   -5.096907   -0.065873
     42          6           0        5.224895   -3.831511    0.009257
     43          6           0        4.576546   -4.630732   -1.074766
     44          8           0        4.743244   -4.367398   -2.249254
     45          8           0        3.843747   -5.684798   -0.590398
     46          6           0        3.414545   -6.685312   -1.523967
     47          6           0       -2.202159   -3.420924   -0.340445
     48          6           0       -3.583938   -2.678432   -0.254743
     49          6           0       -4.814500   -3.219616   -0.393296
     50          6           0       -5.118443   -4.720476   -0.628846
     51          6           0       -6.121635   -2.348901   -0.161946
     52          6           0       -6.883154   -2.455763    1.166705
     53          6           0       -6.942470   -1.153061    1.989181
     54          6           0       -8.427048   -0.863707    2.278717
     55          6           0       -8.518260   -0.266704    3.694649
     56          6           0       -8.878893    0.209246    1.130025
     57          6           0      -10.191806   -0.241663    0.575350
     58          6           0      -11.493731    0.069038    1.463912
     59          6           0      -12.518198    0.989848    0.694045
     60          6           0      -13.108122    2.122804    1.659195
     61          6           0      -13.652777    0.082954    0.029042
     62          6           0      -14.002022    0.585209   -1.451766
     63          6           0      -15.395674    1.170651   -1.528706
     64          6           0      -15.410483    2.496684   -2.380975
     65          6           0      -15.212110    3.716400   -1.367512
     66          6           0      -16.749658    2.750600   -3.139170
     67          1           0        0.957874    1.570915    0.149765
     68          1           0        5.993963    5.450756   -0.077943
     69          1           0        9.966085    0.506849   -0.081285
     70          1           0        2.253285   -3.083179   -0.408004
     71          1           0        0.623415   -0.959907    0.510745
     72          1           0        0.680364   -2.281511   -1.771629
     73          1           0        1.120914   -0.723024   -2.218328
     74          1           0       -0.490955   -1.254053   -1.319802
     75          1           0        2.380684   -1.813933    2.272680
     76          1           0        2.907156   -3.452063    1.885137
     77          1           0        0.249127   -2.531055    2.491519
     78          1           0        1.005235   -4.193517    2.688406
     79          1           0        0.430093    5.007920    1.004590
     80          1           0        0.201803    3.372424    0.301818
     81          1           0        0.412375    4.802123   -0.715038
     82          1           0        1.248990    6.894569   -0.041544
     83          1           0        2.449741    8.207635    0.390962
     84          1           0        1.939472    6.975192    1.558537
     85          1           0        8.423924    4.996671    0.370144
     86          1           0       10.036089    2.923256   -1.045401
     87          1           0        8.497749    6.148719   -1.833462
     88          1           0        8.121416    4.452383   -2.544407
     89          1           0        9.715035    4.934965   -1.931530
     90          1           0       10.375594    4.319410    1.120034
     91          1           0       11.223713    2.759368    0.713365
     92          1           0       10.508918    1.828099    2.642479
     93          1           0        8.860350    2.321860    2.474782
     94          1           0       10.005394    3.426074    3.157478
     95          1           0       10.441228   -1.378125   -0.126952
     96          1           0       10.108059   -2.608444   -1.523578
     97          1           0       10.043508   -3.126473    0.172854
     98          1           0        4.901799   -4.138310    1.004136
     99          1           0        2.984209   -6.106786   -2.341304
    100          1           0        2.666920   -7.347017   -1.085929
    101          1           0        4.259815   -7.351632   -1.690933
    102          1           0       -2.284319   -4.508201   -0.340327
    103          1           0       -1.865547   -2.980512   -1.279031
    104          1           0       -3.407243   -1.627188   -0.025797
    105          1           0       -5.660704   -5.209246    0.182240
    106          1           0       -4.242364   -5.364370   -0.693930
    107          1           0       -5.696147   -4.960747   -1.521189
    108          1           0       -6.786163   -2.564300   -0.998684
    109          1           0       -5.861109   -1.323630   -0.424296
    110          1           0       -6.415801   -3.192710    1.820482
    111          1           0       -7.890621   -2.794333    0.924179
    112          1           0       -6.461078   -0.350637    1.428967
    113          1           0       -6.399109   -1.217367    2.932037
    114          1           0       -9.059381   -1.747978    2.194516
    115          1           0       -9.039080   -1.075843    4.207468
    116          1           0       -9.129219    0.636130    3.691077
    117          1           0       -7.557709   -0.173047    4.200751
    118          1           0       -8.193997    0.288265    0.285121
    119          1           0       -9.003270    1.204641    1.557240
    120          1           0      -10.058764   -1.308228    0.390190
    121          1           0      -10.375831    0.234866   -0.387950
    122          1           0      -11.195011    0.495022    2.422531
    123          1           0      -11.929795   -0.909158    1.664488
    124          1           0      -11.935261    1.395637   -0.132964
    125          1           0      -14.133574    2.306708    1.338965
    126          1           0      -12.706829    3.111473    1.434223
    127          1           0      -13.003104    1.842295    2.707106
    128          1           0      -14.516217    0.116476    0.691548
    129          1           0      -13.302777   -0.949523   -0.005243
    130          1           0      -13.934198   -0.300664   -2.083824
    131          1           0      -13.283456    1.362734   -1.710500
    132          1           0      -15.984983    1.381279   -0.636593
    133          1           0      -15.959371    0.401483   -2.056458
    134          1           0      -14.605455    2.575802   -3.112310
    135          1           0      -14.700581    4.552529   -1.843573
    136          1           0      -14.628535    3.402595   -0.502057
    137          1           0      -16.080452    4.264126   -1.002805
    138          1           0      -17.206871    3.619181   -2.664802
    139          1           0      -17.443649    1.910859   -3.114981
    140          1           0      -16.514273    3.003596   -4.173871
 ---------------------------------------------------------------------

 SCF Done:  E(RwB97XD) =  -3007.85388980     A.U. after   19 cycles

 Excitation energies and oscillator strengths:

 Excited State   1:      Singlet-A      1.6783 eV  738.77 nm  f=0.3756  <S**2>=0.000
     245 -> 248       -0.19259
     246 -> 247        0.68212
     245 <- 248       -0.11928
 This state for optimization and/or second-order correction.
 Total Energy, E(TD-HF/TD-DFT) =  -3007.79221505
 Copying the excited state density for this state as the 1-particle RhoCI density.

 Excited State   2:      Singlet-A      2.2307 eV  555.81 nm  f=0.0758  <S**2>=0.000
     245 -> 247        0.62362
     246 -> 248        0.32287

 Excited State   3:      Singlet-A      3.4576 eV  358.59 nm  f=0.0557  <S**2>=0.000
     244 -> 247        0.63685
     246 -> 248       -0.24068

 Excited State   4:      Singlet-A      3.5659 eV  347.70 nm  f=0.6850  <S**2>=0.000
     243 -> 247       -0.23487
     244 -> 247        0.22995
     245 -> 247       -0.28534
     246 -> 248        0.54699
     245 <- 247        0.10733

 Excited State   5:      Singlet-A      3.7122 eV  333.99 nm  f=0.0135  <S**2>=0.000
     242 -> 247        0.52733
     242 -> 249       -0.24487
     242 -> 250       -0.20630
     243 -> 247        0.27465

 The electronic state is 1-A.
 Alpha  occ. eigenvalues --  -46.94587 -19.31475 -19.29295 -19.25636 -19.24267
 Alpha  occ. eigenvalues --  -19.23998 -19.23945 -14.46499 -14.45556 -14.43538
 Alpha  occ. eigenvalues --  -14.43108 -10.44442 -10.42572 -10.39343 -10.38740
 Alpha  occ. eigenvalues --  -10.37200 -10.35013 -10.34627 -10.34339 -10.33800
 Alpha  occ. eigenvalues --  -10.33670 -10.33444 -10.33326 -10.33115 -10.32965
 Alpha  occ. eigenvalues --  -10.32400 -10.32081 -10.31921 -10.31680 -10.31586
 Alpha  occ. eigenvalues --  -10.31445 -10.31420 -10.31393 -10.31152 -10.31111
 Alpha  occ. eigenvalues --  -10.31067 -10.30957 -10.30770 -10.30654 -10.30488
 Alpha  occ. eigenvalues --  -10.30453 -10.30428 -10.30366 -10.30311 -10.30307
 Alpha  occ. eigenvalues --  -10.30242 -10.30012 -10.29726 -10.29619 -10.29572
 Alpha  occ. eigenvalues --  -10.29406 -10.29194 -10.29077 -10.29052 -10.29014
 Alpha  occ. eigenvalues --  -10.28998 -10.28993 -10.28902 -10.28895 -10.28838
 Alpha  occ. eigenvalues --  -10.28833 -10.28638 -10.28622 -10.28368 -10.28321
 Alpha  occ. eigenvalues --  -10.28039  -3.20553  -1.94143  -1.93672  -1.93534
 Alpha  occ. eigenvalues --   -1.18224  -1.18058  -1.14143  -1.12730  -1.09916
 Alpha  occ. eigenvalues --   -1.09866  -1.06708  -1.05557  -1.05224  -1.04286
 Alpha  occ. eigenvalues --   -0.95010  -0.92147  -0.91573  -0.91069  -0.90752
 Alpha  occ. eigenvalues --   -0.90199  -0.89862  -0.89189  -0.88958  -0.88461
 Alpha  occ. eigenvalues --   -0.88305  -0.87349  -0.86071  -0.85257  -0.84884
 Alpha  occ. eigenvalues --   -0.84146  -0.83794  -0.83199  -0.82696  -0.82499
 Alpha  occ. eigenvalues --   -0.81911  -0.80114  -0.79828  -0.79254  -0.78081
 Alpha  occ. eigenvalues --   -0.77866  -0.76950  -0.76858  -0.76574  -0.75879
 Alpha  occ. eigenvalues --   -0.75404  -0.74422  -0.73562  -0.72377  -0.71769
 Alpha  occ. eigenvalues --   -0.69985  -0.69585  -0.68876  -0.68369  -0.67360
 Alpha  occ. eigenvalues --   -0.67056  -0.66635  -0.66437  -0.66360  -0.66151
 Alpha  occ. eigenvalues --   -0.65541  -0.65025  -0.64600  -0.63535  -0.62991
 Alpha  occ. eigenvalues --   -0.61814  -0.61647  -0.61048  -0.60484  -0.60231
 Alpha  occ. eigenvalues --   -0.59066  -0.58686  -0.58296  -0.57738  -0.57269
 Alpha  occ. eigenvalues --   -0.57229  -0.57002  -0.56808  -0.56462  -0.56013
 Alpha  occ. eigenvalues --   -0.55787  -0.55446  -0.55360  -0.55073  -0.54768
 Alpha  occ. eigenvalues --   -0.54573  -0.54390  -0.54275  -0.54154  -0.53732
 Alpha  occ. eigenvalues --   -0.53687  -0.53342  -0.53224  -0.52971  -0.52708
 Alpha  occ. eigenvalues --   -0.52138  -0.51895  -0.51749  -0.51468  -0.51420
 Alpha  occ. eigenvalues --   -0.51359  -0.51306  -0.51106  -0.50957  -0.50908
 Alpha  occ. eigenvalues --   -0.50505  -0.50237  -0.50001  -0.49976  -0.49815
 Alpha  occ. eigenvalues --   -0.49528  -0.49202  -0.48780  -0.48617  -0.48540
 Alpha  occ. eigenvalues --   -0.48364  -0.48312  -0.48098  -0.47791  -0.47542
 Alpha  occ. eigenvalues --   -0.47428  -0.47366  -0.47334  -0.47227  -0.46918
 Alpha  occ. eigenvalues --   -0.46589  -0.46394  -0.46147  -0.46055  -0.45760
 Alpha  occ. eigenvalues --   -0.45668  -0.45560  -0.45244  -0.45119  -0.44996
 Alpha  occ. eigenvalues --   -0.44698  -0.44240  -0.44155  -0.43982  -0.43820
 Alpha  occ. eigenvalues --   -0.43505  -0.43371  -0.42896  -0.42852  -0.42448
 Alpha  occ. eigenvalues --   -0.42315  -0.42248  -0.42044  -0.41994  -0.41945
 Alpha  occ. eigenvalues --   -0.41702  -0.41342  -0.41135  -0.40720  -0.40664
 Alpha  occ. eigenvalues --   -0.40547  -0.40370  -0.40256  -0.39646  -0.39240
 Alpha  occ. eigenvalues --   -0.39073  -0.38688  -0.38639  -0.38139  -0.37892
 Alpha  occ. eigenvalues --   -0.37699  -0.37639  -0.36644  -0.36228  -0.35860
 Alpha  occ. eigenvalues --   -0.35620  -0.35468  -0.34998  -0.33394  -0.33295
 Alpha  occ. eigenvalues --   -0.33133  -0.32716  -0.32274  -0.31456  -0.25706
 Alpha  occ. eigenvalues --   -0.22413
 Alpha virt. eigenvalues --   -0.06303   0.00566   0.03052   0.04962   0.05472
 Alpha virt. eigenvalues --    0.06063   0.06855   0.08166   0.08367   0.10236
 Alpha virt. eigenvalues --    0.10697   0.11572   0.11815   0.12118   0.12432

 Mulliken charges:
               1
     1  Mg   0.942043
     2  C   -0.057492
     3  C   -0.063883
     4  C   -0.060338
     5  C   -0.096489
     6  N   -0.376658
     7  C    0.035093
     8  C   -0.094697
     9  C   -0.133361
    10  C    0.101100
    11  C    0.032553
    12  C    0.003360
    13  C    0.059723
    14  C    0.199197
    15  O   -0.270118
    16  O   -0.381192
    17  N   -0.471133
    18  C    0.134176
    19  C   -0.167560
    20  C   -0.058788
    21  C    0.112650
    22  C    0.050524
    23  C    0.068801
    24  O   -0.228161
    25  C   -0.019829
    26  N   -0.337392
    27  C    0.057246
    28  C   -0.101720
    29  C   -0.034708
    30  C    0.042428
    31  C    0.032507
    32  C   -0.027017
    33  C   -0.057429
    34  N   -0.389657
    35  C    0.137840
    36  C   -0.224008
    37  C   -0.040327
    38  C    0.134477
    39  C    0.089310
    40  C    0.104391
    41  O   -0.161087
    42  C   -0.021739
    43  C    0.256179
    44  O   -0.241717
    45  O   -0.363279
    46  C    0.143076
    47  C    0.222880
    48  C   -0.136092
    49  C   -0.151451
    50  C    0.010859
    51  C    0.010405
    52  C   -0.006131
    53  C    0.024290
    54  C   -0.240095
    55  C    0.026927
    56  C    0.017153
    57  C   -0.057080
    58  C    0.012037
    59  C   -0.197347
    60  C    0.002155
    61  C   -0.008487
    62  C   -0.014494
    63  C    0.002145
    64  C   -0.233491
    65  C   -0.027315
    66  C    0.011220
    67  H   -0.004899
    68  H    0.016349
    69  H   -0.007888
    70  H    0.047748
    71  H    0.020473
    72  H    0.025144
    73  H    0.041666
    74  H    0.033362
    75  H    0.033968
    76  H    0.029699
    77  H    0.051597
    78  H    0.071192
    79  H    0.042418
    80  H    0.028691
    81  H    0.059529
    82  H    0.053349
    83  H    0.056776
    84  H    0.061449
    85  H    0.034701
    86  H    0.031035
    87  H    0.057957
    88  H    0.048578
    89  H    0.020469
    90  H    0.036194
    91  H    0.034723
    92  H    0.031801
    93  H    0.041437
    94  H    0.035238
    95  H    0.035707
    96  H    0.065823
    97  H    0.058537
    98  H    0.069039
    99  H    0.065385
   100  H    0.048921
   101  H    0.056010
   102  H    0.057772
   103  H    0.063739
   104  H    0.031899
   105  H    0.042046
   106  H    0.017563
   107  H    0.045595
   108  H    0.018167
   109  H    0.015004
   110  H    0.034338
   111  H    0.027846
   112  H    0.021276
   113  H    0.014261
   114  H    0.033294
   115  H    0.021780
   116  H    0.035770
   117  H    0.031844
   118  H    0.021577
   119  H    0.016220
   120  H    0.011212
   121  H    0.011499
   122  H    0.008581
   123  H    0.018727
   124  H    0.021669
   125  H    0.025495
   126  H    0.031154
   127  H    0.044688
   128  H    0.023628
   129  H    0.017103
   130  H    0.034104
   131  H    0.030893
   132  H    0.028221
   133  H    0.013773
   134  H    0.032605
   135  H    0.021149
   136  H    0.007031
   137  H    0.029917
   138  H    0.021054
   139  H    0.030222
   140  H    0.030125
 Sum of Mulliken charges =  -0.00000

 Dipole moment (field-independent basis, Debye):
    X=             -5.2062    Y=              1.2835    Z=              3.5211  Tot=              6.4148
 Quadrupole moment (field-independent basis, Debye-Ang):
   XX=           -381.8720   YY=           -416.5738   ZZ=           -405.3185
   XY=             29.1724   XZ=             18.7235   YZ=             -2.2061

 Normal termination of Gaussian 16 at Fri Apr 29 08:28:37 2022.
