 Gaussian 16, Revision A.03,
 Gaussian 16:  ES64L-G16RevA.03 25-Dec-2016

 --------------------
 #p ZINDO=(nstates=5)
 --------------------

 -----------------------------
 step_201_chromophore_18 ZINDO
 -----------------------------
 Symbolic Z-matrix:
 Charge =  0 Multiplicity = 1

                         Standard orientation:
 ---------------------------------------------------------------------
 Center     Atomic      Atomic             Coordinates (Angstroms)
 Number     Number       Type             X           Y           Z
 ---------------------------------------------------------------------
      1         12           0        5.293454    1.040246    0.021013
      2          6           0        5.034400   -2.373146   -0.137755
      3          6           0        2.012260    1.438103   -0.099302
      4          6           0        5.845643    4.377171   -0.207846
      5          6           0        8.887354    0.619041   -0.207039
      6          7           0        3.721158   -0.323299   -0.301280
      7          6           0        3.830555   -1.653701   -0.075031
      8          6           0        2.413474   -2.203799    0.215916
      9          6           0        1.465710   -1.032287   -0.177488
     10          6           0        2.459582    0.122148   -0.197202
     11          6           0        0.594171   -1.252583   -1.424078
     12          6           0        2.137289   -2.705424    1.695138
     13          6           0        0.814274   -3.342078    2.034680
     14          6           0       -0.105230   -3.771061    0.846880
     15          8           0        0.227226   -4.575082   -0.027286
     16          8           0       -1.290036   -3.048718    0.797185
     17          7           0        4.071841    2.687465    0.020385
     18          6           0        2.741167    2.618219    0.075496
     19          6           0        2.254775    3.985062    0.214977
     20          6           0        3.333084    4.858609    0.132149
     21          6           0        4.505091    4.002553   -0.035575
     22          6           0        0.728896    4.323192    0.211317
     23          6           0        3.376379    6.415528    0.151910
     24          8           0        4.392265    7.060306   -0.058817
     25          6           0        2.151859    7.165477    0.505961
     26          7           0        7.115930    2.322398   -0.327964
     27          6           0        7.015691    3.697274   -0.384463
     28          6           0        8.399515    4.276582   -0.447660
     29          6           0        9.347219    3.065773   -0.212369
     30          6           0        8.426516    1.930007   -0.225683
     31          6           0        8.639596    5.068340   -1.810022
     32          6           0       10.283490    3.243293    0.977989
     33          6           0        9.884292    2.679927    2.372725
     34          7           0        6.713432   -0.528519   -0.220685
     35          6           0        8.086874   -0.529976   -0.293405
     36          6           0        8.528824   -1.915242   -0.498822
     37          6           0        7.366497   -2.694188   -0.305189
     38          6           0        6.280272   -1.774350   -0.249155
     39          6           0        9.944875   -2.274003   -0.498771
     40          6           0        6.748146   -4.038867   -0.126241
     41          8           0        7.274783   -5.096907   -0.065873
     42          6           0        5.224895   -3.831511    0.009257
     43          6           0        4.576546   -4.630732   -1.074766
     44          8           0        4.743244   -4.367398   -2.249254
     45          8           0        3.843747   -5.684798   -0.590398
     46          6           0        3.414545   -6.685312   -1.523967
     47          6           0       -2.202159   -3.420924   -0.340445
     48          6           0       -3.583938   -2.678432   -0.254743
     49          6           0       -4.814500   -3.219616   -0.393296
     50          6           0       -5.118443   -4.720476   -0.628846
     51          6           0       -6.121635   -2.348901   -0.161946
     52          6           0       -6.883154   -2.455763    1.166705
     53          6           0       -6.942470   -1.153061    1.989181
     54          6           0       -8.427048   -0.863707    2.278717
     55          6           0       -8.518260   -0.266704    3.694649
     56          6           0       -8.878893    0.209246    1.130025
     57          6           0      -10.191806   -0.241663    0.575350
     58          6           0      -11.493731    0.069038    1.463912
     59          6           0      -12.518198    0.989848    0.694045
     60          6           0      -13.108122    2.122804    1.659195
     61          6           0      -13.652777    0.082954    0.029042
     62          6           0      -14.002022    0.585209   -1.451766
     63          6           0      -15.395674    1.170651   -1.528706
     64          6           0      -15.410483    2.496684   -2.380975
     65          6           0      -15.212110    3.716400   -1.367512
     66          6           0      -16.749658    2.750600   -3.139170
     67          1           0        0.957874    1.570915    0.149765
     68          1           0        5.993963    5.450756   -0.077943
     69          1           0        9.966085    0.506849   -0.081285
     70          1           0        2.253285   -3.083179   -0.408004
     71          1           0        0.623415   -0.959907    0.510745
     72          1           0        0.680364   -2.281511   -1.771629
     73          1           0        1.120914   -0.723024   -2.218328
     74          1           0       -0.490955   -1.254053   -1.319802
     75          1           0        2.380684   -1.813933    2.272680
     76          1           0        2.907156   -3.452063    1.885137
     77          1           0        0.249127   -2.531055    2.491519
     78          1           0        1.005235   -4.193517    2.688406
     79          1           0        0.430093    5.007920    1.004590
     80          1           0        0.201803    3.372424    0.301818
     81          1           0        0.412375    4.802123   -0.715038
     82          1           0        1.248990    6.894569   -0.041544
     83          1           0        2.449741    8.207635    0.390962
     84          1           0        1.939472    6.975192    1.558537
     85          1           0        8.423924    4.996671    0.370144
     86          1           0       10.036089    2.923256   -1.045401
     87          1           0        8.497749    6.148719   -1.833462
     88          1           0        8.121416    4.452383   -2.544407
     89          1           0        9.715035    4.934965   -1.931530
     90          1           0       10.375594    4.319410    1.120034
     91          1           0       11.223713    2.759368    0.713365
     92          1           0       10.508918    1.828099    2.642479
     93          1           0        8.860350    2.321860    2.474782
     94          1           0       10.005394    3.426074    3.157478
     95          1           0       10.441228   -1.378125   -0.126952
     96          1           0       10.108059   -2.608444   -1.523578
     97          1           0       10.043508   -3.126473    0.172854
     98          1           0        4.901799   -4.138310    1.004136
     99          1           0        2.984209   -6.106786   -2.341304
    100          1           0        2.666920   -7.347017   -1.085929
    101          1           0        4.259815   -7.351632   -1.690933
    102          1           0       -2.284319   -4.508201   -0.340327
    103          1           0       -1.865547   -2.980512   -1.279031
    104          1           0       -3.407243   -1.627188   -0.025797
    105          1           0       -5.660704   -5.209246    0.182240
    106          1           0       -4.242364   -5.364370   -0.693930
    107          1           0       -5.696147   -4.960747   -1.521189
    108          1           0       -6.786163   -2.564300   -0.998684
    109          1           0       -5.861109   -1.323630   -0.424296
    110          1           0       -6.415801   -3.192710    1.820482
    111          1           0       -7.890621   -2.794333    0.924179
    112          1           0       -6.461078   -0.350637    1.428967
    113          1           0       -6.399109   -1.217367    2.932037
    114          1           0       -9.059381   -1.747978    2.194516
    115          1           0       -9.039080   -1.075843    4.207468
    116          1           0       -9.129219    0.636130    3.691077
    117          1           0       -7.557709   -0.173047    4.200751
    118          1           0       -8.193997    0.288265    0.285121
    119          1           0       -9.003270    1.204641    1.557240
    120          1           0      -10.058764   -1.308228    0.390190
    121          1           0      -10.375831    0.234866   -0.387950
    122          1           0      -11.195011    0.495022    2.422531
    123          1           0      -11.929795   -0.909158    1.664488
    124          1           0      -11.935261    1.395637   -0.132964
    125          1           0      -14.133574    2.306708    1.338965
    126          1           0      -12.706829    3.111473    1.434223
    127          1           0      -13.003104    1.842295    2.707106
    128          1           0      -14.516217    0.116476    0.691548
    129          1           0      -13.302777   -0.949523   -0.005243
    130          1           0      -13.934198   -0.300664   -2.083824
    131          1           0      -13.283456    1.362734   -1.710500
    132          1           0      -15.984983    1.381279   -0.636593
    133          1           0      -15.959371    0.401483   -2.056458
    134          1           0      -14.605455    2.575802   -3.112310
    135          1           0      -14.700581    4.552529   -1.843573
    136          1           0      -14.628535    3.402595   -0.502057
    137          1           0      -16.080452    4.264126   -1.002805
    138          1           0      -17.206871    3.619181   -2.664802
    139          1           0      -17.443649    1.910859   -3.114981
    140          1           0      -16.514273    3.003596   -4.173871
 ---------------------------------------------------------------------

 SCF Done:  E(RZINDO/S) =  -474.354516131     A.U. after   19 cycles

 Excitation energies and oscillator strengths:

 Excited State   1:      Singlet-A      1.2582 eV  985.39 nm  f=0.6034  <S**2>=0.000
     175 ->178         0.19836
     176 ->177         0.66172
 This state for optimization and/or second-order correction.
 Total Energy, E(CIS/TDA) =  -474.308277158
 Copying the excited state density for this state as the 1-particle RhoCI density.

 Excited State   2:      Singlet-A      1.9322 eV  641.66 nm  f=0.0177  <S**2>=0.000
     175 ->177         0.52810
     176 ->178        -0.44812

 Excited State   3:      Singlet-A      3.0017 eV  413.05 nm  f=0.5332  <S**2>=0.000
     169 ->177         0.12835
     173 ->177        -0.15699
     175 ->177         0.27906
     176 ->178         0.37567
     176 ->179         0.36269

 Excited State   4:      Singlet-A      3.0592 eV  405.28 nm  f=0.3709  <S**2>=0.000
     167 ->179         0.11507
     168 ->177         0.20619
     168 ->181         0.24100
     168 ->187        -0.11325
     169 ->177         0.12527
     169 ->179        -0.29462
     169 ->186        -0.17261
     170 ->177        -0.11314
     170 ->181        -0.11271
     175 ->177        -0.22098
     176 ->178        -0.25672
     176 ->179         0.12650

 Excited State   5:      Singlet-A      3.0688 eV  404.02 nm  f=0.0628  <S**2>=0.000
     167 ->181         0.10343
     168 ->179         0.33690
     168 ->181         0.20325
     168 ->186         0.20381
     169 ->177        -0.22959
     169 ->181        -0.27524
     169 ->187         0.11906
     170 ->179        -0.11256
     176 ->178         0.11435
     176 ->179         0.15660

 The electronic state is 1-A.
 Alpha  occ. eigenvalues --   -1.85744  -1.82165  -1.81452  -1.73818  -1.72763
 Alpha  occ. eigenvalues --   -1.69822  -1.64943  -1.61285  -1.59894  -1.59491
 Alpha  occ. eigenvalues --   -1.52400  -1.50637  -1.50160  -1.46888  -1.46206
 Alpha  occ. eigenvalues --   -1.44561  -1.42811  -1.39330  -1.38029  -1.37430
 Alpha  occ. eigenvalues --   -1.36809  -1.35597  -1.33373  -1.31275  -1.28600
 Alpha  occ. eigenvalues --   -1.28259  -1.24753  -1.21702  -1.20518  -1.18669
 Alpha  occ. eigenvalues --   -1.17814  -1.15502  -1.14590  -1.13766  -1.13464
 Alpha  occ. eigenvalues --   -1.12832  -1.10523  -1.09795  -1.04763  -1.03961
 Alpha  occ. eigenvalues --   -1.03064  -1.00754  -0.98653  -0.97579  -0.97040
 Alpha  occ. eigenvalues --   -0.95516  -0.95098  -0.93662  -0.92785  -0.92279
 Alpha  occ. eigenvalues --   -0.91560  -0.90265  -0.89027  -0.87643  -0.86683
 Alpha  occ. eigenvalues --   -0.84646  -0.83444  -0.82801  -0.82232  -0.80611
 Alpha  occ. eigenvalues --   -0.79629  -0.78724  -0.76800  -0.76414  -0.75876
 Alpha  occ. eigenvalues --   -0.75509  -0.74981  -0.74220  -0.73439  -0.73074
 Alpha  occ. eigenvalues --   -0.72542  -0.71991  -0.71879  -0.71427  -0.71009
 Alpha  occ. eigenvalues --   -0.70662  -0.69306  -0.69071  -0.68929  -0.67921
 Alpha  occ. eigenvalues --   -0.67723  -0.67038  -0.66851  -0.66181  -0.65766
 Alpha  occ. eigenvalues --   -0.65035  -0.64569  -0.64401  -0.64347  -0.64036
 Alpha  occ. eigenvalues --   -0.63636  -0.63313  -0.62856  -0.62540  -0.61839
 Alpha  occ. eigenvalues --   -0.61083  -0.60916  -0.60753  -0.60307  -0.60175
 Alpha  occ. eigenvalues --   -0.59242  -0.59154  -0.58975  -0.58402  -0.58072
 Alpha  occ. eigenvalues --   -0.57697  -0.57548  -0.57089  -0.56848  -0.56563
 Alpha  occ. eigenvalues --   -0.56414  -0.55210  -0.55154  -0.54911  -0.54584
 Alpha  occ. eigenvalues --   -0.54260  -0.53966  -0.53302  -0.53065  -0.52603
 Alpha  occ. eigenvalues --   -0.52304  -0.52096  -0.51911  -0.51468  -0.51091
 Alpha  occ. eigenvalues --   -0.50828  -0.50694  -0.50572  -0.50065  -0.49759
 Alpha  occ. eigenvalues --   -0.49274  -0.49079  -0.48969  -0.48793  -0.48556
 Alpha  occ. eigenvalues --   -0.48340  -0.48154  -0.47658  -0.47635  -0.47389
 Alpha  occ. eigenvalues --   -0.47296  -0.47189  -0.47020  -0.46717  -0.46341
 Alpha  occ. eigenvalues --   -0.46242  -0.45980  -0.45697  -0.45415  -0.45265
 Alpha  occ. eigenvalues --   -0.44903  -0.44675  -0.44378  -0.44343  -0.44183
 Alpha  occ. eigenvalues --   -0.43739  -0.43444  -0.42717  -0.42476  -0.41743
 Alpha  occ. eigenvalues --   -0.41660  -0.41205  -0.41065  -0.39252  -0.38507
 Alpha  occ. eigenvalues --   -0.37849  -0.36359  -0.35140  -0.34785  -0.34432
 Alpha  occ. eigenvalues --   -0.33449  -0.33065  -0.32405  -0.32198  -0.26300
 Alpha  occ. eigenvalues --   -0.21105
 Alpha virt. eigenvalues --   -0.07804  -0.01618   0.00176   0.01103   0.01761
 Alpha virt. eigenvalues --    0.02557   0.03345   0.03371   0.03993   0.05424
 Alpha virt. eigenvalues --    0.06713   0.07587   0.07934   0.08152   0.08244

 Mulliken charges:
               1
     1  Mg   0.419666
     2  C   -0.039442
     3  C   -0.085119
     4  C   -0.055940
     5  C   -0.076219
     6  N   -0.264410
     7  C    0.122464
     8  C   -0.002279
     9  C   -0.003619
    10  C    0.134976
    11  C   -0.065180
    12  C   -0.018727
    13  C    0.015376
    14  C    0.463331
    15  O   -0.516006
    16  O   -0.273947
    17  N   -0.313333
    18  C    0.108043
    19  C   -0.012682
    20  C   -0.043475
    21  C    0.116492
    22  C   -0.053178
    23  C    0.332454
    24  O   -0.518701
    25  C   -0.031471
    26  N   -0.296908
    27  C    0.128989
    28  C    0.003649
    29  C    0.014664
    30  C    0.144470
    31  C   -0.059080
    32  C   -0.024492
    33  C   -0.058326
    34  N   -0.323401
    35  C    0.100233
    36  C    0.035571
    37  C   -0.066060
    38  C    0.125303
    39  C   -0.045031
    40  C    0.347657
    41  O   -0.499110
    42  C    0.064546
    43  C    0.495222
    44  O   -0.520844
    45  O   -0.273065
    46  C    0.076431
    47  C    0.093826
    48  C   -0.078858
    49  C   -0.008988
    50  C   -0.045989
    51  C   -0.027262
    52  C   -0.026248
    53  C   -0.033914
    54  C   -0.019972
    55  C   -0.064336
    56  C   -0.038530
    57  C   -0.043320
    58  C   -0.044320
    59  C   -0.024194
    60  C   -0.064476
    61  C   -0.046098
    62  C   -0.034438
    63  C   -0.029593
    64  C   -0.018600
    65  C   -0.069444
    66  C   -0.062712
    67  H    0.020750
    68  H    0.035128
    69  H    0.029108
    70  H    0.039180
    71  H    0.022469
    72  H    0.014688
    73  H    0.029856
    74  H    0.037700
    75  H    0.024790
    76  H    0.015965
    77  H    0.030461
    78  H    0.051786
    79  H    0.025415
    80  H    0.021803
    81  H    0.028829
    82  H    0.039392
    83  H    0.038200
    84  H    0.037040
    85  H    0.028690
    86  H    0.026632
    87  H    0.040609
    88  H    0.033371
    89  H    0.008211
    90  H    0.022811
    91  H    0.019675
    92  H    0.015666
    93  H    0.023374
    94  H    0.016448
    95  H    0.036988
    96  H    0.047240
    97  H    0.035102
    98  H    0.051007
    99  H    0.056340
   100  H    0.029679
   101  H    0.045474
   102  H    0.058828
   103  H    0.054467
   104  H    0.035546
   105  H    0.024778
   106  H    0.016830
   107  H    0.028297
   108  H    0.014265
   109  H    0.016369
   110  H    0.019347
   111  H    0.023998
   112  H    0.022555
   113  H    0.016137
   114  H    0.036213
   115  H    0.010484
   116  H    0.025575
   117  H    0.027366
   118  H    0.019506
   119  H    0.019480
   120  H    0.015538
   121  H    0.010648
   122  H    0.021448
   123  H    0.016988
   124  H    0.028216
   125  H    0.017682
   126  H    0.019087
   127  H    0.032495
   128  H    0.022855
   129  H    0.018050
   130  H    0.024319
   131  H    0.028188
   132  H    0.031389
   133  H    0.006846
   134  H    0.027872
   135  H    0.008446
   136  H    0.016113
   137  H    0.022999
   138  H    0.020573
   139  H    0.021944
   140  H    0.016360
 Sum of Mulliken charges =  -0.00000

 Dipole moment (field-independent basis, Debye):
    X=             -5.7394    Y=              1.4141    Z=              5.9501  Tot=              8.3871
 N-N= 4.274774351781D+03 E-N= 0.000000000000D+00  KE=-9.224363093734D+03
 Leave Link  601 at Fri Apr 29 08:40:30 2022, MaxMem=  6710886400 cpu:               1.0 elap:               0.1
 (Enter /sw/apps/gaussian-16.0/g16/l9999.exe)
 1\1\GINC-BP1-COMPUTE070\SP\RZINDO CIS\STO-3G\C55H74Mg1N4O6\OF15641\29-
 Apr-2022\0\\#p ZINDO=(nstates=5)\\step_201_chromophore_18 ZINDO\\0,1\M
 g,0,34.644,49.362,25.939\C,0,34.444,47.295,28.665\C,0,33.396,51.927,27
 .613\C,0,34.582,51.066,23.009\C,0,35.673,46.465,24.017\N,0,33.815,49.5
 14,27.869\C,0,34.08,48.636,28.865\C,0,33.871,49.369,30.212\C,0,33.162,
 50.697,29.813\C,0,33.473,50.73,28.322\C,0,31.694,50.84,30.245\C,0,35.1
 7,49.64,31.081\C,0,35.04,50.263,32.447\C,0,33.613,50.321,33.08\O,0,32.

 Normal termination of Gaussian 16 at Fri Apr 29 08:40:30 2022.
