 Gaussian 16, Revision A.03,
 Gaussian 16:  ES64L-G16RevA.03 25-Dec-2016

 ------------------------------
 #p blyp/Def2SVP td=(nstates=5)
 ------------------------------

 ---------------------------------------------------
 step_1051_chromophore_15 TDDFT with blyp functional
 ---------------------------------------------------
 Symbolic Z-matrix:
 Charge =  0 Multiplicity = 1

                         Standard orientation:
 ---------------------------------------------------------------------
 Center     Atomic      Atomic             Coordinates (Angstroms)
 Number     Number       Type             X           Y           Z
 ---------------------------------------------------------------------
      1         12           0       -4.902823    0.977693   -0.040921
      2          6           0       -3.971793   -2.343964    0.365870
      3          6           0       -1.459402    1.787166   -0.074499
      4          6           0       -5.816024    4.181276    0.102744
      5          6           0       -8.230805    0.020039    0.491823
      6          7           0       -2.948752   -0.200635   -0.077020
      7          6           0       -2.893692   -1.525375    0.153311
      8          6           0       -1.427201   -1.984336   -0.101175
      9          6           0       -0.670822   -0.648564    0.267809
     10          6           0       -1.758571    0.396647   -0.079771
     11          6           0       -0.263323   -0.671080    1.767295
     12          6           0       -1.289858   -2.563060   -1.562817
     13          6           0       -0.507315   -3.850356   -1.750910
     14          6           0        0.590711   -4.118153   -0.751059
     15          8           0        0.585398   -4.920561    0.177844
     16          8           0        1.639104   -3.282544   -1.038141
     17          7           0       -3.759215    2.749560   -0.091158
     18          6           0       -2.372991    2.870941   -0.107985
     19          6           0       -2.081695    4.312784   -0.201576
     20          6           0       -3.334769    4.961169   -0.213481
     21          6           0       -4.377398    3.949047   -0.043752
     22          6           0       -0.689783    4.928013   -0.281131
     23          6           0       -3.617246    6.474886   -0.406513
     24          8           0       -4.789583    6.943228   -0.393941
     25          6           0       -2.595655    7.377810   -1.048452
     26          7           0       -6.825387    1.989707    0.300510
     27          6           0       -6.896345    3.301000    0.362322
     28          6           0       -8.303809    3.750092    0.668918
     29          6           0       -9.169514    2.406621    0.525151
     30          6           0       -8.016842    1.375251    0.419124
     31          6           0       -8.436391    4.378740    2.119654
     32          6           0       -9.915402    2.317780   -0.786946
     33          6           0      -11.348874    1.895825   -0.602025
     34          7           0       -5.889099   -0.750268    0.314565
     35          6           0       -7.237153   -0.994060    0.577176
     36          6           0       -7.477382   -2.355729    0.900165
     37          6           0       -6.187339   -2.920343    0.851384
     38          6           0       -5.295478   -1.942478    0.354026
     39          6           0       -8.841162   -2.928812    1.182644
     40          6           0       -5.463118   -4.094245    1.009205
     41          8           0       -5.849909   -5.168594    1.433550
     42          6           0       -3.959898   -3.859142    0.758595
     43          6           0       -3.501353   -4.817231   -0.219927
     44          8           0       -3.605820   -4.732598   -1.419123
     45          8           0       -2.902713   -5.869360    0.421723
     46          6           0       -2.333851   -6.888441   -0.362932
     47          6           0        2.708536   -3.197978   -0.119878
     48          6           0        3.961421   -3.293547   -0.911326
     49          6           0        5.244490   -3.445685   -0.455398
     50          6           0        5.523293   -3.600257    1.028546
     51          6           0        6.514361   -3.316922   -1.301184
     52          6           0        7.125464   -1.921892   -1.337610
     53          6           0        6.938596   -1.200908   -2.668312
     54          6           0        7.187499    0.348155   -2.597587
     55          6           0        6.150027    1.050563   -3.470187
     56          6           0        8.613783    0.851939   -3.017800
     57          6           0        9.332127    1.799307   -1.977128
     58          6           0       10.871641    1.448569   -1.660483
     59          6           0       11.465663    2.458297   -0.697440
     60          6           0       11.838798    3.632503   -1.600049
     61          6           0       12.667116    1.830024    0.000826
     62          6           0       12.704902    2.175133    1.476115
     63          6           0       12.767666    0.968383    2.375101
     64          6           0       12.532545    1.272678    3.913485
     65          6           0       13.580796    0.656001    4.819953
     66          6           0       11.219654    0.676849    4.336967
     67          1           0       -0.393365    2.021607   -0.092606
     68          1           0       -6.050658    5.218468    0.351294
     69          1           0       -9.294026   -0.223795    0.555546
     70          1           0       -1.271857   -2.738318    0.670424
     71          1           0        0.193451   -0.535653   -0.386372
     72          1           0       -0.886382   -1.407120    2.275712
     73          1           0       -0.378731    0.298439    2.250688
     74          1           0        0.812783   -0.846206    1.752556
     75          1           0       -0.750384   -1.788859   -2.107803
     76          1           0       -2.262054   -2.719168   -2.029548
     77          1           0       -0.043861   -3.662888   -2.718970
     78          1           0       -1.134995   -4.739472   -1.681083
     79          1           0       -0.403591    5.203614   -1.296783
     80          1           0        0.054750    4.174837   -0.025107
     81          1           0       -0.661591    5.781023    0.396386
     82          1           0       -1.995491    7.886603   -0.293591
     83          1           0       -3.071186    8.221949   -1.548755
     84          1           0       -2.047857    6.878064   -1.847962
     85          1           0       -8.575795    4.576164    0.011085
     86          1           0       -9.805957    2.077695    1.347439
     87          1           0       -7.428093    4.330409    2.530683
     88          1           0       -8.937622    3.563292    2.642256
     89          1           0       -8.906969    5.360950    2.088612
     90          1           0       -9.465699    1.526262   -1.387522
     91          1           0       -9.867330    3.264236   -1.325777
     92          1           0      -11.577217    0.836536   -0.481075
     93          1           0      -12.009526    2.132624   -1.436296
     94          1           0      -11.798501    2.424568    0.237929
     95          1           0       -9.471216   -2.955423    0.293648
     96          1           0       -9.273244   -2.449747    2.061422
     97          1           0       -8.816130   -3.970222    1.502282
     98          1           0       -3.294440   -3.977971    1.613813
     99          1           0       -1.340980   -6.754079    0.067376
    100          1           0       -2.396885   -6.747478   -1.441416
    101          1           0       -2.801233   -7.850872   -0.156115
    102          1           0        2.821614   -3.996970    0.612815
    103          1           0        2.547832   -2.232683    0.359982
    104          1           0        3.778513   -3.292610   -1.986362
    105          1           0        6.569224   -3.458392    1.298869
    106          1           0        5.242308   -4.619789    1.293473
    107          1           0        4.901321   -2.935187    1.627750
    108          1           0        6.105564   -3.494819   -2.295210
    109          1           0        7.258546   -4.067821   -1.033511
    110          1           0        8.189773   -1.924432   -1.100831
    111          1           0        6.623258   -1.420355   -0.510818
    112          1           0        5.931724   -1.416534   -3.027436
    113          1           0        7.626353   -1.601828   -3.413168
    114          1           0        6.952570    0.618637   -1.567665
    115          1           0        5.139058    0.906139   -3.090138
    116          1           0        6.233550    0.635161   -4.474325
    117          1           0        6.258270    2.135326   -3.484586
    118          1           0        8.469018    1.376355   -3.963111
    119          1           0        9.227076   -0.048091   -3.042943
    120          1           0        8.725794    1.875711   -1.074969
    121          1           0        9.245077    2.714905   -2.561608
    122          1           0       11.508876    1.416410   -2.543843
    123          1           0       10.942246    0.444652   -1.241652
    124          1           0       10.681321    2.810678   -0.026504
    125          1           0       12.861162    3.610074   -1.977957
    126          1           0       11.832054    4.584816   -1.070042
    127          1           0       11.207887    3.863512   -2.458569
    128          1           0       13.627071    2.184660   -0.374199
    129          1           0       12.651929    0.748739   -0.139860
    130          1           0       11.859366    2.768699    1.825165
    131          1           0       13.602560    2.775142    1.622135
    132          1           0       13.730767    0.481474    2.224615
    133          1           0       11.876649    0.414887    2.079226
    134          1           0       12.388441    2.351803    3.960812
    135          1           0       13.936081    1.443024    5.485546
    136          1           0       14.475279    0.314475    4.298870
    137          1           0       13.126132   -0.128682    5.424035
    138          1           0       11.192567   -0.404004    4.200305
    139          1           0       10.368118    1.032130    3.757724
    140          1           0       11.035171    0.891707    5.389830
 ---------------------------------------------------------------------

 SCF Done:  E(RB-LYP) =  -3007.38574428     A.U. after   21 cycles

 Excitation energies and oscillator strengths:

 Excited State   1:      Singlet-A      1.7291 eV  717.06 nm  f=0.0028  <S**2>=0.000
     244 -> 247        0.66837
     245 -> 247        0.21637
 This state for optimization and/or second-order correction.
 Total Energy, E(TD-HF/TD-DFT) =  -3007.32220204
 Copying the excited state density for this state as the 1-particle RhoCI density.

 Excited State   2:      Singlet-A      1.8509 eV  669.86 nm  f=0.2910  <S**2>=0.000
     245 -> 248       -0.16698
     245 -> 249       -0.11151
     246 -> 247        0.67317
     246 <- 247       -0.13877

 Excited State   3:      Singlet-A      1.8625 eV  665.69 nm  f=0.0201  <S**2>=0.000
     243 -> 247        0.66515
     245 -> 247       -0.18709
     246 -> 247        0.11362

 Excited State   4:      Singlet-A      2.0376 eV  608.49 nm  f=0.0931  <S**2>=0.000
     243 -> 247        0.21193
     244 -> 247       -0.18680
     245 -> 247        0.59516
     246 -> 248        0.19803
     246 -> 249        0.12010

 Excited State   5:      Singlet-A      2.2571 eV  549.30 nm  f=0.0001  <S**2>=0.000
     242 -> 247        0.70704

 The electronic state is 1-A.
 Alpha  occ. eigenvalues --  -46.27558 -18.82596 -18.80977 -18.77578 -18.76139
 Alpha  occ. eigenvalues --  -18.75691 -18.74541 -14.03180 -14.02786 -14.01511
 Alpha  occ. eigenvalues --  -14.01116 -10.04404 -10.02958 -10.00373  -9.98393
 Alpha  occ. eigenvalues --   -9.98045  -9.96643  -9.96546  -9.96383  -9.96352
 Alpha  occ. eigenvalues --   -9.95948  -9.95912  -9.95820  -9.95453  -9.94410
 Alpha  occ. eigenvalues --   -9.94220  -9.94086  -9.93947  -9.93744  -9.93729
 Alpha  occ. eigenvalues --   -9.93699  -9.93642  -9.93461  -9.93301  -9.93237
 Alpha  occ. eigenvalues --   -9.93230  -9.93153  -9.93058  -9.92856  -9.92768
 Alpha  occ. eigenvalues --   -9.92570  -9.92424  -9.92379  -9.92353  -9.92318
 Alpha  occ. eigenvalues --   -9.92252  -9.92104  -9.92042  -9.91852  -9.91793
 Alpha  occ. eigenvalues --   -9.91724  -9.91717  -9.91713  -9.91679  -9.91656
 Alpha  occ. eigenvalues --   -9.91393  -9.91388  -9.91337  -9.90890  -9.90832
 Alpha  occ. eigenvalues --   -9.90782  -9.90725  -9.90676  -9.90676  -9.90575
 Alpha  occ. eigenvalues --   -9.90523  -2.92107  -1.72553  -1.71993  -1.71804
 Alpha  occ. eigenvalues --   -0.99083  -0.98235  -0.91009  -0.90799  -0.90310
 Alpha  occ. eigenvalues --   -0.89789  -0.87462  -0.87010  -0.86185  -0.85230
 Alpha  occ. eigenvalues --   -0.75802  -0.73935  -0.73734  -0.72978  -0.72766
 Alpha  occ. eigenvalues --   -0.72115  -0.71612  -0.71543  -0.70988  -0.70544
 Alpha  occ. eigenvalues --   -0.69987  -0.69760  -0.68429  -0.68054  -0.67577
 Alpha  occ. eigenvalues --   -0.67202  -0.66215  -0.65498  -0.65179  -0.64759
 Alpha  occ. eigenvalues --   -0.64218  -0.62707  -0.62258  -0.61721  -0.60803
 Alpha  occ. eigenvalues --   -0.60354  -0.60100  -0.60084  -0.59717  -0.58941
 Alpha  occ. eigenvalues --   -0.58652  -0.58147  -0.56870  -0.55485  -0.54445
 Alpha  occ. eigenvalues --   -0.54231  -0.53787  -0.52671  -0.52236  -0.52131
 Alpha  occ. eigenvalues --   -0.51592  -0.50920  -0.50742  -0.50600  -0.50279
 Alpha  occ. eigenvalues --   -0.50240  -0.49256  -0.48974  -0.48340  -0.46730
 Alpha  occ. eigenvalues --   -0.46560  -0.46217  -0.46036  -0.45332  -0.44957
 Alpha  occ. eigenvalues --   -0.44340  -0.43498  -0.43460  -0.43139  -0.42770
 Alpha  occ. eigenvalues --   -0.42251  -0.42079  -0.41862  -0.41719  -0.41508
 Alpha  occ. eigenvalues --   -0.41033  -0.40909  -0.40524  -0.40338  -0.40201
 Alpha  occ. eigenvalues --   -0.40055  -0.40015  -0.39731  -0.39631  -0.39435
 Alpha  occ. eigenvalues --   -0.39151  -0.38980  -0.38959  -0.38639  -0.38464
 Alpha  occ. eigenvalues --   -0.38174  -0.38106  -0.37999  -0.37766  -0.37659
 Alpha  occ. eigenvalues --   -0.37369  -0.37215  -0.36946  -0.36900  -0.36576
 Alpha  occ. eigenvalues --   -0.36464  -0.36290  -0.36185  -0.35845  -0.35673
 Alpha  occ. eigenvalues --   -0.35539  -0.35340  -0.35097  -0.35041  -0.34844
 Alpha  occ. eigenvalues --   -0.34682  -0.34519  -0.34127  -0.33794  -0.33511
 Alpha  occ. eigenvalues --   -0.33477  -0.33258  -0.33114  -0.33059  -0.32957
 Alpha  occ. eigenvalues --   -0.32902  -0.32841  -0.32496  -0.32380  -0.32220
 Alpha  occ. eigenvalues --   -0.32079  -0.32004  -0.31857  -0.31746  -0.31561
 Alpha  occ. eigenvalues --   -0.31338  -0.31274  -0.31057  -0.30934  -0.30449
 Alpha  occ. eigenvalues --   -0.30378  -0.30026  -0.29935  -0.29900  -0.29566
 Alpha  occ. eigenvalues --   -0.29489  -0.29456  -0.29389  -0.29006  -0.28886
 Alpha  occ. eigenvalues --   -0.28815  -0.28673  -0.28463  -0.28408  -0.27760
 Alpha  occ. eigenvalues --   -0.27626  -0.27546  -0.27051  -0.26836  -0.26700
 Alpha  occ. eigenvalues --   -0.26437  -0.26297  -0.26193  -0.25619  -0.25539
 Alpha  occ. eigenvalues --   -0.25011  -0.24908  -0.24182  -0.24026  -0.23730
 Alpha  occ. eigenvalues --   -0.23080  -0.22565  -0.22245  -0.21648  -0.21075
 Alpha  occ. eigenvalues --   -0.20764  -0.20002  -0.18491  -0.17985  -0.17330
 Alpha  occ. eigenvalues --   -0.16185
 Alpha virt. eigenvalues --   -0.11708  -0.06924  -0.06418  -0.04699  -0.03275
 Alpha virt. eigenvalues --   -0.02444  -0.02127  -0.01873  -0.00976  -0.00046
 Alpha virt. eigenvalues --    0.00564   0.01529   0.02471   0.02791   0.03195

 Mulliken charges:
               1
     1  Mg   0.688758
     2  C    0.037828
     3  C   -0.058106
     4  C   -0.008549
     5  C   -0.080788
     6  N   -0.149572
     7  C   -0.151628
     8  C   -0.037752
     9  C   -0.022304
    10  C    0.010348
    11  C    0.149829
    12  C    0.140534
    13  C    0.176122
    14  C    0.052980
    15  O   -0.187834
    16  O   -0.268351
    17  N   -0.290913
    18  C    0.138862
    19  C   -0.145370
    20  C    0.019965
    21  C    0.068252
    22  C    0.176640
    23  C   -0.035982
    24  O   -0.201420
    25  C    0.129665
    26  N   -0.163215
    27  C    0.002786
    28  C   -0.026287
    29  C    0.017605
    30  C   -0.031473
    31  C    0.155778
    32  C    0.143867
    33  C    0.040825
    34  N   -0.279574
    35  C    0.145387
    36  C   -0.170570
    37  C    0.127924
    38  C    0.062554
    39  C    0.183661
    40  C   -0.104240
    41  O   -0.134089
    42  C    0.112509
    43  C    0.084566
    44  O   -0.180672
    45  O   -0.251303
    46  C    0.193552
    47  C    0.334987
    48  C   -0.145615
    49  C   -0.173290
    50  C    0.125076
    51  C    0.167782
    52  C    0.081470
    53  C    0.091559
    54  C   -0.072758
    55  C    0.086050
    56  C    0.129989
    57  C    0.047628
    58  C    0.076577
    59  C   -0.032948
    60  C    0.089857
    61  C    0.166078
    62  C    0.033070
    63  C    0.095186
    64  C   -0.072647
    65  C    0.129671
    66  C    0.082721
    67  H   -0.061405
    68  H   -0.030900
    69  H   -0.067641
    70  H   -0.020309
    71  H   -0.036995
    72  H    0.009549
    73  H   -0.016920
    74  H   -0.005668
    75  H   -0.029822
    76  H    0.016400
    77  H   -0.010412
    78  H    0.001725
    79  H    0.007523
    80  H   -0.018967
    81  H    0.009277
    82  H    0.003103
    83  H   -0.011317
    84  H    0.009901
    85  H   -0.018034
    86  H   -0.014685
    87  H   -0.012159
    88  H   -0.025770
    89  H    0.018253
    90  H   -0.010778
    91  H   -0.017516
    92  H   -0.009400
    93  H   -0.022365
    94  H   -0.016165
    95  H    0.007724
    96  H   -0.002345
    97  H   -0.010122
    98  H    0.005685
    99  H    0.028922
   100  H    0.023941
   101  H    0.009832
   102  H    0.008930
   103  H   -0.000058
   104  H   -0.032597
   105  H   -0.012179
   106  H    0.011117
   107  H   -0.002933
   108  H   -0.036372
   109  H   -0.029289
   110  H   -0.032483
   111  H   -0.033836
   112  H   -0.037772
   113  H   -0.031598
   114  H   -0.045596
   115  H   -0.022820
   116  H   -0.010218
   117  H   -0.023214
   118  H   -0.027461
   119  H   -0.036241
   120  H   -0.023024
   121  H   -0.027306
   122  H   -0.032513
   123  H   -0.038270
   124  H   -0.033472
   125  H   -0.026015
   126  H   -0.038111
   127  H   -0.019596
   128  H   -0.039083
   129  H   -0.035258
   130  H   -0.029407
   131  H   -0.040615
   132  H   -0.029973
   133  H   -0.040708
   134  H   -0.036582
   135  H   -0.019637
   136  H   -0.020135
   137  H   -0.014078
   138  H   -0.018345
   139  H   -0.029676
   140  H   -0.016965
 Sum of Mulliken charges =  -0.00000

 Dipole moment (field-independent basis, Debye):
    X=              3.3536    Y=              3.8838    Z=             -0.3607  Tot=              5.1440
 Quadrupole moment (field-independent basis, Debye-Ang):
   XX=           -371.5459   YY=           -441.6974   ZZ=           -408.0684
   XY=            -13.4773   XZ=              1.7716   YZ=              7.1082

 Normal termination of Gaussian 16 at Wed Apr 27 03:14:14 2022.
