 Gaussian 16, Revision A.03,
 Gaussian 16:  ES64L-G16RevA.03 25-Dec-2016

 -----------------------------------
 #p cam-b3lyp/Def2SVP td=(nstates=5)
 -----------------------------------

 --------------------------------------------------------
 step_1051_chromophore_15 TDDFT with cam-b3lyp functional
 --------------------------------------------------------
 Symbolic Z-matrix:
 Charge =  0 Multiplicity = 1

                         Standard orientation:
 ---------------------------------------------------------------------
 Center     Atomic      Atomic             Coordinates (Angstroms)
 Number     Number       Type             X           Y           Z
 ---------------------------------------------------------------------
      1         12           0       -4.902823    0.977693   -0.040921
      2          6           0       -3.971793   -2.343964    0.365870
      3          6           0       -1.459402    1.787166   -0.074499
      4          6           0       -5.816024    4.181276    0.102744
      5          6           0       -8.230805    0.020039    0.491823
      6          7           0       -2.948752   -0.200635   -0.077020
      7          6           0       -2.893692   -1.525375    0.153311
      8          6           0       -1.427201   -1.984336   -0.101175
      9          6           0       -0.670822   -0.648564    0.267809
     10          6           0       -1.758571    0.396647   -0.079771
     11          6           0       -0.263323   -0.671080    1.767295
     12          6           0       -1.289858   -2.563060   -1.562817
     13          6           0       -0.507315   -3.850356   -1.750910
     14          6           0        0.590711   -4.118153   -0.751059
     15          8           0        0.585398   -4.920561    0.177844
     16          8           0        1.639104   -3.282544   -1.038141
     17          7           0       -3.759215    2.749560   -0.091158
     18          6           0       -2.372991    2.870941   -0.107985
     19          6           0       -2.081695    4.312784   -0.201576
     20          6           0       -3.334769    4.961169   -0.213481
     21          6           0       -4.377398    3.949047   -0.043752
     22          6           0       -0.689783    4.928013   -0.281131
     23          6           0       -3.617246    6.474886   -0.406513
     24          8           0       -4.789583    6.943228   -0.393941
     25          6           0       -2.595655    7.377810   -1.048452
     26          7           0       -6.825387    1.989707    0.300510
     27          6           0       -6.896345    3.301000    0.362322
     28          6           0       -8.303809    3.750092    0.668918
     29          6           0       -9.169514    2.406621    0.525151
     30          6           0       -8.016842    1.375251    0.419124
     31          6           0       -8.436391    4.378740    2.119654
     32          6           0       -9.915402    2.317780   -0.786946
     33          6           0      -11.348874    1.895825   -0.602025
     34          7           0       -5.889099   -0.750268    0.314565
     35          6           0       -7.237153   -0.994060    0.577176
     36          6           0       -7.477382   -2.355729    0.900165
     37          6           0       -6.187339   -2.920343    0.851384
     38          6           0       -5.295478   -1.942478    0.354026
     39          6           0       -8.841162   -2.928812    1.182644
     40          6           0       -5.463118   -4.094245    1.009205
     41          8           0       -5.849909   -5.168594    1.433550
     42          6           0       -3.959898   -3.859142    0.758595
     43          6           0       -3.501353   -4.817231   -0.219927
     44          8           0       -3.605820   -4.732598   -1.419123
     45          8           0       -2.902713   -5.869360    0.421723
     46          6           0       -2.333851   -6.888441   -0.362932
     47          6           0        2.708536   -3.197978   -0.119878
     48          6           0        3.961421   -3.293547   -0.911326
     49          6           0        5.244490   -3.445685   -0.455398
     50          6           0        5.523293   -3.600257    1.028546
     51          6           0        6.514361   -3.316922   -1.301184
     52          6           0        7.125464   -1.921892   -1.337610
     53          6           0        6.938596   -1.200908   -2.668312
     54          6           0        7.187499    0.348155   -2.597587
     55          6           0        6.150027    1.050563   -3.470187
     56          6           0        8.613783    0.851939   -3.017800
     57          6           0        9.332127    1.799307   -1.977128
     58          6           0       10.871641    1.448569   -1.660483
     59          6           0       11.465663    2.458297   -0.697440
     60          6           0       11.838798    3.632503   -1.600049
     61          6           0       12.667116    1.830024    0.000826
     62          6           0       12.704902    2.175133    1.476115
     63          6           0       12.767666    0.968383    2.375101
     64          6           0       12.532545    1.272678    3.913485
     65          6           0       13.580796    0.656001    4.819953
     66          6           0       11.219654    0.676849    4.336967
     67          1           0       -0.393365    2.021607   -0.092606
     68          1           0       -6.050658    5.218468    0.351294
     69          1           0       -9.294026   -0.223795    0.555546
     70          1           0       -1.271857   -2.738318    0.670424
     71          1           0        0.193451   -0.535653   -0.386372
     72          1           0       -0.886382   -1.407120    2.275712
     73          1           0       -0.378731    0.298439    2.250688
     74          1           0        0.812783   -0.846206    1.752556
     75          1           0       -0.750384   -1.788859   -2.107803
     76          1           0       -2.262054   -2.719168   -2.029548
     77          1           0       -0.043861   -3.662888   -2.718970
     78          1           0       -1.134995   -4.739472   -1.681083
     79          1           0       -0.403591    5.203614   -1.296783
     80          1           0        0.054750    4.174837   -0.025107
     81          1           0       -0.661591    5.781023    0.396386
     82          1           0       -1.995491    7.886603   -0.293591
     83          1           0       -3.071186    8.221949   -1.548755
     84          1           0       -2.047857    6.878064   -1.847962
     85          1           0       -8.575795    4.576164    0.011085
     86          1           0       -9.805957    2.077695    1.347439
     87          1           0       -7.428093    4.330409    2.530683
     88          1           0       -8.937622    3.563292    2.642256
     89          1           0       -8.906969    5.360950    2.088612
     90          1           0       -9.465699    1.526262   -1.387522
     91          1           0       -9.867330    3.264236   -1.325777
     92          1           0      -11.577217    0.836536   -0.481075
     93          1           0      -12.009526    2.132624   -1.436296
     94          1           0      -11.798501    2.424568    0.237929
     95          1           0       -9.471216   -2.955423    0.293648
     96          1           0       -9.273244   -2.449747    2.061422
     97          1           0       -8.816130   -3.970222    1.502282
     98          1           0       -3.294440   -3.977971    1.613813
     99          1           0       -1.340980   -6.754079    0.067376
    100          1           0       -2.396885   -6.747478   -1.441416
    101          1           0       -2.801233   -7.850872   -0.156115
    102          1           0        2.821614   -3.996970    0.612815
    103          1           0        2.547832   -2.232683    0.359982
    104          1           0        3.778513   -3.292610   -1.986362
    105          1           0        6.569224   -3.458392    1.298869
    106          1           0        5.242308   -4.619789    1.293473
    107          1           0        4.901321   -2.935187    1.627750
    108          1           0        6.105564   -3.494819   -2.295210
    109          1           0        7.258546   -4.067821   -1.033511
    110          1           0        8.189773   -1.924432   -1.100831
    111          1           0        6.623258   -1.420355   -0.510818
    112          1           0        5.931724   -1.416534   -3.027436
    113          1           0        7.626353   -1.601828   -3.413168
    114          1           0        6.952570    0.618637   -1.567665
    115          1           0        5.139058    0.906139   -3.090138
    116          1           0        6.233550    0.635161   -4.474325
    117          1           0        6.258270    2.135326   -3.484586
    118          1           0        8.469018    1.376355   -3.963111
    119          1           0        9.227076   -0.048091   -3.042943
    120          1           0        8.725794    1.875711   -1.074969
    121          1           0        9.245077    2.714905   -2.561608
    122          1           0       11.508876    1.416410   -2.543843
    123          1           0       10.942246    0.444652   -1.241652
    124          1           0       10.681321    2.810678   -0.026504
    125          1           0       12.861162    3.610074   -1.977957
    126          1           0       11.832054    4.584816   -1.070042
    127          1           0       11.207887    3.863512   -2.458569
    128          1           0       13.627071    2.184660   -0.374199
    129          1           0       12.651929    0.748739   -0.139860
    130          1           0       11.859366    2.768699    1.825165
    131          1           0       13.602560    2.775142    1.622135
    132          1           0       13.730767    0.481474    2.224615
    133          1           0       11.876649    0.414887    2.079226
    134          1           0       12.388441    2.351803    3.960812
    135          1           0       13.936081    1.443024    5.485546
    136          1           0       14.475279    0.314475    4.298870
    137          1           0       13.126132   -0.128682    5.424035
    138          1           0       11.192567   -0.404004    4.200305
    139          1           0       10.368118    1.032130    3.757724
    140          1           0       11.035171    0.891707    5.389830
 ---------------------------------------------------------------------

 SCF Done:  E(RCAM-B3LYP) =  -3007.19458714     A.U. after   17 cycles

 Excitation energies and oscillator strengths:

 Excited State   1:      Singlet-A      1.7690 eV  700.86 nm  f=0.3809  <S**2>=0.000
     245 -> 248       -0.18844
     246 -> 247        0.68359
     245 <- 248       -0.10791
 This state for optimization and/or second-order correction.
 Total Energy, E(TD-HF/TD-DFT) =  -3007.12957661
 Copying the excited state density for this state as the 1-particle RhoCI density.

 Excited State   2:      Singlet-A      2.2453 eV  552.20 nm  f=0.1409  <S**2>=0.000
     245 -> 247        0.64862
     246 -> 248        0.26937

 Excited State   3:      Singlet-A      3.3758 eV  367.27 nm  f=0.0004  <S**2>=0.000
     242 -> 247        0.25506
     242 -> 249        0.10171
     242 -> 250        0.12701
     243 -> 247        0.52116
     243 -> 249        0.20193
     243 -> 250        0.22676

 Excited State   4:      Singlet-A      3.4018 eV  364.47 nm  f=0.0063  <S**2>=0.000
     239 -> 247       -0.12394
     239 -> 249        0.12728
     240 -> 247        0.49026
     240 -> 248       -0.11865
     240 -> 249       -0.37693
     240 -> 250        0.17026

 Excited State   5:      Singlet-A      3.4671 eV  357.60 nm  f=0.0308  <S**2>=0.000
     240 -> 247        0.10231
     241 -> 247        0.47648
     242 -> 247       -0.41121
     243 -> 247        0.12944
     246 -> 248       -0.22533

 The electronic state is 1-A.
 Alpha  occ. eigenvalues --  -46.89137 -19.25469 -19.23788 -19.20557 -19.19283
 Alpha  occ. eigenvalues --  -19.19259 -19.17386 -14.42152 -14.41461 -14.40108
 Alpha  occ. eigenvalues --  -14.39379 -10.39714 -10.38397 -10.36001 -10.33353
 Alpha  occ. eigenvalues --  -10.31991 -10.31371 -10.31366 -10.31174 -10.30941
 Alpha  occ. eigenvalues --  -10.30153 -10.30033 -10.29593 -10.29498 -10.29310
 Alpha  occ. eigenvalues --  -10.28198 -10.28192 -10.28102 -10.27973 -10.27888
 Alpha  occ. eigenvalues --  -10.27859 -10.27829 -10.27542 -10.27514 -10.27482
 Alpha  occ. eigenvalues --  -10.27443 -10.27418 -10.26915 -10.26781 -10.26545
 Alpha  occ. eigenvalues --  -10.26503 -10.26432 -10.26372 -10.25975 -10.25907
 Alpha  occ. eigenvalues --  -10.25836 -10.25832 -10.25784 -10.25771 -10.25631
 Alpha  occ. eigenvalues --  -10.25487 -10.25388 -10.25383 -10.25339 -10.25170
 Alpha  occ. eigenvalues --  -10.25111 -10.25102 -10.25085 -10.24531 -10.24467
 Alpha  occ. eigenvalues --  -10.24392 -10.24368 -10.24352 -10.24272 -10.24188
 Alpha  occ. eigenvalues --  -10.24124  -3.17587  -1.92510  -1.92036  -1.91882
 Alpha  occ. eigenvalues --   -1.17540  -1.16783  -1.09130  -1.08707  -1.08451
 Alpha  occ. eigenvalues --   -1.08281  -1.05159  -1.04750  -1.03638  -1.03005
 Alpha  occ. eigenvalues --   -0.92812  -0.90833  -0.90588  -0.89567  -0.89523
 Alpha  occ. eigenvalues --   -0.88840  -0.88287  -0.88207  -0.87544  -0.87334
 Alpha  occ. eigenvalues --   -0.86493  -0.86212  -0.84742  -0.84176  -0.83767
 Alpha  occ. eigenvalues --   -0.83312  -0.82235  -0.81557  -0.81199  -0.80731
 Alpha  occ. eigenvalues --   -0.80045  -0.78604  -0.77903  -0.77144  -0.76122
 Alpha  occ. eigenvalues --   -0.75727  -0.75433  -0.75348  -0.75033  -0.74194
 Alpha  occ. eigenvalues --   -0.73705  -0.73135  -0.71769  -0.70311  -0.68937
 Alpha  occ. eigenvalues --   -0.68782  -0.68374  -0.67239  -0.66595  -0.66158
 Alpha  occ. eigenvalues --   -0.65805  -0.65090  -0.64907  -0.64633  -0.64319
 Alpha  occ. eigenvalues --   -0.64221  -0.63261  -0.62923  -0.62016  -0.60521
 Alpha  occ. eigenvalues --   -0.60107  -0.59784  -0.59706  -0.58717  -0.58367
 Alpha  occ. eigenvalues --   -0.57882  -0.56916  -0.56780  -0.56318  -0.56046
 Alpha  occ. eigenvalues --   -0.55168  -0.55076  -0.54961  -0.54667  -0.54392
 Alpha  occ. eigenvalues --   -0.53832  -0.53705  -0.53585  -0.53238  -0.52961
 Alpha  occ. eigenvalues --   -0.52795  -0.52641  -0.52473  -0.52247  -0.52160
 Alpha  occ. eigenvalues --   -0.51773  -0.51441  -0.51345  -0.51239  -0.50855
 Alpha  occ. eigenvalues --   -0.50774  -0.50408  -0.50305  -0.50227  -0.49932
 Alpha  occ. eigenvalues --   -0.49730  -0.49577  -0.49268  -0.49154  -0.48873
 Alpha  occ. eigenvalues --   -0.48636  -0.48358  -0.48355  -0.48267  -0.48144
 Alpha  occ. eigenvalues --   -0.47951  -0.47769  -0.47211  -0.47123  -0.46957
 Alpha  occ. eigenvalues --   -0.46614  -0.46383  -0.45917  -0.45718  -0.45391
 Alpha  occ. eigenvalues --   -0.45113  -0.44906  -0.44717  -0.44688  -0.44627
 Alpha  occ. eigenvalues --   -0.44528  -0.44466  -0.44213  -0.44031  -0.43866
 Alpha  occ. eigenvalues --   -0.43803  -0.43775  -0.43384  -0.43317  -0.43183
 Alpha  occ. eigenvalues --   -0.42983  -0.42692  -0.42535  -0.42391  -0.41941
 Alpha  occ. eigenvalues --   -0.41610  -0.41432  -0.41194  -0.41174  -0.41072
 Alpha  occ. eigenvalues --   -0.40901  -0.40764  -0.40693  -0.40585  -0.39970
 Alpha  occ. eigenvalues --   -0.39842  -0.39779  -0.39633  -0.39359  -0.38680
 Alpha  occ. eigenvalues --   -0.38501  -0.38400  -0.37994  -0.37693  -0.37618
 Alpha  occ. eigenvalues --   -0.37514  -0.36975  -0.36933  -0.36816  -0.36236
 Alpha  occ. eigenvalues --   -0.35813  -0.35522  -0.35231  -0.34578  -0.34526
 Alpha  occ. eigenvalues --   -0.34168  -0.33891  -0.33315  -0.31616  -0.31099
 Alpha  occ. eigenvalues --   -0.30569  -0.30031  -0.29793  -0.29568  -0.24068
 Alpha  occ. eigenvalues --   -0.21557
 Alpha virt. eigenvalues --   -0.08829  -0.01647  -0.00076   0.02291   0.02966
 Alpha virt. eigenvalues --    0.04537   0.05046   0.05408   0.05631   0.06484
 Alpha virt. eigenvalues --    0.07578   0.08170   0.08783   0.09166   0.09421

 Mulliken charges:
               1
     1  Mg   0.821499
     2  C    0.001463
     3  C   -0.072642
     4  C   -0.028520
     5  C   -0.086205
     6  N   -0.216362
     7  C   -0.101891
     8  C   -0.092742
     9  C   -0.077089
    10  C    0.031549
    11  C    0.096176
    12  C    0.090326
    13  C    0.106250
    14  C    0.133851
    15  O   -0.229421
    16  O   -0.331885
    17  N   -0.381586
    18  C    0.149569
    19  C   -0.150131
    20  C   -0.051151
    21  C    0.099990
    22  C    0.123259
    23  C    0.046872
    24  O   -0.238048
    25  C    0.041759
    26  N   -0.239172
    27  C    0.027042
    28  C   -0.078914
    29  C   -0.040437
    30  C   -0.013520
    31  C    0.096792
    32  C    0.084354
    33  C   -0.020323
    34  N   -0.369721
    35  C    0.145866
    36  C   -0.165709
    37  C    0.045664
    38  C    0.104372
    39  C    0.127933
    40  C   -0.013040
    41  O   -0.174704
    42  C    0.039018
    43  C    0.173184
    44  O   -0.218366
    45  O   -0.311637
    46  C    0.148184
    47  C    0.302280
    48  C   -0.162142
    49  C   -0.194122
    50  C    0.056768
    51  C    0.106741
    52  C    0.029736
    53  C    0.038368
    54  C   -0.128676
    55  C    0.029045
    56  C    0.076518
    57  C   -0.001716
    58  C    0.022989
    59  C   -0.096565
    60  C    0.032947
    61  C    0.106947
    62  C   -0.015270
    63  C    0.042287
    64  C   -0.132832
    65  C    0.065334
    66  C    0.021146
    67  H   -0.025105
    68  H    0.006154
    69  H   -0.032523
    70  H    0.011785
    71  H   -0.001930
    72  H    0.033200
    73  H    0.009896
    74  H    0.016609
    75  H    0.000017
    76  H    0.050471
    77  H    0.025482
    78  H    0.028811
    79  H    0.035539
    80  H    0.009309
    81  H    0.034816
    82  H    0.033099
    83  H    0.026202
    84  H    0.038053
    85  H    0.017196
    86  H    0.019850
    87  H    0.014101
    88  H    0.000295
    89  H    0.041312
    90  H    0.020221
    91  H    0.010662
    92  H    0.013123
    93  H    0.003955
    94  H    0.006196
    95  H    0.031994
    96  H    0.022557
    97  H    0.019539
    98  H    0.049090
    99  H    0.053357
   100  H    0.047514
   101  H    0.033678
   102  H    0.040212
   103  H    0.022012
   104  H    0.001309
   105  H    0.014007
   106  H    0.036380
   107  H    0.020467
   108  H   -0.005737
   109  H    0.002597
   110  H   -0.004846
   111  H   -0.005701
   112  H   -0.009266
   113  H   -0.003079
   114  H   -0.014297
   115  H    0.001999
   116  H    0.012567
   117  H    0.001330
   118  H    0.001567
   119  H   -0.008452
   120  H    0.003741
   121  H   -0.001446
   122  H   -0.003360
   123  H   -0.010863
   124  H   -0.001754
   125  H   -0.001127
   126  H   -0.011850
   127  H    0.005498
   128  H   -0.008231
   129  H   -0.004548
   130  H   -0.004220
   131  H   -0.011737
   132  H   -0.002426
   133  H   -0.013337
   134  H   -0.004372
   135  H    0.005339
   136  H    0.004823
   137  H    0.011146
   138  H    0.005926
   139  H   -0.004845
   140  H    0.008507
 Sum of Mulliken charges =  -0.00000

 Dipole moment (field-independent basis, Debye):
    X=              4.0500    Y=              4.9930    Z=             -0.5859  Tot=              6.4556
 Quadrupole moment (field-independent basis, Debye-Ang):
   XX=           -375.9516   YY=           -437.1553   ZZ=           -408.0279
   XY=            -16.1846   XZ=              2.1890   YZ=              7.2417

 Normal termination of Gaussian 16 at Wed Apr 27 02:09:24 2022.
