 Gaussian 16, Revision A.03,
 Gaussian 16:  ES64L-G16RevA.03 25-Dec-2016

 ---------------------------------
 #p PBE1PBE/Def2SVP td=(nstates=5)
 ---------------------------------

 ------------------------------------------------------
 step_1051_chromophore_15 TDDFT with PBE1PBE functional
 ------------------------------------------------------
 Symbolic Z-matrix:
 Charge =  0 Multiplicity = 1

                         Standard orientation:
 ---------------------------------------------------------------------
 Center     Atomic      Atomic             Coordinates (Angstroms)
 Number     Number       Type             X           Y           Z
 ---------------------------------------------------------------------
      1         12           0       -4.902823    0.977693   -0.040921
      2          6           0       -3.971793   -2.343964    0.365870
      3          6           0       -1.459402    1.787166   -0.074499
      4          6           0       -5.816024    4.181276    0.102744
      5          6           0       -8.230805    0.020039    0.491823
      6          7           0       -2.948752   -0.200635   -0.077020
      7          6           0       -2.893692   -1.525375    0.153311
      8          6           0       -1.427201   -1.984336   -0.101175
      9          6           0       -0.670822   -0.648564    0.267809
     10          6           0       -1.758571    0.396647   -0.079771
     11          6           0       -0.263323   -0.671080    1.767295
     12          6           0       -1.289858   -2.563060   -1.562817
     13          6           0       -0.507315   -3.850356   -1.750910
     14          6           0        0.590711   -4.118153   -0.751059
     15          8           0        0.585398   -4.920561    0.177844
     16          8           0        1.639104   -3.282544   -1.038141
     17          7           0       -3.759215    2.749560   -0.091158
     18          6           0       -2.372991    2.870941   -0.107985
     19          6           0       -2.081695    4.312784   -0.201576
     20          6           0       -3.334769    4.961169   -0.213481
     21          6           0       -4.377398    3.949047   -0.043752
     22          6           0       -0.689783    4.928013   -0.281131
     23          6           0       -3.617246    6.474886   -0.406513
     24          8           0       -4.789583    6.943228   -0.393941
     25          6           0       -2.595655    7.377810   -1.048452
     26          7           0       -6.825387    1.989707    0.300510
     27          6           0       -6.896345    3.301000    0.362322
     28          6           0       -8.303809    3.750092    0.668918
     29          6           0       -9.169514    2.406621    0.525151
     30          6           0       -8.016842    1.375251    0.419124
     31          6           0       -8.436391    4.378740    2.119654
     32          6           0       -9.915402    2.317780   -0.786946
     33          6           0      -11.348874    1.895825   -0.602025
     34          7           0       -5.889099   -0.750268    0.314565
     35          6           0       -7.237153   -0.994060    0.577176
     36          6           0       -7.477382   -2.355729    0.900165
     37          6           0       -6.187339   -2.920343    0.851384
     38          6           0       -5.295478   -1.942478    0.354026
     39          6           0       -8.841162   -2.928812    1.182644
     40          6           0       -5.463118   -4.094245    1.009205
     41          8           0       -5.849909   -5.168594    1.433550
     42          6           0       -3.959898   -3.859142    0.758595
     43          6           0       -3.501353   -4.817231   -0.219927
     44          8           0       -3.605820   -4.732598   -1.419123
     45          8           0       -2.902713   -5.869360    0.421723
     46          6           0       -2.333851   -6.888441   -0.362932
     47          6           0        2.708536   -3.197978   -0.119878
     48          6           0        3.961421   -3.293547   -0.911326
     49          6           0        5.244490   -3.445685   -0.455398
     50          6           0        5.523293   -3.600257    1.028546
     51          6           0        6.514361   -3.316922   -1.301184
     52          6           0        7.125464   -1.921892   -1.337610
     53          6           0        6.938596   -1.200908   -2.668312
     54          6           0        7.187499    0.348155   -2.597587
     55          6           0        6.150027    1.050563   -3.470187
     56          6           0        8.613783    0.851939   -3.017800
     57          6           0        9.332127    1.799307   -1.977128
     58          6           0       10.871641    1.448569   -1.660483
     59          6           0       11.465663    2.458297   -0.697440
     60          6           0       11.838798    3.632503   -1.600049
     61          6           0       12.667116    1.830024    0.000826
     62          6           0       12.704902    2.175133    1.476115
     63          6           0       12.767666    0.968383    2.375101
     64          6           0       12.532545    1.272678    3.913485
     65          6           0       13.580796    0.656001    4.819953
     66          6           0       11.219654    0.676849    4.336967
     67          1           0       -0.393365    2.021607   -0.092606
     68          1           0       -6.050658    5.218468    0.351294
     69          1           0       -9.294026   -0.223795    0.555546
     70          1           0       -1.271857   -2.738318    0.670424
     71          1           0        0.193451   -0.535653   -0.386372
     72          1           0       -0.886382   -1.407120    2.275712
     73          1           0       -0.378731    0.298439    2.250688
     74          1           0        0.812783   -0.846206    1.752556
     75          1           0       -0.750384   -1.788859   -2.107803
     76          1           0       -2.262054   -2.719168   -2.029548
     77          1           0       -0.043861   -3.662888   -2.718970
     78          1           0       -1.134995   -4.739472   -1.681083
     79          1           0       -0.403591    5.203614   -1.296783
     80          1           0        0.054750    4.174837   -0.025107
     81          1           0       -0.661591    5.781023    0.396386
     82          1           0       -1.995491    7.886603   -0.293591
     83          1           0       -3.071186    8.221949   -1.548755
     84          1           0       -2.047857    6.878064   -1.847962
     85          1           0       -8.575795    4.576164    0.011085
     86          1           0       -9.805957    2.077695    1.347439
     87          1           0       -7.428093    4.330409    2.530683
     88          1           0       -8.937622    3.563292    2.642256
     89          1           0       -8.906969    5.360950    2.088612
     90          1           0       -9.465699    1.526262   -1.387522
     91          1           0       -9.867330    3.264236   -1.325777
     92          1           0      -11.577217    0.836536   -0.481075
     93          1           0      -12.009526    2.132624   -1.436296
     94          1           0      -11.798501    2.424568    0.237929
     95          1           0       -9.471216   -2.955423    0.293648
     96          1           0       -9.273244   -2.449747    2.061422
     97          1           0       -8.816130   -3.970222    1.502282
     98          1           0       -3.294440   -3.977971    1.613813
     99          1           0       -1.340980   -6.754079    0.067376
    100          1           0       -2.396885   -6.747478   -1.441416
    101          1           0       -2.801233   -7.850872   -0.156115
    102          1           0        2.821614   -3.996970    0.612815
    103          1           0        2.547832   -2.232683    0.359982
    104          1           0        3.778513   -3.292610   -1.986362
    105          1           0        6.569224   -3.458392    1.298869
    106          1           0        5.242308   -4.619789    1.293473
    107          1           0        4.901321   -2.935187    1.627750
    108          1           0        6.105564   -3.494819   -2.295210
    109          1           0        7.258546   -4.067821   -1.033511
    110          1           0        8.189773   -1.924432   -1.100831
    111          1           0        6.623258   -1.420355   -0.510818
    112          1           0        5.931724   -1.416534   -3.027436
    113          1           0        7.626353   -1.601828   -3.413168
    114          1           0        6.952570    0.618637   -1.567665
    115          1           0        5.139058    0.906139   -3.090138
    116          1           0        6.233550    0.635161   -4.474325
    117          1           0        6.258270    2.135326   -3.484586
    118          1           0        8.469018    1.376355   -3.963111
    119          1           0        9.227076   -0.048091   -3.042943
    120          1           0        8.725794    1.875711   -1.074969
    121          1           0        9.245077    2.714905   -2.561608
    122          1           0       11.508876    1.416410   -2.543843
    123          1           0       10.942246    0.444652   -1.241652
    124          1           0       10.681321    2.810678   -0.026504
    125          1           0       12.861162    3.610074   -1.977957
    126          1           0       11.832054    4.584816   -1.070042
    127          1           0       11.207887    3.863512   -2.458569
    128          1           0       13.627071    2.184660   -0.374199
    129          1           0       12.651929    0.748739   -0.139860
    130          1           0       11.859366    2.768699    1.825165
    131          1           0       13.602560    2.775142    1.622135
    132          1           0       13.730767    0.481474    2.224615
    133          1           0       11.876649    0.414887    2.079226
    134          1           0       12.388441    2.351803    3.960812
    135          1           0       13.936081    1.443024    5.485546
    136          1           0       14.475279    0.314475    4.298870
    137          1           0       13.126132   -0.128682    5.424035
    138          1           0       11.192567   -0.404004    4.200305
    139          1           0       10.368118    1.032130    3.757724
    140          1           0       11.035171    0.891707    5.389830
 ---------------------------------------------------------------------

 SCF Done:  E(RPBE1PBE) =  -3005.38333307     A.U. after   15 cycles

 Excitation energies and oscillator strengths:

 Excited State   1:      Singlet-A      1.9092 eV  649.39 nm  f=0.3696  <S**2>=0.000
     245 -> 248       -0.18158
     246 -> 247        0.68975
 This state for optimization and/or second-order correction.
 Total Energy, E(TD-HF/TD-DFT) =  -3005.31317020
 Copying the excited state density for this state as the 1-particle RhoCI density.

 Excited State   2:      Singlet-A      2.2457 eV  552.09 nm  f=0.1360  <S**2>=0.000
     245 -> 247        0.65962
     246 -> 248        0.24121

 Excited State   3:      Singlet-A      2.8060 eV  441.85 nm  f=0.0002  <S**2>=0.000
     243 -> 247        0.16104
     244 -> 247        0.65766
     244 -> 249        0.13225
     244 -> 250        0.12072

 Excited State   4:      Singlet-A      2.9643 eV  418.26 nm  f=0.0005  <S**2>=0.000
     241 -> 247       -0.14681
     242 -> 247        0.64124
     242 -> 249       -0.20462

 Excited State   5:      Singlet-A      3.1518 eV  393.38 nm  f=0.0005  <S**2>=0.000
     240 -> 247       -0.19716
     241 -> 247        0.65368
     242 -> 247        0.15529

 The electronic state is 1-A.
 Alpha  occ. eigenvalues --  -46.92515 -19.26142 -19.24513 -19.20817 -19.19503
 Alpha  occ. eigenvalues --  -19.19322 -19.17823 -14.41556 -14.41006 -14.39679
 Alpha  occ. eigenvalues --  -14.39150 -10.36745 -10.35385 -10.32975 -10.30635
 Alpha  occ. eigenvalues --  -10.29368 -10.28905 -10.28815 -10.28605 -10.28494
 Alpha  occ. eigenvalues --  -10.28031 -10.27946 -10.27302 -10.26895 -10.26873
 Alpha  occ. eigenvalues --  -10.26071 -10.25943 -10.25707 -10.25690 -10.25592
 Alpha  occ. eigenvalues --  -10.25484 -10.25431 -10.25420 -10.25284 -10.25207
 Alpha  occ. eigenvalues --  -10.25097 -10.25092 -10.24584 -10.24291 -10.24236
 Alpha  occ. eigenvalues --  -10.24179 -10.23967 -10.23544 -10.23541 -10.23472
 Alpha  occ. eigenvalues --  -10.23446 -10.23335 -10.23324 -10.23308 -10.23288
 Alpha  occ. eigenvalues --  -10.23064 -10.23054 -10.22976 -10.22897 -10.22677
 Alpha  occ. eigenvalues --  -10.22666 -10.22653 -10.22643 -10.22313 -10.22022
 Alpha  occ. eigenvalues --  -10.21928 -10.21903 -10.21722 -10.21690 -10.21640
 Alpha  occ. eigenvalues --  -10.21514  -3.14549  -1.87412  -1.86916  -1.86766
 Alpha  occ. eigenvalues --   -1.12352  -1.11604  -1.04053  -1.03548  -1.03142
 Alpha  occ. eigenvalues --   -1.02964  -0.99821  -0.99362  -0.98435  -0.97539
 Alpha  occ. eigenvalues --   -0.87291  -0.84950  -0.84693  -0.83924  -0.83708
 Alpha  occ. eigenvalues --   -0.82948  -0.82578  -0.82334  -0.81892  -0.81510
 Alpha  occ. eigenvalues --   -0.80870  -0.80432  -0.78922  -0.78538  -0.77959
 Alpha  occ. eigenvalues --   -0.77572  -0.76530  -0.75668  -0.75466  -0.75062
 Alpha  occ. eigenvalues --   -0.74189  -0.72782  -0.72164  -0.71501  -0.70512
 Alpha  occ. eigenvalues --   -0.69878  -0.69702  -0.69518  -0.69146  -0.68353
 Alpha  occ. eigenvalues --   -0.68086  -0.67563  -0.66220  -0.64606  -0.63339
 Alpha  occ. eigenvalues --   -0.63321  -0.62613  -0.61572  -0.60867  -0.60602
 Alpha  occ. eigenvalues --   -0.60234  -0.59612  -0.59232  -0.59098  -0.58645
 Alpha  occ. eigenvalues --   -0.58402  -0.57374  -0.57093  -0.56610  -0.54975
 Alpha  occ. eigenvalues --   -0.54506  -0.54311  -0.54219  -0.53270  -0.53034
 Alpha  occ. eigenvalues --   -0.52392  -0.51364  -0.51284  -0.50918  -0.50599
 Alpha  occ. eigenvalues --   -0.49722  -0.49475  -0.49357  -0.49221  -0.48797
 Alpha  occ. eigenvalues --   -0.48436  -0.48231  -0.47990  -0.47777  -0.47320
 Alpha  occ. eigenvalues --   -0.47273  -0.47202  -0.46951  -0.46740  -0.46702
 Alpha  occ. eigenvalues --   -0.46352  -0.45992  -0.45947  -0.45752  -0.45489
 Alpha  occ. eigenvalues --   -0.45307  -0.45083  -0.44915  -0.44640  -0.44470
 Alpha  occ. eigenvalues --   -0.44323  -0.44153  -0.43865  -0.43856  -0.43457
 Alpha  occ. eigenvalues --   -0.43351  -0.42934  -0.42881  -0.42851  -0.42820
 Alpha  occ. eigenvalues --   -0.42484  -0.42305  -0.41962  -0.41870  -0.41635
 Alpha  occ. eigenvalues --   -0.41281  -0.41062  -0.40631  -0.40430  -0.40147
 Alpha  occ. eigenvalues --   -0.39744  -0.39687  -0.39530  -0.39386  -0.39339
 Alpha  occ. eigenvalues --   -0.39277  -0.39207  -0.39016  -0.38758  -0.38624
 Alpha  occ. eigenvalues --   -0.38614  -0.38502  -0.38268  -0.38054  -0.37847
 Alpha  occ. eigenvalues --   -0.37719  -0.37428  -0.37355  -0.37191  -0.36743
 Alpha  occ. eigenvalues --   -0.36377  -0.36240  -0.35987  -0.35944  -0.35918
 Alpha  occ. eigenvalues --   -0.35746  -0.35595  -0.35534  -0.35321  -0.34939
 Alpha  occ. eigenvalues --   -0.34718  -0.34587  -0.34521  -0.34099  -0.33515
 Alpha  occ. eigenvalues --   -0.33441  -0.33168  -0.32826  -0.32679  -0.32419
 Alpha  occ. eigenvalues --   -0.32303  -0.32050  -0.31786  -0.31676  -0.31098
 Alpha  occ. eigenvalues --   -0.30884  -0.30443  -0.30169  -0.29555  -0.29383
 Alpha  occ. eigenvalues --   -0.29220  -0.29171  -0.28629  -0.27168  -0.26089
 Alpha  occ. eigenvalues --   -0.25768  -0.25675  -0.24863  -0.24845  -0.21026
 Alpha  occ. eigenvalues --   -0.19167
 Alpha virt. eigenvalues --   -0.11308  -0.05176  -0.04233  -0.02136  -0.00103
 Alpha virt. eigenvalues --    0.00329   0.00591   0.00904   0.01949   0.02524
 Alpha virt. eigenvalues --    0.03289   0.04494   0.05493   0.05746   0.06090

 Mulliken charges:
               1
     1  Mg   0.965928
     2  C   -0.030513
     3  C   -0.068532
     4  C   -0.010420
     5  C   -0.068688
     6  N   -0.322768
     7  C   -0.016572
     8  C   -0.166336
     9  C   -0.160807
    10  C    0.077062
    11  C    0.040147
    12  C    0.045899
    13  C    0.017994
    14  C    0.204394
    15  O   -0.265831
    16  O   -0.363519
    17  N   -0.496212
    18  C    0.171764
    19  C   -0.179623
    20  C   -0.105503
    21  C    0.132617
    22  C    0.064911
    23  C    0.098092
    24  O   -0.273580
    25  C   -0.033520
    26  N   -0.345385
    27  C    0.057623
    28  C   -0.151624
    29  C   -0.119877
    30  C    0.019991
    31  C    0.038432
    32  C    0.028314
    33  C   -0.091560
    34  N   -0.496994
    35  C    0.161951
    36  C   -0.170495
    37  C   -0.016151
    38  C    0.178767
    39  C    0.073524
    40  C    0.082117
    41  O   -0.218781
    42  C   -0.071831
    43  C    0.268916
    44  O   -0.255516
    45  O   -0.346373
    46  C    0.093215
    47  C    0.258717
    48  C   -0.169020
    49  C   -0.239535
    50  C   -0.005667
    51  C    0.040471
    52  C   -0.031969
    53  C   -0.017300
    54  C   -0.209560
    55  C   -0.036098
    56  C    0.019464
    57  C   -0.059163
    58  C   -0.037396
    59  C   -0.189712
    60  C   -0.020394
    61  C    0.056317
    62  C   -0.076132
    63  C   -0.014554
    64  C   -0.225079
    65  C    0.005163
    66  C   -0.045605
    67  H    0.006007
    68  H    0.037128
    69  H    0.000621
    70  H    0.051886
    71  H    0.033774
    72  H    0.058709
    73  H    0.038847
    74  H    0.045986
    75  H    0.033513
    76  H    0.082689
    77  H    0.059525
    78  H    0.067731
    79  H    0.061310
    80  H    0.036670
    81  H    0.061697
    82  H    0.058969
    83  H    0.053049
    84  H    0.063449
    85  H    0.052250
    86  H    0.053702
    87  H    0.043962
    88  H    0.029551
    89  H    0.067098
    90  H    0.054557
    91  H    0.043617
    92  H    0.039918
    93  H    0.033165
    94  H    0.034861
    95  H    0.059717
    96  H    0.050748
    97  H    0.048771
    98  H    0.084150
    99  H    0.077809
   100  H    0.066590
   101  H    0.057108
   102  H    0.066203
   103  H    0.052007
   104  H    0.030703
   105  H    0.041004
   106  H    0.064394
   107  H    0.047535
   108  H    0.028266
   109  H    0.034990
   110  H    0.028154
   111  H    0.028186
   112  H    0.023203
   113  H    0.029692
   114  H    0.023904
   115  H    0.030973
   116  H    0.040893
   117  H    0.030802
   118  H    0.033472
   119  H    0.025813
   120  H    0.034571
   121  H    0.030983
   122  H    0.029587
   123  H    0.022599
   124  H    0.034720
   125  H    0.026150
   126  H    0.017383
   127  H    0.032599
   128  H    0.023890
   129  H    0.026479
   130  H    0.027572
   131  H    0.022420
   132  H    0.029517
   133  H    0.021757
   134  H    0.032447
   135  H    0.033718
   136  H    0.031663
   137  H    0.037976
   138  H    0.034519
   139  H    0.024459
   140  H    0.038065
 Sum of Mulliken charges =  -0.00000

 Dipole moment (field-independent basis, Debye):
    X=              3.6454    Y=              4.5669    Z=             -0.5226  Tot=              5.8667
 Quadrupole moment (field-independent basis, Debye-Ang):
   XX=           -366.7312   YY=           -435.6604   ZZ=           -405.4061
   XY=            -14.7852   XZ=              1.6831   YZ=              6.9952

 Normal termination of Gaussian 16 at Wed Apr 27 02:30:09 2022.
