 Gaussian 16, Revision A.03,
 Gaussian 16:  ES64L-G16RevA.03 25-Dec-2016

 --------------------------------
 #p wB97XD/Def2SVP td=(nstates=5)
 --------------------------------

 -----------------------------------------------------
 step_1051_chromophore_15 TDDFT with wB97XD functional
 -----------------------------------------------------
 Symbolic Z-matrix:
 Charge =  0 Multiplicity = 1

                         Standard orientation:
 ---------------------------------------------------------------------
 Center     Atomic      Atomic             Coordinates (Angstroms)
 Number     Number       Type             X           Y           Z
 ---------------------------------------------------------------------
      1         12           0       -4.902823    0.977693   -0.040921
      2          6           0       -3.971793   -2.343964    0.365870
      3          6           0       -1.459402    1.787166   -0.074499
      4          6           0       -5.816024    4.181276    0.102744
      5          6           0       -8.230805    0.020039    0.491823
      6          7           0       -2.948752   -0.200635   -0.077020
      7          6           0       -2.893692   -1.525375    0.153311
      8          6           0       -1.427201   -1.984336   -0.101175
      9          6           0       -0.670822   -0.648564    0.267809
     10          6           0       -1.758571    0.396647   -0.079771
     11          6           0       -0.263323   -0.671080    1.767295
     12          6           0       -1.289858   -2.563060   -1.562817
     13          6           0       -0.507315   -3.850356   -1.750910
     14          6           0        0.590711   -4.118153   -0.751059
     15          8           0        0.585398   -4.920561    0.177844
     16          8           0        1.639104   -3.282544   -1.038141
     17          7           0       -3.759215    2.749560   -0.091158
     18          6           0       -2.372991    2.870941   -0.107985
     19          6           0       -2.081695    4.312784   -0.201576
     20          6           0       -3.334769    4.961169   -0.213481
     21          6           0       -4.377398    3.949047   -0.043752
     22          6           0       -0.689783    4.928013   -0.281131
     23          6           0       -3.617246    6.474886   -0.406513
     24          8           0       -4.789583    6.943228   -0.393941
     25          6           0       -2.595655    7.377810   -1.048452
     26          7           0       -6.825387    1.989707    0.300510
     27          6           0       -6.896345    3.301000    0.362322
     28          6           0       -8.303809    3.750092    0.668918
     29          6           0       -9.169514    2.406621    0.525151
     30          6           0       -8.016842    1.375251    0.419124
     31          6           0       -8.436391    4.378740    2.119654
     32          6           0       -9.915402    2.317780   -0.786946
     33          6           0      -11.348874    1.895825   -0.602025
     34          7           0       -5.889099   -0.750268    0.314565
     35          6           0       -7.237153   -0.994060    0.577176
     36          6           0       -7.477382   -2.355729    0.900165
     37          6           0       -6.187339   -2.920343    0.851384
     38          6           0       -5.295478   -1.942478    0.354026
     39          6           0       -8.841162   -2.928812    1.182644
     40          6           0       -5.463118   -4.094245    1.009205
     41          8           0       -5.849909   -5.168594    1.433550
     42          6           0       -3.959898   -3.859142    0.758595
     43          6           0       -3.501353   -4.817231   -0.219927
     44          8           0       -3.605820   -4.732598   -1.419123
     45          8           0       -2.902713   -5.869360    0.421723
     46          6           0       -2.333851   -6.888441   -0.362932
     47          6           0        2.708536   -3.197978   -0.119878
     48          6           0        3.961421   -3.293547   -0.911326
     49          6           0        5.244490   -3.445685   -0.455398
     50          6           0        5.523293   -3.600257    1.028546
     51          6           0        6.514361   -3.316922   -1.301184
     52          6           0        7.125464   -1.921892   -1.337610
     53          6           0        6.938596   -1.200908   -2.668312
     54          6           0        7.187499    0.348155   -2.597587
     55          6           0        6.150027    1.050563   -3.470187
     56          6           0        8.613783    0.851939   -3.017800
     57          6           0        9.332127    1.799307   -1.977128
     58          6           0       10.871641    1.448569   -1.660483
     59          6           0       11.465663    2.458297   -0.697440
     60          6           0       11.838798    3.632503   -1.600049
     61          6           0       12.667116    1.830024    0.000826
     62          6           0       12.704902    2.175133    1.476115
     63          6           0       12.767666    0.968383    2.375101
     64          6           0       12.532545    1.272678    3.913485
     65          6           0       13.580796    0.656001    4.819953
     66          6           0       11.219654    0.676849    4.336967
     67          1           0       -0.393365    2.021607   -0.092606
     68          1           0       -6.050658    5.218468    0.351294
     69          1           0       -9.294026   -0.223795    0.555546
     70          1           0       -1.271857   -2.738318    0.670424
     71          1           0        0.193451   -0.535653   -0.386372
     72          1           0       -0.886382   -1.407120    2.275712
     73          1           0       -0.378731    0.298439    2.250688
     74          1           0        0.812783   -0.846206    1.752556
     75          1           0       -0.750384   -1.788859   -2.107803
     76          1           0       -2.262054   -2.719168   -2.029548
     77          1           0       -0.043861   -3.662888   -2.718970
     78          1           0       -1.134995   -4.739472   -1.681083
     79          1           0       -0.403591    5.203614   -1.296783
     80          1           0        0.054750    4.174837   -0.025107
     81          1           0       -0.661591    5.781023    0.396386
     82          1           0       -1.995491    7.886603   -0.293591
     83          1           0       -3.071186    8.221949   -1.548755
     84          1           0       -2.047857    6.878064   -1.847962
     85          1           0       -8.575795    4.576164    0.011085
     86          1           0       -9.805957    2.077695    1.347439
     87          1           0       -7.428093    4.330409    2.530683
     88          1           0       -8.937622    3.563292    2.642256
     89          1           0       -8.906969    5.360950    2.088612
     90          1           0       -9.465699    1.526262   -1.387522
     91          1           0       -9.867330    3.264236   -1.325777
     92          1           0      -11.577217    0.836536   -0.481075
     93          1           0      -12.009526    2.132624   -1.436296
     94          1           0      -11.798501    2.424568    0.237929
     95          1           0       -9.471216   -2.955423    0.293648
     96          1           0       -9.273244   -2.449747    2.061422
     97          1           0       -8.816130   -3.970222    1.502282
     98          1           0       -3.294440   -3.977971    1.613813
     99          1           0       -1.340980   -6.754079    0.067376
    100          1           0       -2.396885   -6.747478   -1.441416
    101          1           0       -2.801233   -7.850872   -0.156115
    102          1           0        2.821614   -3.996970    0.612815
    103          1           0        2.547832   -2.232683    0.359982
    104          1           0        3.778513   -3.292610   -1.986362
    105          1           0        6.569224   -3.458392    1.298869
    106          1           0        5.242308   -4.619789    1.293473
    107          1           0        4.901321   -2.935187    1.627750
    108          1           0        6.105564   -3.494819   -2.295210
    109          1           0        7.258546   -4.067821   -1.033511
    110          1           0        8.189773   -1.924432   -1.100831
    111          1           0        6.623258   -1.420355   -0.510818
    112          1           0        5.931724   -1.416534   -3.027436
    113          1           0        7.626353   -1.601828   -3.413168
    114          1           0        6.952570    0.618637   -1.567665
    115          1           0        5.139058    0.906139   -3.090138
    116          1           0        6.233550    0.635161   -4.474325
    117          1           0        6.258270    2.135326   -3.484586
    118          1           0        8.469018    1.376355   -3.963111
    119          1           0        9.227076   -0.048091   -3.042943
    120          1           0        8.725794    1.875711   -1.074969
    121          1           0        9.245077    2.714905   -2.561608
    122          1           0       11.508876    1.416410   -2.543843
    123          1           0       10.942246    0.444652   -1.241652
    124          1           0       10.681321    2.810678   -0.026504
    125          1           0       12.861162    3.610074   -1.977957
    126          1           0       11.832054    4.584816   -1.070042
    127          1           0       11.207887    3.863512   -2.458569
    128          1           0       13.627071    2.184660   -0.374199
    129          1           0       12.651929    0.748739   -0.139860
    130          1           0       11.859366    2.768699    1.825165
    131          1           0       13.602560    2.775142    1.622135
    132          1           0       13.730767    0.481474    2.224615
    133          1           0       11.876649    0.414887    2.079226
    134          1           0       12.388441    2.351803    3.960812
    135          1           0       13.936081    1.443024    5.485546
    136          1           0       14.475279    0.314475    4.298870
    137          1           0       13.126132   -0.128682    5.424035
    138          1           0       11.192567   -0.404004    4.200305
    139          1           0       10.368118    1.032130    3.757724
    140          1           0       11.035171    0.891707    5.389830
 ---------------------------------------------------------------------

 SCF Done:  E(RwB97XD) =  -3007.89205065     A.U. after   18 cycles

 Excitation energies and oscillator strengths:

 Excited State   1:      Singlet-A      1.7224 eV  719.85 nm  f=0.3792  <S**2>=0.000
     245 -> 248       -0.19305
     246 -> 247        0.68156
     245 <- 248       -0.11635
 This state for optimization and/or second-order correction.
 Total Energy, E(TD-HF/TD-DFT) =  -3007.82875527
 Copying the excited state density for this state as the 1-particle RhoCI density.

 Excited State   2:      Singlet-A      2.1921 eV  565.58 nm  f=0.1371  <S**2>=0.000
     245 -> 247        0.64620
     246 -> 248        0.27227

 Excited State   3:      Singlet-A      3.4030 eV  364.34 nm  f=0.0045  <S**2>=0.000
     240 -> 247        0.47803
     240 -> 248       -0.11396
     240 -> 249       -0.40270
     240 -> 250        0.16601
     243 -> 247        0.11408

 Excited State   4:      Singlet-A      3.4265 eV  361.84 nm  f=0.0014  <S**2>=0.000
     240 -> 247       -0.11570
     242 -> 247        0.14179
     243 -> 247        0.53530
     243 -> 249        0.24167
     243 -> 250        0.27123

 Excited State   5:      Singlet-A      3.4748 eV  356.81 nm  f=0.0391  <S**2>=0.000
     239 -> 247        0.10472
     240 -> 247        0.11535
     241 -> 247        0.51210
     242 -> 247       -0.34621
     246 -> 248       -0.24737

 The electronic state is 1-A.
 Alpha  occ. eigenvalues --  -46.95465 -19.30681 -19.28999 -19.25459 -19.24384
 Alpha  occ. eigenvalues --  -19.24176 -19.22379 -14.46749 -14.46008 -14.44733
 Alpha  occ. eigenvalues --  -14.43950 -10.43508 -10.42196 -10.40048 -10.37288
 Alpha  occ. eigenvalues --  -10.35848 -10.35507 -10.35441 -10.35323 -10.34991
 Alpha  occ. eigenvalues --  -10.34136 -10.33988 -10.33733 -10.33327 -10.33264
 Alpha  occ. eigenvalues --  -10.32258 -10.32210 -10.32149 -10.32115 -10.31911
 Alpha  occ. eigenvalues --  -10.31910 -10.31877 -10.31590 -10.31586 -10.31517
 Alpha  occ. eigenvalues --  -10.31485 -10.31426 -10.30896 -10.30688 -10.30609
 Alpha  occ. eigenvalues --  -10.30416 -10.30352 -10.30337 -10.29839 -10.29736
 Alpha  occ. eigenvalues --  -10.29736 -10.29719 -10.29698 -10.29670 -10.29624
 Alpha  occ. eigenvalues --  -10.29447 -10.29365 -10.29297 -10.29268 -10.29059
 Alpha  occ. eigenvalues --  -10.29048 -10.29027 -10.28976 -10.28395 -10.28372
 Alpha  occ. eigenvalues --  -10.28329 -10.28301 -10.28155 -10.28090 -10.28079
 Alpha  occ. eigenvalues --  -10.27968  -3.21364  -1.94977  -1.94480  -1.94324
 Alpha  occ. eigenvalues --   -1.19705  -1.18931  -1.11305  -1.10866  -1.10717
 Alpha  occ. eigenvalues --   -1.10448  -1.07145  -1.06749  -1.05661  -1.05096
 Alpha  occ. eigenvalues --   -0.94766  -0.92629  -0.92360  -0.91418  -0.91353
 Alpha  occ. eigenvalues --   -0.90620  -0.90231  -0.90004  -0.89468  -0.89313
 Alpha  occ. eigenvalues --   -0.88429  -0.88092  -0.86592  -0.86075  -0.85616
 Alpha  occ. eigenvalues --   -0.85196  -0.84156  -0.83478  -0.83122  -0.82710
 Alpha  occ. eigenvalues --   -0.81875  -0.80598  -0.79796  -0.79055  -0.78063
 Alpha  occ. eigenvalues --   -0.77566  -0.77271  -0.77221  -0.76841  -0.76037
 Alpha  occ. eigenvalues --   -0.75643  -0.75091  -0.73750  -0.72230  -0.70877
 Alpha  occ. eigenvalues --   -0.70731  -0.70257  -0.69253  -0.68494  -0.68049
 Alpha  occ. eigenvalues --   -0.67763  -0.67099  -0.66785  -0.66607  -0.66148
 Alpha  occ. eigenvalues --   -0.66114  -0.65074  -0.64756  -0.63968  -0.62567
 Alpha  occ. eigenvalues --   -0.62004  -0.61723  -0.61680  -0.60663  -0.60329
 Alpha  occ. eigenvalues --   -0.59838  -0.58840  -0.58702  -0.58318  -0.57973
 Alpha  occ. eigenvalues --   -0.57147  -0.56939  -0.56838  -0.56574  -0.56261
 Alpha  occ. eigenvalues --   -0.55745  -0.55627  -0.55442  -0.55189  -0.54889
 Alpha  occ. eigenvalues --   -0.54673  -0.54551  -0.54343  -0.54201  -0.54060
 Alpha  occ. eigenvalues --   -0.53691  -0.53357  -0.53235  -0.53153  -0.52767
 Alpha  occ. eigenvalues --   -0.52693  -0.52337  -0.52232  -0.52172  -0.51816
 Alpha  occ. eigenvalues --   -0.51690  -0.51469  -0.51174  -0.51064  -0.50803
 Alpha  occ. eigenvalues --   -0.50530  -0.50337  -0.50229  -0.50154  -0.50085
 Alpha  occ. eigenvalues --   -0.49935  -0.49756  -0.49110  -0.49038  -0.48859
 Alpha  occ. eigenvalues --   -0.48502  -0.48291  -0.47825  -0.47669  -0.47306
 Alpha  occ. eigenvalues --   -0.46948  -0.46849  -0.46619  -0.46559  -0.46480
 Alpha  occ. eigenvalues --   -0.46413  -0.46351  -0.46162  -0.45922  -0.45771
 Alpha  occ. eigenvalues --   -0.45718  -0.45665  -0.45297  -0.45257  -0.45076
 Alpha  occ. eigenvalues --   -0.44851  -0.44558  -0.44471  -0.44296  -0.43842
 Alpha  occ. eigenvalues --   -0.43646  -0.43316  -0.43094  -0.43043  -0.42976
 Alpha  occ. eigenvalues --   -0.42872  -0.42636  -0.42591  -0.42433  -0.41862
 Alpha  occ. eigenvalues --   -0.41683  -0.41668  -0.41519  -0.41193  -0.40516
 Alpha  occ. eigenvalues --   -0.40409  -0.40242  -0.39893  -0.39618  -0.39457
 Alpha  occ. eigenvalues --   -0.39373  -0.39107  -0.38821  -0.38716  -0.38088
 Alpha  occ. eigenvalues --   -0.37717  -0.37369  -0.37197  -0.36417  -0.36412
 Alpha  occ. eigenvalues --   -0.36126  -0.35942  -0.35484  -0.33823  -0.33093
 Alpha  occ. eigenvalues --   -0.32780  -0.32134  -0.31746  -0.31607  -0.25995
 Alpha  occ. eigenvalues --   -0.23381
 Alpha virt. eigenvalues --   -0.07185   0.00263   0.01960   0.04399   0.06075
 Alpha virt. eigenvalues --    0.06902   0.07296   0.07672   0.08535   0.08748
 Alpha virt. eigenvalues --    0.09972   0.11302   0.12283   0.12513   0.12761

 Mulliken charges:
               1
     1  Mg   0.958532
     2  C   -0.021858
     3  C   -0.085151
     4  C   -0.035161
     5  C   -0.090819
     6  N   -0.284833
     7  C   -0.056857
     8  C   -0.131257
     9  C   -0.132890
    10  C    0.057516
    11  C    0.050176
    12  C    0.050802
    13  C    0.048844
    14  C    0.187655
    15  O   -0.260286
    16  O   -0.361076
    17  N   -0.465410
    18  C    0.167800
    19  C   -0.168682
    20  C   -0.095002
    21  C    0.126148
    22  C    0.077516
    23  C    0.092492
    24  O   -0.266021
    25  C   -0.023350
    26  N   -0.311541
    27  C    0.050419
    28  C   -0.130435
    29  C   -0.092696
    30  C    0.012546
    31  C    0.049373
    32  C    0.039270
    33  C   -0.075326
    34  N   -0.460659
    35  C    0.154402
    36  C   -0.172715
    37  C   -0.006379
    38  C    0.148944
    39  C    0.081974
    40  C    0.061277
    41  O   -0.211325
    42  C   -0.029615
    43  C    0.240445
    44  O   -0.247938
    45  O   -0.343129
    46  C    0.106716
    47  C    0.274083
    48  C   -0.179854
    49  C   -0.222172
    50  C    0.003148
    51  C    0.060535
    52  C   -0.015793
    53  C   -0.000438
    54  C   -0.182583
    55  C   -0.020246
    56  C    0.035286
    57  C   -0.044326
    58  C   -0.015770
    59  C   -0.158577
    60  C   -0.011311
    61  C    0.067550
    62  C   -0.057983
    63  C    0.002726
    64  C   -0.197012
    65  C    0.015983
    66  C   -0.029465
    67  H    0.001292
    68  H    0.031550
    69  H   -0.007295
    70  H    0.032956
    71  H    0.025071
    72  H    0.053684
    73  H    0.032531
    74  H    0.039532
    75  H    0.024916
    76  H    0.075196
    77  H    0.054306
    78  H    0.050653
    79  H    0.058200
    80  H    0.032806
    81  H    0.056875
    82  H    0.056350
    83  H    0.052542
    84  H    0.058624
    85  H    0.043971
    86  H    0.042672
    87  H    0.036397
    88  H    0.023019
    89  H    0.063607
    90  H    0.044549
    91  H    0.035818
    92  H    0.034086
    93  H    0.027494
    94  H    0.027012
    95  H    0.054274
    96  H    0.044665
    97  H    0.044757
    98  H    0.078987
    99  H    0.072650
   100  H    0.063355
   101  H    0.054267
   102  H    0.060611
   103  H    0.044504
   104  H    0.026956
   105  H    0.036856
   106  H    0.059027
   107  H    0.041840
   108  H    0.017231
   109  H    0.029810
   110  H    0.020661
   111  H    0.016142
   112  H    0.011408
   113  H    0.021151
   114  H    0.009668
   115  H    0.024744
   116  H    0.033398
   117  H    0.024037
   118  H    0.025804
   119  H    0.014176
   120  H    0.026056
   121  H    0.020990
   122  H    0.020023
   123  H    0.011833
   124  H    0.022366
   125  H    0.019551
   126  H    0.011398
   127  H    0.025389
   128  H    0.016894
   129  H    0.016576
   130  H    0.015840
   131  H    0.014330
   132  H    0.021222
   133  H    0.008295
   134  H    0.022039
   135  H    0.028002
   136  H    0.026133
   137  H    0.031888
   138  H    0.026539
   139  H    0.017574
   140  H    0.031452
 Sum of Mulliken charges =  -0.00000

 Dipole moment (field-independent basis, Debye):
    X=              4.1574    Y=              5.2221    Z=             -0.6220  Tot=              6.7038
 Quadrupole moment (field-independent basis, Debye-Ang):
   XX=           -371.6454   YY=           -432.9331   ZZ=           -405.0653
   XY=            -16.5551   XZ=              2.2885   YZ=              6.9890

 Normal termination of Gaussian 16 at Wed Apr 27 03:00:53 2022.
