 Gaussian 16, Revision A.03,
 Gaussian 16:  ES64L-G16RevA.03 25-Dec-2016

 --------------------
 #p ZINDO=(nstates=5)
 --------------------

 ------------------------------
 step_1051_chromophore_15 ZINDO
 ------------------------------
 Symbolic Z-matrix:
 Charge =  0 Multiplicity = 1

                         Standard orientation:
 ---------------------------------------------------------------------
 Center     Atomic      Atomic             Coordinates (Angstroms)
 Number     Number       Type             X           Y           Z
 ---------------------------------------------------------------------
      1         12           0       -4.902823    0.977693   -0.040921
      2          6           0       -3.971793   -2.343964    0.365870
      3          6           0       -1.459402    1.787166   -0.074499
      4          6           0       -5.816024    4.181276    0.102744
      5          6           0       -8.230805    0.020039    0.491823
      6          7           0       -2.948752   -0.200635   -0.077020
      7          6           0       -2.893692   -1.525375    0.153311
      8          6           0       -1.427201   -1.984336   -0.101175
      9          6           0       -0.670822   -0.648564    0.267809
     10          6           0       -1.758571    0.396647   -0.079771
     11          6           0       -0.263323   -0.671080    1.767295
     12          6           0       -1.289858   -2.563060   -1.562817
     13          6           0       -0.507315   -3.850356   -1.750910
     14          6           0        0.590711   -4.118153   -0.751059
     15          8           0        0.585398   -4.920561    0.177844
     16          8           0        1.639104   -3.282544   -1.038141
     17          7           0       -3.759215    2.749560   -0.091158
     18          6           0       -2.372991    2.870941   -0.107985
     19          6           0       -2.081695    4.312784   -0.201576
     20          6           0       -3.334769    4.961169   -0.213481
     21          6           0       -4.377398    3.949047   -0.043752
     22          6           0       -0.689783    4.928013   -0.281131
     23          6           0       -3.617246    6.474886   -0.406513
     24          8           0       -4.789583    6.943228   -0.393941
     25          6           0       -2.595655    7.377810   -1.048452
     26          7           0       -6.825387    1.989707    0.300510
     27          6           0       -6.896345    3.301000    0.362322
     28          6           0       -8.303809    3.750092    0.668918
     29          6           0       -9.169514    2.406621    0.525151
     30          6           0       -8.016842    1.375251    0.419124
     31          6           0       -8.436391    4.378740    2.119654
     32          6           0       -9.915402    2.317780   -0.786946
     33          6           0      -11.348874    1.895825   -0.602025
     34          7           0       -5.889099   -0.750268    0.314565
     35          6           0       -7.237153   -0.994060    0.577176
     36          6           0       -7.477382   -2.355729    0.900165
     37          6           0       -6.187339   -2.920343    0.851384
     38          6           0       -5.295478   -1.942478    0.354026
     39          6           0       -8.841162   -2.928812    1.182644
     40          6           0       -5.463118   -4.094245    1.009205
     41          8           0       -5.849909   -5.168594    1.433550
     42          6           0       -3.959898   -3.859142    0.758595
     43          6           0       -3.501353   -4.817231   -0.219927
     44          8           0       -3.605820   -4.732598   -1.419123
     45          8           0       -2.902713   -5.869360    0.421723
     46          6           0       -2.333851   -6.888441   -0.362932
     47          6           0        2.708536   -3.197978   -0.119878
     48          6           0        3.961421   -3.293547   -0.911326
     49          6           0        5.244490   -3.445685   -0.455398
     50          6           0        5.523293   -3.600257    1.028546
     51          6           0        6.514361   -3.316922   -1.301184
     52          6           0        7.125464   -1.921892   -1.337610
     53          6           0        6.938596   -1.200908   -2.668312
     54          6           0        7.187499    0.348155   -2.597587
     55          6           0        6.150027    1.050563   -3.470187
     56          6           0        8.613783    0.851939   -3.017800
     57          6           0        9.332127    1.799307   -1.977128
     58          6           0       10.871641    1.448569   -1.660483
     59          6           0       11.465663    2.458297   -0.697440
     60          6           0       11.838798    3.632503   -1.600049
     61          6           0       12.667116    1.830024    0.000826
     62          6           0       12.704902    2.175133    1.476115
     63          6           0       12.767666    0.968383    2.375101
     64          6           0       12.532545    1.272678    3.913485
     65          6           0       13.580796    0.656001    4.819953
     66          6           0       11.219654    0.676849    4.336967
     67          1           0       -0.393365    2.021607   -0.092606
     68          1           0       -6.050658    5.218468    0.351294
     69          1           0       -9.294026   -0.223795    0.555546
     70          1           0       -1.271857   -2.738318    0.670424
     71          1           0        0.193451   -0.535653   -0.386372
     72          1           0       -0.886382   -1.407120    2.275712
     73          1           0       -0.378731    0.298439    2.250688
     74          1           0        0.812783   -0.846206    1.752556
     75          1           0       -0.750384   -1.788859   -2.107803
     76          1           0       -2.262054   -2.719168   -2.029548
     77          1           0       -0.043861   -3.662888   -2.718970
     78          1           0       -1.134995   -4.739472   -1.681083
     79          1           0       -0.403591    5.203614   -1.296783
     80          1           0        0.054750    4.174837   -0.025107
     81          1           0       -0.661591    5.781023    0.396386
     82          1           0       -1.995491    7.886603   -0.293591
     83          1           0       -3.071186    8.221949   -1.548755
     84          1           0       -2.047857    6.878064   -1.847962
     85          1           0       -8.575795    4.576164    0.011085
     86          1           0       -9.805957    2.077695    1.347439
     87          1           0       -7.428093    4.330409    2.530683
     88          1           0       -8.937622    3.563292    2.642256
     89          1           0       -8.906969    5.360950    2.088612
     90          1           0       -9.465699    1.526262   -1.387522
     91          1           0       -9.867330    3.264236   -1.325777
     92          1           0      -11.577217    0.836536   -0.481075
     93          1           0      -12.009526    2.132624   -1.436296
     94          1           0      -11.798501    2.424568    0.237929
     95          1           0       -9.471216   -2.955423    0.293648
     96          1           0       -9.273244   -2.449747    2.061422
     97          1           0       -8.816130   -3.970222    1.502282
     98          1           0       -3.294440   -3.977971    1.613813
     99          1           0       -1.340980   -6.754079    0.067376
    100          1           0       -2.396885   -6.747478   -1.441416
    101          1           0       -2.801233   -7.850872   -0.156115
    102          1           0        2.821614   -3.996970    0.612815
    103          1           0        2.547832   -2.232683    0.359982
    104          1           0        3.778513   -3.292610   -1.986362
    105          1           0        6.569224   -3.458392    1.298869
    106          1           0        5.242308   -4.619789    1.293473
    107          1           0        4.901321   -2.935187    1.627750
    108          1           0        6.105564   -3.494819   -2.295210
    109          1           0        7.258546   -4.067821   -1.033511
    110          1           0        8.189773   -1.924432   -1.100831
    111          1           0        6.623258   -1.420355   -0.510818
    112          1           0        5.931724   -1.416534   -3.027436
    113          1           0        7.626353   -1.601828   -3.413168
    114          1           0        6.952570    0.618637   -1.567665
    115          1           0        5.139058    0.906139   -3.090138
    116          1           0        6.233550    0.635161   -4.474325
    117          1           0        6.258270    2.135326   -3.484586
    118          1           0        8.469018    1.376355   -3.963111
    119          1           0        9.227076   -0.048091   -3.042943
    120          1           0        8.725794    1.875711   -1.074969
    121          1           0        9.245077    2.714905   -2.561608
    122          1           0       11.508876    1.416410   -2.543843
    123          1           0       10.942246    0.444652   -1.241652
    124          1           0       10.681321    2.810678   -0.026504
    125          1           0       12.861162    3.610074   -1.977957
    126          1           0       11.832054    4.584816   -1.070042
    127          1           0       11.207887    3.863512   -2.458569
    128          1           0       13.627071    2.184660   -0.374199
    129          1           0       12.651929    0.748739   -0.139860
    130          1           0       11.859366    2.768699    1.825165
    131          1           0       13.602560    2.775142    1.622135
    132          1           0       13.730767    0.481474    2.224615
    133          1           0       11.876649    0.414887    2.079226
    134          1           0       12.388441    2.351803    3.960812
    135          1           0       13.936081    1.443024    5.485546
    136          1           0       14.475279    0.314475    4.298870
    137          1           0       13.126132   -0.128682    5.424035
    138          1           0       11.192567   -0.404004    4.200305
    139          1           0       10.368118    1.032130    3.757724
    140          1           0       11.035171    0.891707    5.389830
 ---------------------------------------------------------------------

 SCF Done:  E(RZINDO/S) =  -474.760953222     A.U. after   20 cycles

 Excitation energies and oscillator strengths:

 Excited State   1:      Singlet-A      1.2979 eV  955.24 nm  f=0.5903  <S**2>=0.000
     175 ->178         0.18493
     176 ->177         0.66505
 This state for optimization and/or second-order correction.
 Total Energy, E(CIS/TDA) =  -474.713254732
 Copying the excited state density for this state as the 1-particle RhoCI density.

 Excited State   2:      Singlet-A      1.9466 eV  636.91 nm  f=0.0671  <S**2>=0.000
     175 ->177         0.55929
     176 ->178        -0.40253

 Excited State   3:      Singlet-A      2.7294 eV  454.25 nm  f=0.0014  <S**2>=0.000
     167 ->177         0.13471
     167 ->179        -0.25950
     167 ->180         0.10677
     168 ->177         0.27102
     168 ->179        -0.47084
     168 ->180         0.18692
     168 ->183        -0.10086
     168 ->186         0.11050

 Excited State   4:      Singlet-A      2.8615 eV  433.29 nm  f=0.0025  <S**2>=0.000
     171 ->177         0.33194
     171 ->178        -0.19583
     171 ->179         0.20299
     171 ->180         0.41247
     171 ->186        -0.16951
     171 ->187         0.12746
     171 ->189        -0.11750

 Excited State   5:      Singlet-A      3.0113 eV  411.73 nm  f=0.8263  <S**2>=0.000
     175 ->177         0.32939
     176 ->178         0.50140
     176 ->179        -0.22286
     176 ->180        -0.22789

 The electronic state is 1-A.
 Alpha  occ. eigenvalues --   -1.86249  -1.82601  -1.80768  -1.75790  -1.75099
 Alpha  occ. eigenvalues --   -1.72243  -1.66288  -1.62236  -1.60059  -1.57408
 Alpha  occ. eigenvalues --   -1.57081  -1.52677  -1.49646  -1.48593  -1.48070
 Alpha  occ. eigenvalues --   -1.44968  -1.42775  -1.40215  -1.39450  -1.38559
 Alpha  occ. eigenvalues --   -1.36960  -1.35060  -1.32963  -1.32794  -1.28893
 Alpha  occ. eigenvalues --   -1.27712  -1.24598  -1.21477  -1.20508  -1.19134
 Alpha  occ. eigenvalues --   -1.18548  -1.14873  -1.14609  -1.13886  -1.13444
 Alpha  occ. eigenvalues --   -1.12512  -1.11043  -1.11016  -1.05368  -1.03493
 Alpha  occ. eigenvalues --   -1.02980  -1.01809  -0.98591  -0.97901  -0.96841
 Alpha  occ. eigenvalues --   -0.95523  -0.94664  -0.93734  -0.93190  -0.92411
 Alpha  occ. eigenvalues --   -0.90643  -0.90016  -0.89186  -0.88441  -0.87363
 Alpha  occ. eigenvalues --   -0.86004  -0.85120  -0.83675  -0.82037  -0.80523
 Alpha  occ. eigenvalues --   -0.79856  -0.79175  -0.78109  -0.77249  -0.76736
 Alpha  occ. eigenvalues --   -0.76530  -0.75482  -0.75120  -0.73953  -0.73357
 Alpha  occ. eigenvalues --   -0.73031  -0.72735  -0.72454  -0.71880  -0.71125
 Alpha  occ. eigenvalues --   -0.70600  -0.70171  -0.69266  -0.68506  -0.68092
 Alpha  occ. eigenvalues --   -0.67750  -0.67464  -0.66962  -0.66794  -0.66302
 Alpha  occ. eigenvalues --   -0.65898  -0.65581  -0.64688  -0.63927  -0.63766
 Alpha  occ. eigenvalues --   -0.63485  -0.63182  -0.62877  -0.62492  -0.62000
 Alpha  occ. eigenvalues --   -0.61835  -0.61579  -0.61282  -0.60698  -0.59766
 Alpha  occ. eigenvalues --   -0.59268  -0.59003  -0.58682  -0.58086  -0.57826
 Alpha  occ. eigenvalues --   -0.57664  -0.57287  -0.57044  -0.56661  -0.56173
 Alpha  occ. eigenvalues --   -0.56025  -0.55187  -0.55030  -0.54547  -0.54397
 Alpha  occ. eigenvalues --   -0.53659  -0.53614  -0.53181  -0.52652  -0.52455
 Alpha  occ. eigenvalues --   -0.52240  -0.52095  -0.51889  -0.51670  -0.51322
 Alpha  occ. eigenvalues --   -0.51029  -0.50644  -0.50568  -0.50265  -0.49935
 Alpha  occ. eigenvalues --   -0.49739  -0.49561  -0.49472  -0.48750  -0.48529
 Alpha  occ. eigenvalues --   -0.48396  -0.48281  -0.47698  -0.47648  -0.47511
 Alpha  occ. eigenvalues --   -0.47239  -0.47168  -0.46792  -0.46650  -0.46248
 Alpha  occ. eigenvalues --   -0.46099  -0.46085  -0.45546  -0.45485  -0.45331
 Alpha  occ. eigenvalues --   -0.44968  -0.44726  -0.44532  -0.44488  -0.44184
 Alpha  occ. eigenvalues --   -0.44012  -0.43901  -0.43355  -0.42212  -0.41859
 Alpha  occ. eigenvalues --   -0.41555  -0.41165  -0.40083  -0.38880  -0.38590
 Alpha  occ. eigenvalues --   -0.37599  -0.36469  -0.35694  -0.34865  -0.34075
 Alpha  occ. eigenvalues --   -0.33572  -0.32444  -0.31909  -0.31575  -0.26579
 Alpha  occ. eigenvalues --   -0.21972
 Alpha virt. eigenvalues --   -0.08529  -0.01953  -0.00884   0.01186   0.02138
 Alpha virt. eigenvalues --    0.02358   0.03020   0.03573   0.04444   0.04573
 Alpha virt. eigenvalues --    0.06355   0.06698   0.07294   0.07815   0.08145

 Mulliken charges:
               1
     1  Mg   0.425181
     2  C   -0.032890
     3  C   -0.077682
     4  C   -0.102967
     5  C   -0.076520
     6  N   -0.262953
     7  C    0.096759
     8  C   -0.010415
     9  C    0.002806
    10  C    0.147809
    11  C   -0.047037
    12  C   -0.011578
    13  C    0.004596
    14  C    0.468092
    15  O   -0.527469
    16  O   -0.274231
    17  N   -0.326817
    18  C    0.113727
    19  C    0.020503
    20  C   -0.032418
    21  C    0.161788
    22  C   -0.040387
    23  C    0.315718
    24  O   -0.522898
    25  C   -0.027815
    26  N   -0.272325
    27  C    0.178859
    28  C    0.000795
    29  C   -0.004340
    30  C    0.109481
    31  C   -0.063228
    32  C   -0.017734
    33  C   -0.058073
    34  N   -0.315336
    35  C    0.079732
    36  C    0.015449
    37  C   -0.048753
    38  C    0.103737
    39  C   -0.037651
    40  C    0.338670
    41  O   -0.540553
    42  C    0.052111
    43  C    0.501308
    44  O   -0.540945
    45  O   -0.263963
    46  C    0.070191
    47  C    0.112334
    48  C   -0.091001
    49  C   -0.017304
    50  C   -0.046935
    51  C   -0.019053
    52  C   -0.025131
    53  C   -0.030110
    54  C   -0.020078
    55  C   -0.054299
    56  C   -0.043318
    57  C   -0.051667
    58  C   -0.031705
    59  C   -0.001215
    60  C   -0.057304
    61  C   -0.029135
    62  C   -0.035417
    63  C   -0.043222
    64  C   -0.015303
    65  C   -0.051601
    66  C   -0.049170
    67  H    0.029279
    68  H    0.042776
    69  H    0.024989
    70  H    0.029774
    71  H    0.026006
    72  H    0.036751
    73  H    0.019212
    74  H    0.023468
    75  H    0.017241
    76  H    0.045226
    77  H    0.039503
    78  H    0.054972
    79  H    0.035842
    80  H    0.023120
    81  H    0.034027
    82  H    0.041256
    83  H    0.032662
    84  H    0.034705
    85  H    0.035161
    86  H    0.042782
    87  H    0.026261
    88  H    0.024704
    89  H    0.041031
    90  H    0.025832
    91  H    0.024013
    92  H    0.022057
    93  H    0.008559
    94  H    0.011340
    95  H    0.035047
    96  H    0.028231
    97  H    0.022617
    98  H    0.058723
    99  H    0.045758
   100  H    0.047231
   101  H    0.037824
   102  H    0.061405
   103  H    0.040490
   104  H    0.029197
   105  H    0.020336
   106  H    0.029164
   107  H    0.021607
   108  H    0.015912
   109  H    0.027594
   110  H    0.017311
   111  H    0.019164
   112  H    0.020049
   113  H    0.018271
   114  H    0.016363
   115  H    0.008531
   116  H    0.020017
   117  H    0.011904
   118  H    0.030243
   119  H    0.019607
   120  H    0.028767
   121  H    0.019341
   122  H    0.022833
   123  H    0.011249
   124  H    0.028326
   125  H    0.016255
   126  H    0.000502
   127  H    0.018509
   128  H    0.019608
   129  H    0.020291
   130  H    0.018649
   131  H    0.009698
   132  H    0.025848
   133  H    0.021070
   134  H    0.025304
   135  H    0.011536
   136  H    0.020100
   137  H    0.025834
   138  H    0.014985
   139  H    0.005524
   140  H    0.010925
 Sum of Mulliken charges =  -0.00000

 Dipole moment (field-independent basis, Debye):
    X=              7.0953    Y=              7.6298    Z=             -0.3237  Tot=             10.4241
 N-N= 4.362290332697D+03 E-N= 0.000000000000D+00  KE=-9.399389244119D+03
 Leave Link  601 at Wed Apr 27 03:14:21 2022, MaxMem=  6710886400 cpu:               2.8 elap:               0.2
 (Enter /sw/apps/gaussian-16.0/g16/l9999.exe)
 1\1\GINC-BP1-COMPUTE159\SP\RZINDO CIS\STO-3G\C55H74Mg1N4O6\OF15641\27-
 Apr-2022\0\\#p ZINDO=(nstates=5)\\step_1051_chromophore_15 ZINDO\\0,1\
 Mg,0,47.188,34.503,28.188\C,0,45.56,32.963,30.842\C,0,47.342,37.429,30
 .17\C,0,48.26,36.101,25.465\C,0,46.51,31.67,26.241\N,0,46.698,35.037,3
 0.352\C,0,46.001,34.22,31.163\C,0,45.999,34.86,32.583\C,0,46.102,36.38
 3,32.18\C,0,46.858,36.268,30.834\C,0,44.678,36.994,32.062\C,0,47.143,3
 4.222,33.463\C,0,46.813,33.837,34.894\C,0,45.731,34.642,35.571\O,0,44.

 Normal termination of Gaussian 16 at Wed Apr 27 03:14:21 2022.
