 Gaussian 16, Revision A.03,
 Gaussian 16:  ES64L-G16RevA.03 25-Dec-2016

 ------------------------------
 #p blyp/Def2SVP td=(nstates=5)
 ------------------------------

 -------------------------------------------------
 step_51_chromophore_17 TDDFT with blyp functional
 -------------------------------------------------
 Symbolic Z-matrix:
 Charge =  0 Multiplicity = 1

                         Standard orientation:
 ---------------------------------------------------------------------
 Center     Atomic      Atomic             Coordinates (Angstroms)
 Number     Number       Type             X           Y           Z
 ---------------------------------------------------------------------
      1         12           0        4.479196    1.284325   -0.489022
      2          6           0        4.059027   -2.277563   -0.457908
      3          6           0        1.932166    1.260529   -2.949603
      4          6           0        4.091501    4.483334    0.101843
      5          6           0        6.569466    0.980062    2.341288
      6          7           0        3.028239   -0.313986   -1.433717
      7          6           0        3.040905   -1.642284   -1.237643
      8          6           0        1.990689   -2.314410   -2.071489
      9          6           0        1.680331   -1.254575   -3.193352
     10          6           0        2.323810   -0.005893   -2.552870
     11          6           0        2.270015   -1.516115   -4.624151
     12          6           0        0.882134   -2.865085   -1.108367
     13          6           0        0.594528   -4.354920   -1.365795
     14          6           0       -0.916903   -4.784041   -1.588294
     15          8           0       -1.369938   -5.432538   -2.476798
     16          8           0       -1.700555   -4.306837   -0.510237
     17          7           0        3.303403    2.723017   -1.473166
     18          6           0        2.255073    2.508852   -2.377029
     19          6           0        1.783726    3.829725   -2.739508
     20          6           0        2.308637    4.813748   -1.801584
     21          6           0        3.293163    4.040162   -1.001756
     22          6           0        0.731156    4.072290   -3.880406
     23          6           0        1.987417    6.254550   -1.833033
     24          8           0        1.214031    6.713411   -2.656248
     25          6           0        2.481779    7.297241   -0.797474
     26          7           0        5.129284    2.522621    1.064969
     27          6           0        4.853329    3.821930    1.030550
     28          6           0        5.595578    4.598927    2.188777
     29          6           0        6.316617    3.389742    2.970337
     30          6           0        6.000388    2.224001    2.115132
     31          6           0        6.570908    5.674330    1.602454
     32          6           0        5.808296    3.141112    4.432974
     33          6           0        6.811792    3.410701    5.549410
     34          7           0        5.297915   -0.323671    0.680200
     35          6           0        6.225304   -0.266741    1.715470
     36          6           0        6.501693   -1.619601    2.099608
     37          6           0        5.768659   -2.416860    1.202620
     38          6           0        4.988832   -1.561907    0.435974
     39          6           0        7.436977   -2.026867    3.236160
     40          6           0        5.587432   -3.803971    0.881355
     41          8           0        6.148085   -4.828844    1.282349
     42          6           0        4.404242   -3.795520   -0.253412
     43          6           0        4.775910   -4.384076   -1.500004
     44          8           0        5.568737   -3.950526   -2.341858
     45          8           0        4.176598   -5.620639   -1.666355
     46          6           0        4.597123   -6.361147   -2.880425
     47          6           0       -3.146432   -4.717434   -0.752874
     48          6           0       -4.060092   -3.995608    0.234302
     49          6           0       -5.363266   -4.310051    0.448920
     50          6           0       -6.100518   -5.492068   -0.216552
     51          6           0       -6.256672   -3.220342    1.131716
     52          6           0       -6.442617   -3.368978    2.709331
     53          6           0       -6.526714   -2.038957    3.462546
     54          6           0       -7.966083   -1.706370    3.927227
     55          6           0       -8.385472   -2.518748    5.133963
     56          6           0       -8.175441   -0.235815    4.283421
     57          6           0       -8.736056    0.634569    3.067016
     58          6           0       -7.629832    1.279149    2.206127
     59          6           0       -7.855795    1.305832    0.648660
     60          6           0       -6.865239    0.357776   -0.118477
     61          6           0       -7.865852    2.795234    0.179530
     62          6           0       -8.635595    2.901398   -1.163398
     63          6           0       -9.754072    3.861197   -1.186984
     64          6           0      -10.920334    3.382656   -2.099454
     65          6           0      -11.087698    4.187155   -3.463457
     66          6           0      -12.318137    3.312268   -1.377392
     67          1           0        1.193507    1.248324   -3.753138
     68          1           0        3.930695    5.540451    0.321826
     69          1           0        7.163460    0.864752    3.250620
     70          1           0        2.490275   -3.153717   -2.556342
     71          1           0        0.619344   -1.111944   -3.395007
     72          1           0        2.413874   -2.590465   -4.738319
     73          1           0        3.273375   -1.092646   -4.653710
     74          1           0        1.666449   -1.124912   -5.442396
     75          1           0       -0.036890   -2.308083   -1.292133
     76          1           0        1.136905   -2.710371   -0.060059
     77          1           0        1.074240   -4.975370   -0.608964
     78          1           0        1.078702   -4.722270   -2.270246
     79          1           0       -0.105912    4.632112   -3.463366
     80          1           0        0.462217    3.149619   -4.393275
     81          1           0        1.081769    4.745626   -4.662521
     82          1           0        2.337845    6.961622    0.230234
     83          1           0        1.930135    8.204718   -1.043087
     84          1           0        3.560985    7.331360   -0.940621
     85          1           0        4.832509    5.052892    2.822429
     86          1           0        7.380283    3.617370    2.908127
     87          1           0        6.364879    6.710045    1.872296
     88          1           0        6.670154    5.550172    0.523773
     89          1           0        7.580039    5.497213    1.974528
     90          1           0        5.378737    2.144493    4.540732
     91          1           0        4.981419    3.841980    4.551459
     92          1           0        6.814411    2.540650    6.206816
     93          1           0        6.552982    4.191842    6.264447
     94          1           0        7.830239    3.536488    5.182552
     95          1           0        7.767384   -3.059819    3.124863
     96          1           0        6.945067   -1.916225    4.202313
     97          1           0        8.373303   -1.469671    3.199992
     98          1           0        3.474609   -4.271913    0.059437
     99          1           0        5.669203   -6.533879   -2.973613
    100          1           0        4.287196   -5.923325   -3.830225
    101          1           0        4.134555   -7.342995   -2.775709
    102          1           0       -3.126281   -5.804012   -0.837501
    103          1           0       -3.426168   -4.249761   -1.696312
    104          1           0       -3.682088   -3.155298    0.815998
    105          1           0       -5.467593   -5.941996   -0.981537
    106          1           0       -7.044448   -5.143567   -0.634910
    107          1           0       -6.285975   -6.256517    0.538143
    108          1           0       -7.281184   -3.322727    0.773900
    109          1           0       -5.854879   -2.224923    0.939073
    110          1           0       -5.551672   -3.898474    3.049315
    111          1           0       -7.378836   -3.913763    2.830910
    112          1           0       -6.178182   -1.217563    2.835478
    113          1           0       -5.934272   -2.105735    4.375517
    114          1           0       -8.667439   -1.882593    3.111875
    115          1           0       -8.257061   -3.595065    5.017454
    116          1           0       -9.433358   -2.309811    5.351480
    117          1           0       -7.762878   -2.150811    5.949174
    118          1           0       -7.253660    0.278058    4.553096
    119          1           0       -8.916160   -0.203041    5.082477
    120          1           0       -9.296709    1.435479    3.547130
    121          1           0       -9.436659    0.103723    2.423346
    122          1           0       -6.671838    0.828107    2.465748
    123          1           0       -7.496389    2.302311    2.558165
    124          1           0       -8.826220    0.819659    0.548582
    125          1           0       -7.381085   -0.583849   -0.300862
    126          1           0       -5.951781    0.125156    0.429245
    127          1           0       -6.573232    0.831665   -1.056243
    128          1           0       -6.841704    3.133008    0.018142
    129          1           0       -8.311856    3.485164    0.896805
    130          1           0       -8.904071    1.916789   -1.546111
    131          1           0       -7.926153    3.221005   -1.926536
    132          1           0       -9.421710    4.848383   -1.507450
    133          1           0      -10.162007    4.121789   -0.210670
    134          1           0      -10.718065    2.366776   -2.440608
    135          1           0      -11.221811    3.464386   -4.268545
    136          1           0      -10.179600    4.775715   -3.590026
    137          1           0      -11.889138    4.925018   -3.488395
    138          1           0      -12.289966    3.467324   -0.299204
    139          1           0      -12.741890    2.315338   -1.498221
    140          1           0      -12.980513    4.105442   -1.722342
 ---------------------------------------------------------------------

 SCF Done:  E(RB-LYP) =  -3007.40249921     A.U. after   20 cycles

 Excitation energies and oscillator strengths:

 Excited State   1:      Singlet-A      1.6660 eV  744.22 nm  f=0.0010  <S**2>=0.000
     244 -> 247        0.69786
     245 -> 247        0.10405
 This state for optimization and/or second-order correction.
 Total Energy, E(TD-HF/TD-DFT) =  -3007.34127601
 Copying the excited state density for this state as the 1-particle RhoCI density.

 Excited State   2:      Singlet-A      1.8338 eV  676.12 nm  f=0.2939  <S**2>=0.000
     245 -> 248        0.19253
     246 -> 247        0.67958
     246 <- 247       -0.14612

 Excited State   3:      Singlet-A      1.9693 eV  629.58 nm  f=0.0844  <S**2>=0.000
     243 -> 247       -0.32521
     245 -> 247        0.57444
     246 -> 247        0.10265
     246 -> 248       -0.17742

 Excited State   4:      Singlet-A      2.0496 eV  604.92 nm  f=0.0262  <S**2>=0.000
     243 -> 247        0.61794
     245 -> 247        0.29050
     246 -> 248       -0.11133

 Excited State   5:      Singlet-A      2.0652 eV  600.35 nm  f=0.0015  <S**2>=0.000
     242 -> 247        0.69960

 The electronic state is 1-A.
 Alpha  occ. eigenvalues --  -46.28617 -18.81930 -18.81389 -18.77920 -18.76623
 Alpha  occ. eigenvalues --  -18.76061 -18.75027 -14.03684 -14.03545 -14.01730
 Alpha  occ. eigenvalues --  -14.01082 -10.04257 -10.03297 -10.00583  -9.99468
 Alpha  occ. eigenvalues --   -9.98034  -9.97403  -9.97180  -9.97036  -9.97014
 Alpha  occ. eigenvalues --   -9.96807  -9.96690  -9.96264  -9.95736  -9.95057
 Alpha  occ. eigenvalues --   -9.94973  -9.94921  -9.94669  -9.94664  -9.94382
 Alpha  occ. eigenvalues --   -9.94338  -9.94303  -9.93934  -9.93884  -9.93722
 Alpha  occ. eigenvalues --   -9.93415  -9.93340  -9.93337  -9.93140  -9.93097
 Alpha  occ. eigenvalues --   -9.93075  -9.93065  -9.92786  -9.92495  -9.92481
 Alpha  occ. eigenvalues --   -9.92311  -9.92170  -9.92082  -9.92058  -9.92056
 Alpha  occ. eigenvalues --   -9.92022  -9.91937  -9.91369  -9.91268  -9.91151
 Alpha  occ. eigenvalues --   -9.91149  -9.91146  -9.91066  -9.91052  -9.90942
 Alpha  occ. eigenvalues --   -9.90700  -9.90653  -9.90546  -9.90523  -9.90453
 Alpha  occ. eigenvalues --   -9.90390  -2.93071  -1.73477  -1.72997  -1.72755
 Alpha  occ. eigenvalues --   -0.97689  -0.96881  -0.91576  -0.91126  -0.89801
 Alpha  occ. eigenvalues --   -0.88439  -0.87514  -0.86841  -0.86441  -0.84159
 Alpha  occ. eigenvalues --   -0.74962  -0.73279  -0.73168  -0.72774  -0.72396
 Alpha  occ. eigenvalues --   -0.71897  -0.71810  -0.71277  -0.70219  -0.70054
 Alpha  occ. eigenvalues --   -0.69055  -0.68515  -0.68052  -0.67762  -0.67379
 Alpha  occ. eigenvalues --   -0.66345  -0.66073  -0.65154  -0.64667  -0.64296
 Alpha  occ. eigenvalues --   -0.63791  -0.62603  -0.62418  -0.61692  -0.60757
 Alpha  occ. eigenvalues --   -0.60318  -0.60002  -0.59632  -0.59438  -0.58605
 Alpha  occ. eigenvalues --   -0.58229  -0.57550  -0.56975  -0.55951  -0.55143
 Alpha  occ. eigenvalues --   -0.54507  -0.53613  -0.53315  -0.52290  -0.51944
 Alpha  occ. eigenvalues --   -0.51808  -0.51218  -0.50790  -0.50273  -0.49978
 Alpha  occ. eigenvalues --   -0.49235  -0.48942  -0.48437  -0.48257  -0.46634
 Alpha  occ. eigenvalues --   -0.46415  -0.46006  -0.45839  -0.45550  -0.44856
 Alpha  occ. eigenvalues --   -0.44290  -0.43141  -0.43032  -0.42596  -0.42395
 Alpha  occ. eigenvalues --   -0.42101  -0.41620  -0.41471  -0.41275  -0.40858
 Alpha  occ. eigenvalues --   -0.40758  -0.40632  -0.40477  -0.40110  -0.40070
 Alpha  occ. eigenvalues --   -0.39833  -0.39755  -0.39408  -0.39272  -0.38953
 Alpha  occ. eigenvalues --   -0.38758  -0.38598  -0.38551  -0.38402  -0.37920
 Alpha  occ. eigenvalues --   -0.37798  -0.37700  -0.37496  -0.37231  -0.36986
 Alpha  occ. eigenvalues --   -0.36941  -0.36838  -0.36603  -0.36510  -0.36357
 Alpha  occ. eigenvalues --   -0.36232  -0.36114  -0.35906  -0.35730  -0.35430
 Alpha  occ. eigenvalues --   -0.35374  -0.35228  -0.35141  -0.34974  -0.34695
 Alpha  occ. eigenvalues --   -0.34644  -0.34389  -0.34013  -0.33999  -0.33893
 Alpha  occ. eigenvalues --   -0.33748  -0.33647  -0.33466  -0.33412  -0.33240
 Alpha  occ. eigenvalues --   -0.33115  -0.33018  -0.33002  -0.32806  -0.32505
 Alpha  occ. eigenvalues --   -0.32177  -0.32143  -0.31987  -0.31891  -0.31546
 Alpha  occ. eigenvalues --   -0.31374  -0.31235  -0.31115  -0.31014  -0.30591
 Alpha  occ. eigenvalues --   -0.30503  -0.30360  -0.30295  -0.30123  -0.30079
 Alpha  occ. eigenvalues --   -0.29963  -0.29865  -0.29736  -0.29656  -0.29475
 Alpha  occ. eigenvalues --   -0.29086  -0.28592  -0.28550  -0.27963  -0.27931
 Alpha  occ. eigenvalues --   -0.27533  -0.27234  -0.27137  -0.26776  -0.26634
 Alpha  occ. eigenvalues --   -0.26601  -0.26399  -0.25962  -0.25817  -0.25389
 Alpha  occ. eigenvalues --   -0.25186  -0.24877  -0.24593  -0.24167  -0.23786
 Alpha  occ. eigenvalues --   -0.23382  -0.22785  -0.22325  -0.21337  -0.21003
 Alpha  occ. eigenvalues --   -0.20216  -0.19821  -0.19584  -0.18301  -0.17635
 Alpha  occ. eigenvalues --   -0.16589
 Alpha virt. eigenvalues --   -0.12235  -0.07144  -0.06449  -0.05029  -0.03728
 Alpha virt. eigenvalues --   -0.03135  -0.02730  -0.02092  -0.01900  -0.00083
 Alpha virt. eigenvalues --    0.01027   0.01622   0.02356   0.02713   0.02797

 Mulliken charges:
               1
     1  Mg   0.699136
     2  C   -0.038432
     3  C   -0.046165
     4  C   -0.012543
     5  C   -0.052775
     6  N   -0.159942
     7  C   -0.098200
     8  C    0.022648
     9  C   -0.033833
    10  C    0.017776
    11  C    0.125309
    12  C    0.164637
    13  C    0.101411
    14  C    0.069940
    15  O   -0.152502
    16  O   -0.322946
    17  N   -0.333252
    18  C    0.157102
    19  C   -0.134169
    20  C    0.072758
    21  C    0.123398
    22  C    0.181205
    23  C   -0.121083
    24  O   -0.173118
    25  C    0.125425
    26  N   -0.240347
    27  C    0.004906
    28  C   -0.006596
    29  C    0.055564
    30  C    0.016099
    31  C    0.125545
    32  C    0.098401
    33  C    0.067524
    34  N   -0.212702
    35  C    0.073428
    36  C   -0.161450
    37  C    0.073719
    38  C    0.063807
    39  C    0.162611
    40  C    0.004173
    41  O   -0.130887
    42  C    0.081467
    43  C    0.096485
    44  O   -0.204829
    45  O   -0.283620
    46  C    0.224791
    47  C    0.284215
    48  C   -0.070616
    49  C   -0.154964
    50  C    0.143174
    51  C    0.083644
    52  C    0.077755
    53  C    0.122625
    54  C   -0.066517
    55  C    0.107943
    56  C    0.090912
    57  C    0.060363
    58  C    0.095040
    59  C   -0.084032
    60  C    0.098455
    61  C    0.114051
    62  C    0.068873
    63  C    0.139993
    64  C   -0.112013
    65  C    0.086438
    66  C    0.090877
    67  H   -0.056873
    68  H   -0.095519
    69  H   -0.057693
    70  H   -0.014007
    71  H   -0.026184
    72  H   -0.006566
    73  H   -0.003641
    74  H    0.005069
    75  H   -0.015378
    76  H   -0.001381
    77  H    0.017716
    78  H   -0.014029
    79  H    0.009933
    80  H   -0.023839
    81  H   -0.001372
    82  H    0.011786
    83  H    0.002414
    84  H    0.008460
    85  H   -0.016334
    86  H   -0.020880
    87  H   -0.000219
    88  H   -0.000584
    89  H   -0.019191
    90  H   -0.003457
    91  H   -0.028323
    92  H   -0.017098
    93  H   -0.007089
    94  H   -0.005376
    95  H    0.001521
    96  H    0.005557
    97  H   -0.004694
    98  H   -0.013830
    99  H    0.016219
   100  H    0.008900
   101  H    0.008134
   102  H    0.023534
   103  H    0.010637
   104  H   -0.027873
   105  H   -0.010018
   106  H   -0.000894
   107  H    0.004500
   108  H   -0.028328
   109  H   -0.017375
   110  H   -0.029362
   111  H   -0.020792
   112  H   -0.036799
   113  H   -0.039701
   114  H   -0.051251
   115  H   -0.020076
   116  H   -0.012623
   117  H   -0.017642
   118  H   -0.030909
   119  H   -0.044157
   120  H   -0.036118
   121  H   -0.031194
   122  H   -0.044478
   123  H   -0.045344
   124  H   -0.034659
   125  H   -0.007891
   126  H    0.001143
   127  H   -0.019296
   128  H   -0.033183
   129  H   -0.026323
   130  H   -0.027010
   131  H   -0.042505
   132  H   -0.042900
   133  H   -0.043530
   134  H   -0.028453
   135  H   -0.008157
   136  H   -0.022565
   137  H   -0.013011
   138  H   -0.025738
   139  H   -0.012362
   140  H   -0.015538
 Sum of Mulliken charges =  -0.00000

 Dipole moment (field-independent basis, Debye):
    X=             -0.5425    Y=              2.3263    Z=              2.3002  Tot=              3.3162
 Quadrupole moment (field-independent basis, Debye-Ang):
   XX=           -396.3714   YY=           -430.1280   ZZ=           -398.6084
   XY=             41.6216   XZ=              9.9731   YZ=             26.3623

 Normal termination of Gaussian 16 at Thu May  5 03:58:56 2022.
