 Gaussian 16, Revision A.03,
 Gaussian 16:  ES64L-G16RevA.03 25-Dec-2016

 -----------------------------------
 #p cam-b3lyp/Def2SVP td=(nstates=5)
 -----------------------------------

 ------------------------------------------------------
 step_51_chromophore_17 TDDFT with cam-b3lyp functional
 ------------------------------------------------------
 Symbolic Z-matrix:
 Charge =  0 Multiplicity = 1

                         Standard orientation:
 ---------------------------------------------------------------------
 Center     Atomic      Atomic             Coordinates (Angstroms)
 Number     Number       Type             X           Y           Z
 ---------------------------------------------------------------------
      1         12           0        4.479196    1.284325   -0.489022
      2          6           0        4.059027   -2.277563   -0.457908
      3          6           0        1.932166    1.260529   -2.949603
      4          6           0        4.091501    4.483334    0.101843
      5          6           0        6.569466    0.980062    2.341288
      6          7           0        3.028239   -0.313986   -1.433717
      7          6           0        3.040905   -1.642284   -1.237643
      8          6           0        1.990689   -2.314410   -2.071489
      9          6           0        1.680331   -1.254575   -3.193352
     10          6           0        2.323810   -0.005893   -2.552870
     11          6           0        2.270015   -1.516115   -4.624151
     12          6           0        0.882134   -2.865085   -1.108367
     13          6           0        0.594528   -4.354920   -1.365795
     14          6           0       -0.916903   -4.784041   -1.588294
     15          8           0       -1.369938   -5.432538   -2.476798
     16          8           0       -1.700555   -4.306837   -0.510237
     17          7           0        3.303403    2.723017   -1.473166
     18          6           0        2.255073    2.508852   -2.377029
     19          6           0        1.783726    3.829725   -2.739508
     20          6           0        2.308637    4.813748   -1.801584
     21          6           0        3.293163    4.040162   -1.001756
     22          6           0        0.731156    4.072290   -3.880406
     23          6           0        1.987417    6.254550   -1.833033
     24          8           0        1.214031    6.713411   -2.656248
     25          6           0        2.481779    7.297241   -0.797474
     26          7           0        5.129284    2.522621    1.064969
     27          6           0        4.853329    3.821930    1.030550
     28          6           0        5.595578    4.598927    2.188777
     29          6           0        6.316617    3.389742    2.970337
     30          6           0        6.000388    2.224001    2.115132
     31          6           0        6.570908    5.674330    1.602454
     32          6           0        5.808296    3.141112    4.432974
     33          6           0        6.811792    3.410701    5.549410
     34          7           0        5.297915   -0.323671    0.680200
     35          6           0        6.225304   -0.266741    1.715470
     36          6           0        6.501693   -1.619601    2.099608
     37          6           0        5.768659   -2.416860    1.202620
     38          6           0        4.988832   -1.561907    0.435974
     39          6           0        7.436977   -2.026867    3.236160
     40          6           0        5.587432   -3.803971    0.881355
     41          8           0        6.148085   -4.828844    1.282349
     42          6           0        4.404242   -3.795520   -0.253412
     43          6           0        4.775910   -4.384076   -1.500004
     44          8           0        5.568737   -3.950526   -2.341858
     45          8           0        4.176598   -5.620639   -1.666355
     46          6           0        4.597123   -6.361147   -2.880425
     47          6           0       -3.146432   -4.717434   -0.752874
     48          6           0       -4.060092   -3.995608    0.234302
     49          6           0       -5.363266   -4.310051    0.448920
     50          6           0       -6.100518   -5.492068   -0.216552
     51          6           0       -6.256672   -3.220342    1.131716
     52          6           0       -6.442617   -3.368978    2.709331
     53          6           0       -6.526714   -2.038957    3.462546
     54          6           0       -7.966083   -1.706370    3.927227
     55          6           0       -8.385472   -2.518748    5.133963
     56          6           0       -8.175441   -0.235815    4.283421
     57          6           0       -8.736056    0.634569    3.067016
     58          6           0       -7.629832    1.279149    2.206127
     59          6           0       -7.855795    1.305832    0.648660
     60          6           0       -6.865239    0.357776   -0.118477
     61          6           0       -7.865852    2.795234    0.179530
     62          6           0       -8.635595    2.901398   -1.163398
     63          6           0       -9.754072    3.861197   -1.186984
     64          6           0      -10.920334    3.382656   -2.099454
     65          6           0      -11.087698    4.187155   -3.463457
     66          6           0      -12.318137    3.312268   -1.377392
     67          1           0        1.193507    1.248324   -3.753138
     68          1           0        3.930695    5.540451    0.321826
     69          1           0        7.163460    0.864752    3.250620
     70          1           0        2.490275   -3.153717   -2.556342
     71          1           0        0.619344   -1.111944   -3.395007
     72          1           0        2.413874   -2.590465   -4.738319
     73          1           0        3.273375   -1.092646   -4.653710
     74          1           0        1.666449   -1.124912   -5.442396
     75          1           0       -0.036890   -2.308083   -1.292133
     76          1           0        1.136905   -2.710371   -0.060059
     77          1           0        1.074240   -4.975370   -0.608964
     78          1           0        1.078702   -4.722270   -2.270246
     79          1           0       -0.105912    4.632112   -3.463366
     80          1           0        0.462217    3.149619   -4.393275
     81          1           0        1.081769    4.745626   -4.662521
     82          1           0        2.337845    6.961622    0.230234
     83          1           0        1.930135    8.204718   -1.043087
     84          1           0        3.560985    7.331360   -0.940621
     85          1           0        4.832509    5.052892    2.822429
     86          1           0        7.380283    3.617370    2.908127
     87          1           0        6.364879    6.710045    1.872296
     88          1           0        6.670154    5.550172    0.523773
     89          1           0        7.580039    5.497213    1.974528
     90          1           0        5.378737    2.144493    4.540732
     91          1           0        4.981419    3.841980    4.551459
     92          1           0        6.814411    2.540650    6.206816
     93          1           0        6.552982    4.191842    6.264447
     94          1           0        7.830239    3.536488    5.182552
     95          1           0        7.767384   -3.059819    3.124863
     96          1           0        6.945067   -1.916225    4.202313
     97          1           0        8.373303   -1.469671    3.199992
     98          1           0        3.474609   -4.271913    0.059437
     99          1           0        5.669203   -6.533879   -2.973613
    100          1           0        4.287196   -5.923325   -3.830225
    101          1           0        4.134555   -7.342995   -2.775709
    102          1           0       -3.126281   -5.804012   -0.837501
    103          1           0       -3.426168   -4.249761   -1.696312
    104          1           0       -3.682088   -3.155298    0.815998
    105          1           0       -5.467593   -5.941996   -0.981537
    106          1           0       -7.044448   -5.143567   -0.634910
    107          1           0       -6.285975   -6.256517    0.538143
    108          1           0       -7.281184   -3.322727    0.773900
    109          1           0       -5.854879   -2.224923    0.939073
    110          1           0       -5.551672   -3.898474    3.049315
    111          1           0       -7.378836   -3.913763    2.830910
    112          1           0       -6.178182   -1.217563    2.835478
    113          1           0       -5.934272   -2.105735    4.375517
    114          1           0       -8.667439   -1.882593    3.111875
    115          1           0       -8.257061   -3.595065    5.017454
    116          1           0       -9.433358   -2.309811    5.351480
    117          1           0       -7.762878   -2.150811    5.949174
    118          1           0       -7.253660    0.278058    4.553096
    119          1           0       -8.916160   -0.203041    5.082477
    120          1           0       -9.296709    1.435479    3.547130
    121          1           0       -9.436659    0.103723    2.423346
    122          1           0       -6.671838    0.828107    2.465748
    123          1           0       -7.496389    2.302311    2.558165
    124          1           0       -8.826220    0.819659    0.548582
    125          1           0       -7.381085   -0.583849   -0.300862
    126          1           0       -5.951781    0.125156    0.429245
    127          1           0       -6.573232    0.831665   -1.056243
    128          1           0       -6.841704    3.133008    0.018142
    129          1           0       -8.311856    3.485164    0.896805
    130          1           0       -8.904071    1.916789   -1.546111
    131          1           0       -7.926153    3.221005   -1.926536
    132          1           0       -9.421710    4.848383   -1.507450
    133          1           0      -10.162007    4.121789   -0.210670
    134          1           0      -10.718065    2.366776   -2.440608
    135          1           0      -11.221811    3.464386   -4.268545
    136          1           0      -10.179600    4.775715   -3.590026
    137          1           0      -11.889138    4.925018   -3.488395
    138          1           0      -12.289966    3.467324   -0.299204
    139          1           0      -12.741890    2.315338   -1.498221
    140          1           0      -12.980513    4.105442   -1.722342
 ---------------------------------------------------------------------

 SCF Done:  E(RCAM-B3LYP) =  -3007.18328474     A.U. after   18 cycles

 Excitation energies and oscillator strengths:

 Excited State   1:      Singlet-A      1.7282 eV  717.42 nm  f=0.3894  <S**2>=0.000
     245 -> 248       -0.17698
     246 -> 247        0.68629
     245 <- 248       -0.10635
 This state for optimization and/or second-order correction.
 Total Energy, E(TD-HF/TD-DFT) =  -3007.11977477
 Copying the excited state density for this state as the 1-particle RhoCI density.

 Excited State   2:      Singlet-A      2.1842 eV  567.65 nm  f=0.1564  <S**2>=0.000
     245 -> 247        0.65681
     246 -> 248        0.24521

 Excited State   3:      Singlet-A      3.1380 eV  395.11 nm  f=0.0054  <S**2>=0.000
     242 -> 247       -0.21315
     243 -> 247        0.65543

 Excited State   4:      Singlet-A      3.3754 eV  367.31 nm  f=0.0024  <S**2>=0.000
     240 -> 247        0.10362
     242 -> 247        0.62585
     243 -> 247        0.21649
     246 -> 248        0.13490

 Excited State   5:      Singlet-A      3.4339 eV  361.06 nm  f=0.0007  <S**2>=0.000
     241 -> 247        0.57929
     241 -> 248       -0.11756
     241 -> 249        0.25236
     241 -> 250        0.13339
     241 -> 251       -0.21453

 The electronic state is 1-A.
 Alpha  occ. eigenvalues --  -46.90261 -19.24968 -19.24168 -19.20970 -19.19475
 Alpha  occ. eigenvalues --  -19.19274 -19.18450 -14.42606 -14.42413 -14.40373
 Alpha  occ. eigenvalues --  -14.39268 -10.39597 -10.38851 -10.35861 -10.34848
 Alpha  occ. eigenvalues --  -10.32175 -10.32118 -10.31715 -10.31452 -10.31409
 Alpha  occ. eigenvalues --  -10.31367 -10.30992 -10.30911 -10.29834 -10.29510
 Alpha  occ. eigenvalues --  -10.29504 -10.29041 -10.28898 -10.28804 -10.28751
 Alpha  occ. eigenvalues --  -10.28360 -10.28150 -10.27921 -10.27853 -10.27792
 Alpha  occ. eigenvalues --  -10.27791 -10.27677 -10.27223 -10.27180 -10.27140
 Alpha  occ. eigenvalues --  -10.26929 -10.26847 -10.26608 -10.26210 -10.26202
 Alpha  occ. eigenvalues --  -10.26171 -10.26161 -10.25920 -10.25861 -10.25842
 Alpha  occ. eigenvalues --  -10.25825 -10.25806 -10.25062 -10.24952 -10.24840
 Alpha  occ. eigenvalues --  -10.24801 -10.24774 -10.24753 -10.24745 -10.24653
 Alpha  occ. eigenvalues --  -10.24339 -10.24243 -10.24169 -10.24156 -10.24153
 Alpha  occ. eigenvalues --  -10.24012  -3.18609  -1.93493  -1.93095  -1.92874
 Alpha  occ. eigenvalues --   -1.16210  -1.15494  -1.10209  -1.09213  -1.07550
 Alpha  occ. eigenvalues --   -1.06423  -1.05159  -1.04493  -1.03941  -1.01931
 Alpha  occ. eigenvalues --   -0.91983  -0.90144  -0.89820  -0.89550  -0.89172
 Alpha  occ. eigenvalues --   -0.88635  -0.88536  -0.87861  -0.86782  -0.86323
 Alpha  occ. eigenvalues --   -0.85455  -0.85364  -0.84207  -0.83987  -0.83582
 Alpha  occ. eigenvalues --   -0.82407  -0.82146  -0.81002  -0.80815  -0.80186
 Alpha  occ. eigenvalues --   -0.79516  -0.78064  -0.77956  -0.77467  -0.76159
 Alpha  occ. eigenvalues --   -0.75679  -0.75346  -0.74957  -0.74774  -0.73843
 Alpha  occ. eigenvalues --   -0.73234  -0.72551  -0.71871  -0.70800  -0.69639
 Alpha  occ. eigenvalues --   -0.69070  -0.68220  -0.68020  -0.66340  -0.66322
 Alpha  occ. eigenvalues --   -0.66017  -0.65287  -0.64818  -0.64420  -0.64060
 Alpha  occ. eigenvalues --   -0.63226  -0.62706  -0.62324  -0.61935  -0.60172
 Alpha  occ. eigenvalues --   -0.60016  -0.59489  -0.59298  -0.58907  -0.58377
 Alpha  occ. eigenvalues --   -0.57872  -0.56321  -0.56197  -0.55751  -0.55585
 Alpha  occ. eigenvalues --   -0.55440  -0.54519  -0.54350  -0.54224  -0.53859
 Alpha  occ. eigenvalues --   -0.53642  -0.53502  -0.53231  -0.52957  -0.52788
 Alpha  occ. eigenvalues --   -0.52460  -0.52350  -0.52170  -0.52067  -0.51525
 Alpha  occ. eigenvalues --   -0.51341  -0.51280  -0.51013  -0.50821  -0.50206
 Alpha  occ. eigenvalues --   -0.50120  -0.49935  -0.49862  -0.49511  -0.49421
 Alpha  occ. eigenvalues --   -0.49288  -0.49082  -0.48885  -0.48815  -0.48586
 Alpha  occ. eigenvalues --   -0.48500  -0.48399  -0.48241  -0.47854  -0.47737
 Alpha  occ. eigenvalues --   -0.47535  -0.47349  -0.47297  -0.46972  -0.46818
 Alpha  occ. eigenvalues --   -0.46540  -0.46181  -0.45739  -0.45720  -0.45688
 Alpha  occ. eigenvalues --   -0.45473  -0.45434  -0.45300  -0.45112  -0.44961
 Alpha  occ. eigenvalues --   -0.44874  -0.44712  -0.44605  -0.44408  -0.44303
 Alpha  occ. eigenvalues --   -0.43923  -0.43695  -0.43522  -0.43447  -0.43117
 Alpha  occ. eigenvalues --   -0.42875  -0.42717  -0.42593  -0.42499  -0.42244
 Alpha  occ. eigenvalues --   -0.42084  -0.41893  -0.41836  -0.41482  -0.41368
 Alpha  occ. eigenvalues --   -0.41248  -0.41082  -0.41027  -0.40877  -0.40609
 Alpha  occ. eigenvalues --   -0.40191  -0.39687  -0.39519  -0.38940  -0.38861
 Alpha  occ. eigenvalues --   -0.38443  -0.38103  -0.37975  -0.37623  -0.37452
 Alpha  occ. eigenvalues --   -0.37443  -0.37330  -0.37084  -0.36882  -0.36503
 Alpha  occ. eigenvalues --   -0.36437  -0.35803  -0.35155  -0.34854  -0.34344
 Alpha  occ. eigenvalues --   -0.33985  -0.33755  -0.33521  -0.31578  -0.31208
 Alpha  occ. eigenvalues --   -0.30816  -0.29989  -0.29826  -0.29398  -0.24390
 Alpha  occ. eigenvalues --   -0.22006
 Alpha virt. eigenvalues --   -0.09509  -0.01921   0.00072   0.01189   0.02064
 Alpha virt. eigenvalues --    0.04260   0.05003   0.05258   0.05445   0.06761
 Alpha virt. eigenvalues --    0.07781   0.08428   0.08591   0.08931   0.08964

 Mulliken charges:
               1
     1  Mg   0.827067
     2  C   -0.049554
     3  C   -0.056572
     4  C   -0.045873
     5  C   -0.057327
     6  N   -0.222853
     7  C   -0.059822
     8  C   -0.028919
     9  C   -0.087669
    10  C    0.032976
    11  C    0.071467
    12  C    0.109227
    13  C    0.037777
    14  C    0.149337
    15  O   -0.193945
    16  O   -0.386273
    17  N   -0.419686
    18  C    0.163153
    19  C   -0.130092
    20  C   -0.004882
    21  C    0.164194
    22  C    0.128154
    23  C   -0.045535
    24  O   -0.213330
    25  C    0.048580
    26  N   -0.317174
    27  C    0.035141
    28  C   -0.056001
    29  C   -0.001458
    30  C    0.033185
    31  C    0.063048
    32  C    0.041759
    33  C    0.004285
    34  N   -0.301929
    35  C    0.075329
    36  C   -0.158431
    37  C   -0.014005
    38  C    0.099627
    39  C    0.110707
    40  C    0.101893
    41  O   -0.173610
    42  C   -0.001642
    43  C    0.189713
    44  O   -0.239998
    45  O   -0.347109
    46  C    0.184572
    47  C    0.250137
    48  C   -0.090778
    49  C   -0.178537
    50  C    0.083696
    51  C    0.034340
    52  C    0.025263
    53  C    0.070576
    54  C   -0.121084
    55  C    0.048441
    56  C    0.034346
    57  C    0.008331
    58  C    0.043114
    59  C   -0.139045
    60  C    0.044689
    61  C    0.060496
    62  C    0.013428
    63  C    0.082304
    64  C   -0.173576
    65  C    0.032495
    66  C    0.034851
    67  H   -0.021116
    68  H   -0.060727
    69  H   -0.024100
    70  H    0.015811
    71  H    0.009742
    72  H    0.017758
    73  H    0.021945
    74  H    0.028893
    75  H    0.016302
    76  H    0.031956
    77  H    0.047349
    78  H    0.018120
    79  H    0.038978
    80  H    0.002277
    81  H    0.028634
    82  H    0.038456
    83  H    0.038603
    84  H    0.033987
    85  H    0.017187
    86  H    0.013096
    87  H    0.024066
    88  H    0.025162
    89  H    0.006778
    90  H    0.027296
    91  H   -0.000378
    92  H    0.007101
    93  H    0.016958
    94  H    0.016611
    95  H    0.029147
    96  H    0.029544
    97  H    0.018752
    98  H    0.029219
    99  H    0.040841
   100  H    0.030568
   101  H    0.032740
   102  H    0.050294
   103  H    0.038825
   104  H    0.007887
   105  H    0.013198
   106  H    0.022684
   107  H    0.028635
   108  H   -0.001399
   109  H    0.006892
   110  H    0.001410
   111  H    0.004786
   112  H   -0.013505
   113  H   -0.009550
   114  H   -0.021031
   115  H    0.005222
   116  H    0.011693
   117  H    0.005664
   118  H   -0.002346
   119  H   -0.011415
   120  H   -0.006365
   121  H   -0.005146
   122  H   -0.018463
   123  H   -0.014324
   124  H   -0.003758
   125  H    0.014092
   126  H    0.020478
   127  H    0.004837
   128  H   -0.003643
   129  H    0.001952
   130  H   -0.000304
   131  H   -0.013270
   132  H   -0.012966
   133  H   -0.014256
   134  H    0.003332
   135  H    0.014992
   136  H    0.000236
   137  H    0.009518
   138  H   -0.001581
   139  H    0.011052
   140  H    0.007100
 Sum of Mulliken charges =  -0.00000

 Dipole moment (field-independent basis, Debye):
    X=             -0.9942    Y=              3.0908    Z=              1.8117  Tot=              3.7180
 Quadrupole moment (field-independent basis, Debye-Ang):
   XX=           -399.0665   YY=           -425.6279   ZZ=           -396.8335
   XY=             44.0162   XZ=              8.5453   YZ=             27.2831

 Normal termination of Gaussian 16 at Thu May  5 01:57:03 2022.
