 Gaussian 16, Revision A.03,
 Gaussian 16:  ES64L-G16RevA.03 25-Dec-2016

 ---------------------------------
 #p PBE1PBE/Def2SVP td=(nstates=5)
 ---------------------------------

 ----------------------------------------------------
 step_51_chromophore_17 TDDFT with PBE1PBE functional
 ----------------------------------------------------
 Symbolic Z-matrix:
 Charge =  0 Multiplicity = 1

                         Standard orientation:
 ---------------------------------------------------------------------
 Center     Atomic      Atomic             Coordinates (Angstroms)
 Number     Number       Type             X           Y           Z
 ---------------------------------------------------------------------
      1         12           0        4.479196    1.284325   -0.489022
      2          6           0        4.059027   -2.277563   -0.457908
      3          6           0        1.932166    1.260529   -2.949603
      4          6           0        4.091501    4.483334    0.101843
      5          6           0        6.569466    0.980062    2.341288
      6          7           0        3.028239   -0.313986   -1.433717
      7          6           0        3.040905   -1.642284   -1.237643
      8          6           0        1.990689   -2.314410   -2.071489
      9          6           0        1.680331   -1.254575   -3.193352
     10          6           0        2.323810   -0.005893   -2.552870
     11          6           0        2.270015   -1.516115   -4.624151
     12          6           0        0.882134   -2.865085   -1.108367
     13          6           0        0.594528   -4.354920   -1.365795
     14          6           0       -0.916903   -4.784041   -1.588294
     15          8           0       -1.369938   -5.432538   -2.476798
     16          8           0       -1.700555   -4.306837   -0.510237
     17          7           0        3.303403    2.723017   -1.473166
     18          6           0        2.255073    2.508852   -2.377029
     19          6           0        1.783726    3.829725   -2.739508
     20          6           0        2.308637    4.813748   -1.801584
     21          6           0        3.293163    4.040162   -1.001756
     22          6           0        0.731156    4.072290   -3.880406
     23          6           0        1.987417    6.254550   -1.833033
     24          8           0        1.214031    6.713411   -2.656248
     25          6           0        2.481779    7.297241   -0.797474
     26          7           0        5.129284    2.522621    1.064969
     27          6           0        4.853329    3.821930    1.030550
     28          6           0        5.595578    4.598927    2.188777
     29          6           0        6.316617    3.389742    2.970337
     30          6           0        6.000388    2.224001    2.115132
     31          6           0        6.570908    5.674330    1.602454
     32          6           0        5.808296    3.141112    4.432974
     33          6           0        6.811792    3.410701    5.549410
     34          7           0        5.297915   -0.323671    0.680200
     35          6           0        6.225304   -0.266741    1.715470
     36          6           0        6.501693   -1.619601    2.099608
     37          6           0        5.768659   -2.416860    1.202620
     38          6           0        4.988832   -1.561907    0.435974
     39          6           0        7.436977   -2.026867    3.236160
     40          6           0        5.587432   -3.803971    0.881355
     41          8           0        6.148085   -4.828844    1.282349
     42          6           0        4.404242   -3.795520   -0.253412
     43          6           0        4.775910   -4.384076   -1.500004
     44          8           0        5.568737   -3.950526   -2.341858
     45          8           0        4.176598   -5.620639   -1.666355
     46          6           0        4.597123   -6.361147   -2.880425
     47          6           0       -3.146432   -4.717434   -0.752874
     48          6           0       -4.060092   -3.995608    0.234302
     49          6           0       -5.363266   -4.310051    0.448920
     50          6           0       -6.100518   -5.492068   -0.216552
     51          6           0       -6.256672   -3.220342    1.131716
     52          6           0       -6.442617   -3.368978    2.709331
     53          6           0       -6.526714   -2.038957    3.462546
     54          6           0       -7.966083   -1.706370    3.927227
     55          6           0       -8.385472   -2.518748    5.133963
     56          6           0       -8.175441   -0.235815    4.283421
     57          6           0       -8.736056    0.634569    3.067016
     58          6           0       -7.629832    1.279149    2.206127
     59          6           0       -7.855795    1.305832    0.648660
     60          6           0       -6.865239    0.357776   -0.118477
     61          6           0       -7.865852    2.795234    0.179530
     62          6           0       -8.635595    2.901398   -1.163398
     63          6           0       -9.754072    3.861197   -1.186984
     64          6           0      -10.920334    3.382656   -2.099454
     65          6           0      -11.087698    4.187155   -3.463457
     66          6           0      -12.318137    3.312268   -1.377392
     67          1           0        1.193507    1.248324   -3.753138
     68          1           0        3.930695    5.540451    0.321826
     69          1           0        7.163460    0.864752    3.250620
     70          1           0        2.490275   -3.153717   -2.556342
     71          1           0        0.619344   -1.111944   -3.395007
     72          1           0        2.413874   -2.590465   -4.738319
     73          1           0        3.273375   -1.092646   -4.653710
     74          1           0        1.666449   -1.124912   -5.442396
     75          1           0       -0.036890   -2.308083   -1.292133
     76          1           0        1.136905   -2.710371   -0.060059
     77          1           0        1.074240   -4.975370   -0.608964
     78          1           0        1.078702   -4.722270   -2.270246
     79          1           0       -0.105912    4.632112   -3.463366
     80          1           0        0.462217    3.149619   -4.393275
     81          1           0        1.081769    4.745626   -4.662521
     82          1           0        2.337845    6.961622    0.230234
     83          1           0        1.930135    8.204718   -1.043087
     84          1           0        3.560985    7.331360   -0.940621
     85          1           0        4.832509    5.052892    2.822429
     86          1           0        7.380283    3.617370    2.908127
     87          1           0        6.364879    6.710045    1.872296
     88          1           0        6.670154    5.550172    0.523773
     89          1           0        7.580039    5.497213    1.974528
     90          1           0        5.378737    2.144493    4.540732
     91          1           0        4.981419    3.841980    4.551459
     92          1           0        6.814411    2.540650    6.206816
     93          1           0        6.552982    4.191842    6.264447
     94          1           0        7.830239    3.536488    5.182552
     95          1           0        7.767384   -3.059819    3.124863
     96          1           0        6.945067   -1.916225    4.202313
     97          1           0        8.373303   -1.469671    3.199992
     98          1           0        3.474609   -4.271913    0.059437
     99          1           0        5.669203   -6.533879   -2.973613
    100          1           0        4.287196   -5.923325   -3.830225
    101          1           0        4.134555   -7.342995   -2.775709
    102          1           0       -3.126281   -5.804012   -0.837501
    103          1           0       -3.426168   -4.249761   -1.696312
    104          1           0       -3.682088   -3.155298    0.815998
    105          1           0       -5.467593   -5.941996   -0.981537
    106          1           0       -7.044448   -5.143567   -0.634910
    107          1           0       -6.285975   -6.256517    0.538143
    108          1           0       -7.281184   -3.322727    0.773900
    109          1           0       -5.854879   -2.224923    0.939073
    110          1           0       -5.551672   -3.898474    3.049315
    111          1           0       -7.378836   -3.913763    2.830910
    112          1           0       -6.178182   -1.217563    2.835478
    113          1           0       -5.934272   -2.105735    4.375517
    114          1           0       -8.667439   -1.882593    3.111875
    115          1           0       -8.257061   -3.595065    5.017454
    116          1           0       -9.433358   -2.309811    5.351480
    117          1           0       -7.762878   -2.150811    5.949174
    118          1           0       -7.253660    0.278058    4.553096
    119          1           0       -8.916160   -0.203041    5.082477
    120          1           0       -9.296709    1.435479    3.547130
    121          1           0       -9.436659    0.103723    2.423346
    122          1           0       -6.671838    0.828107    2.465748
    123          1           0       -7.496389    2.302311    2.558165
    124          1           0       -8.826220    0.819659    0.548582
    125          1           0       -7.381085   -0.583849   -0.300862
    126          1           0       -5.951781    0.125156    0.429245
    127          1           0       -6.573232    0.831665   -1.056243
    128          1           0       -6.841704    3.133008    0.018142
    129          1           0       -8.311856    3.485164    0.896805
    130          1           0       -8.904071    1.916789   -1.546111
    131          1           0       -7.926153    3.221005   -1.926536
    132          1           0       -9.421710    4.848383   -1.507450
    133          1           0      -10.162007    4.121789   -0.210670
    134          1           0      -10.718065    2.366776   -2.440608
    135          1           0      -11.221811    3.464386   -4.268545
    136          1           0      -10.179600    4.775715   -3.590026
    137          1           0      -11.889138    4.925018   -3.488395
    138          1           0      -12.289966    3.467324   -0.299204
    139          1           0      -12.741890    2.315338   -1.498221
    140          1           0      -12.980513    4.105442   -1.722342
 ---------------------------------------------------------------------

 SCF Done:  E(RPBE1PBE) =  -3005.37107544     A.U. after   16 cycles

 Excitation energies and oscillator strengths:

 Excited State   1:      Singlet-A      1.8775 eV  660.36 nm  f=0.3723  <S**2>=0.000
     245 -> 248       -0.17492
     246 -> 247        0.69198
     246 <- 247       -0.10658
 This state for optimization and/or second-order correction.
 Total Energy, E(TD-HF/TD-DFT) =  -3005.30207742
 Copying the excited state density for this state as the 1-particle RhoCI density.

 Excited State   2:      Singlet-A      2.1912 eV  565.82 nm  f=0.1439  <S**2>=0.000
     245 -> 247        0.66389
     246 -> 248        0.22542

 Excited State   3:      Singlet-A      2.8288 eV  438.29 nm  f=0.0060  <S**2>=0.000
     242 -> 247       -0.18248
     243 -> 247        0.66892

 Excited State   4:      Singlet-A      2.8360 eV  437.18 nm  f=0.0023  <S**2>=0.000
     242 -> 247        0.65730
     242 -> 249       -0.10388
     243 -> 247        0.19151

 Excited State   5:      Singlet-A      2.9782 eV  416.30 nm  f=0.0070  <S**2>=0.000
     240 -> 247        0.31501
     240 -> 249        0.11169
     241 -> 247        0.60786

 The electronic state is 1-A.
 Alpha  occ. eigenvalues --  -46.93644 -19.25618 -19.24929 -19.21261 -19.19931
 Alpha  occ. eigenvalues --  -19.19486 -19.18505 -14.42002 -14.41962 -14.39952
 Alpha  occ. eigenvalues --  -14.39044 -10.36697 -10.35822 -10.33159 -10.31830
 Alpha  occ. eigenvalues --  -10.29577 -10.29565 -10.29245 -10.29208 -10.28928
 Alpha  occ. eigenvalues --  -10.28851 -10.28694 -10.28421 -10.27569 -10.27377
 Alpha  occ. eigenvalues --  -10.27215 -10.26875 -10.26793 -10.26534 -10.26434
 Alpha  occ. eigenvalues --  -10.26180 -10.26082 -10.25701 -10.25444 -10.25436
 Alpha  occ. eigenvalues --  -10.25311 -10.25267 -10.24987 -10.24916 -10.24801
 Alpha  occ. eigenvalues --  -10.24658 -10.24326 -10.24018 -10.23720 -10.23552
 Alpha  occ. eigenvalues --  -10.23546 -10.23536 -10.23495 -10.23464 -10.23438
 Alpha  occ. eigenvalues --  -10.23399 -10.23320 -10.22778 -10.22612 -10.22605
 Alpha  occ. eigenvalues --  -10.22382 -10.22304 -10.22288 -10.22223 -10.22170
 Alpha  occ. eigenvalues --  -10.21724 -10.21718 -10.21664 -10.21623 -10.21550
 Alpha  occ. eigenvalues --  -10.21507  -3.15575  -1.88397  -1.87980  -1.87761
 Alpha  occ. eigenvalues --   -1.11039  -1.10241  -1.04791  -1.04142  -1.02481
 Alpha  occ. eigenvalues --   -1.01225  -0.99866  -0.99163  -0.98675  -0.96384
 Alpha  occ. eigenvalues --   -0.86370  -0.84218  -0.84180  -0.83766  -0.83259
 Alpha  occ. eigenvalues --   -0.82893  -0.82666  -0.82170  -0.80869  -0.80836
 Alpha  occ. eigenvalues --   -0.79703  -0.79454  -0.78549  -0.78171  -0.77773
 Alpha  occ. eigenvalues --   -0.76632  -0.76337  -0.75348  -0.74907  -0.74366
 Alpha  occ. eigenvalues --   -0.73707  -0.72434  -0.72278  -0.71625  -0.70459
 Alpha  occ. eigenvalues --   -0.69833  -0.69649  -0.69061  -0.68842  -0.68002
 Alpha  occ. eigenvalues --   -0.67713  -0.66855  -0.66293  -0.65078  -0.64046
 Alpha  occ. eigenvalues --   -0.63624  -0.62430  -0.62367  -0.60778  -0.60531
 Alpha  occ. eigenvalues --   -0.60440  -0.59842  -0.59407  -0.58622  -0.58155
 Alpha  occ. eigenvalues --   -0.57390  -0.57251  -0.56543  -0.56506  -0.54793
 Alpha  occ. eigenvalues --   -0.54587  -0.53972  -0.53749  -0.53588  -0.52933
 Alpha  occ. eigenvalues --   -0.52331  -0.50857  -0.50676  -0.50324  -0.50095
 Alpha  occ. eigenvalues --   -0.49927  -0.49117  -0.48880  -0.48694  -0.48372
 Alpha  occ. eigenvalues --   -0.48192  -0.47872  -0.47809  -0.47515  -0.47263
 Alpha  occ. eigenvalues --   -0.47132  -0.46825  -0.46705  -0.46595  -0.45997
 Alpha  occ. eigenvalues --   -0.45904  -0.45622  -0.45514  -0.45460  -0.44744
 Alpha  occ. eigenvalues --   -0.44684  -0.44643  -0.44503  -0.44142  -0.43969
 Alpha  occ. eigenvalues --   -0.43836  -0.43623  -0.43440  -0.43370  -0.43216
 Alpha  occ. eigenvalues --   -0.43123  -0.43009  -0.42810  -0.42464  -0.42399
 Alpha  occ. eigenvalues --   -0.42157  -0.41992  -0.41908  -0.41767  -0.41489
 Alpha  occ. eigenvalues --   -0.41285  -0.40807  -0.40379  -0.40334  -0.40276
 Alpha  occ. eigenvalues --   -0.40248  -0.40066  -0.39928  -0.39760  -0.39735
 Alpha  occ. eigenvalues --   -0.39650  -0.39463  -0.39252  -0.39243  -0.39083
 Alpha  occ. eigenvalues --   -0.38713  -0.38465  -0.38348  -0.38208  -0.37943
 Alpha  occ. eigenvalues --   -0.37749  -0.37552  -0.37353  -0.37180  -0.37095
 Alpha  occ. eigenvalues --   -0.36916  -0.36766  -0.36614  -0.36423  -0.36123
 Alpha  occ. eigenvalues --   -0.36061  -0.36006  -0.35954  -0.35593  -0.35323
 Alpha  occ. eigenvalues --   -0.34986  -0.34620  -0.34336  -0.33916  -0.33642
 Alpha  occ. eigenvalues --   -0.33207  -0.32872  -0.32759  -0.32644  -0.32511
 Alpha  occ. eigenvalues --   -0.32345  -0.32125  -0.32064  -0.31884  -0.31419
 Alpha  occ. eigenvalues --   -0.31294  -0.30668  -0.30012  -0.29997  -0.29383
 Alpha  occ. eigenvalues --   -0.29211  -0.28691  -0.28631  -0.27274  -0.26358
 Alpha  occ. eigenvalues --   -0.25795  -0.25398  -0.25253  -0.24691  -0.21327
 Alpha  occ. eigenvalues --   -0.19591
 Alpha virt. eigenvalues --   -0.11915  -0.05468  -0.04162  -0.02505  -0.01403
 Alpha virt. eigenvalues --   -0.00303   0.00480   0.00896   0.01015   0.02941
 Alpha virt. eigenvalues --    0.03843   0.04504   0.05093   0.05550   0.05717

 Mulliken charges:
               1
     1  Mg   0.964023
     2  C   -0.044010
     3  C   -0.052043
     4  C   -0.043925
     5  C   -0.050369
     6  N   -0.323538
     7  C    0.008918
     8  C   -0.099445
     9  C   -0.165482
    10  C    0.064575
    11  C    0.017860
    12  C    0.059551
    13  C   -0.034547
    14  C    0.207646
    15  O   -0.226158
    16  O   -0.410458
    17  N   -0.524032
    18  C    0.183431
    19  C   -0.148633
    20  C   -0.059829
    21  C    0.193129
    22  C    0.070328
    23  C    0.003043
    24  O   -0.247702
    25  C   -0.028769
    26  N   -0.422103
    27  C    0.070317
    28  C   -0.127901
    29  C   -0.077640
    30  C    0.065283
    31  C    0.004907
    32  C   -0.017025
    33  C   -0.066618
    34  N   -0.432677
    35  C    0.105785
    36  C   -0.172576
    37  C   -0.069350
    38  C    0.156407
    39  C    0.057887
    40  C    0.189647
    41  O   -0.217885
    42  C   -0.112855
    43  C    0.283672
    44  O   -0.274928
    45  O   -0.380213
    46  C    0.127756
    47  C    0.207809
    48  C   -0.102736
    49  C   -0.216915
    50  C    0.018627
    51  C   -0.034358
    52  C   -0.035887
    53  C    0.011267
    54  C   -0.205710
    55  C   -0.014948
    56  C   -0.024325
    57  C   -0.054659
    58  C   -0.004111
    59  C   -0.227078
    60  C   -0.014647
    61  C    0.003487
    62  C   -0.049938
    63  C    0.029743
    64  C   -0.264639
    65  C   -0.027513
    66  C   -0.023276
    67  H    0.009743
    68  H   -0.023315
    69  H    0.008580
    70  H    0.060942
    71  H    0.045453
    72  H    0.044365
    73  H    0.049793
    74  H    0.055069
    75  H    0.050193
    76  H    0.063763
    77  H    0.078431
    78  H    0.049919
    79  H    0.065268
    80  H    0.028686
    81  H    0.055325
    82  H    0.063918
    83  H    0.065601
    84  H    0.060326
    85  H    0.052558
    86  H    0.049667
    87  H    0.051134
    88  H    0.053175
    89  H    0.033817
    90  H    0.058842
    91  H    0.034072
    92  H    0.034949
    93  H    0.044799
    94  H    0.043355
    95  H    0.057764
    96  H    0.058185
    97  H    0.046423
    98  H    0.070781
    99  H    0.062852
   100  H    0.052541
   101  H    0.054851
   102  H    0.074989
   103  H    0.067902
   104  H    0.037242
   105  H    0.040582
   106  H    0.049127
   107  H    0.057030
   108  H    0.031100
   109  H    0.043825
   110  H    0.035289
   111  H    0.036822
   112  H    0.022724
   113  H    0.023391
   114  H    0.018700
   115  H    0.033276
   116  H    0.040380
   117  H    0.034089
   118  H    0.030898
   119  H    0.021458
   120  H    0.027404
   121  H    0.025356
   122  H    0.013158
   123  H    0.018845
   124  H    0.034970
   125  H    0.042376
   126  H    0.045253
   127  H    0.033133
   128  H    0.029831
   129  H    0.033261
   130  H    0.030454
   131  H    0.020447
   132  H    0.019569
   133  H    0.017319
   134  H    0.041332
   135  H    0.042059
   136  H    0.028105
   137  H    0.035829
   138  H    0.025260
   139  H    0.038156
   140  H    0.033585
 Sum of Mulliken charges =  -0.00000

 Dipole moment (field-independent basis, Debye):
    X=             -0.6870    Y=              2.8304    Z=              2.1758  Tot=              3.6355
 Quadrupole moment (field-independent basis, Debye-Ang):
   XX=           -392.7542   YY=           -423.4827   ZZ=           -392.9659
   XY=             43.6179   XZ=             11.0986   YZ=             28.5026

 Normal termination of Gaussian 16 at Thu May  5 02:37:07 2022.
