 Gaussian 16, Revision A.03,
 Gaussian 16:  ES64L-G16RevA.03 25-Dec-2016

 --------------------------------
 #p wB97XD/Def2SVP td=(nstates=5)
 --------------------------------

 ---------------------------------------------------
 step_51_chromophore_17 TDDFT with wB97XD functional
 ---------------------------------------------------
 Symbolic Z-matrix:
 Charge =  0 Multiplicity = 1

                         Standard orientation:
 ---------------------------------------------------------------------
 Center     Atomic      Atomic             Coordinates (Angstroms)
 Number     Number       Type             X           Y           Z
 ---------------------------------------------------------------------
      1         12           0        4.479196    1.284325   -0.489022
      2          6           0        4.059027   -2.277563   -0.457908
      3          6           0        1.932166    1.260529   -2.949603
      4          6           0        4.091501    4.483334    0.101843
      5          6           0        6.569466    0.980062    2.341288
      6          7           0        3.028239   -0.313986   -1.433717
      7          6           0        3.040905   -1.642284   -1.237643
      8          6           0        1.990689   -2.314410   -2.071489
      9          6           0        1.680331   -1.254575   -3.193352
     10          6           0        2.323810   -0.005893   -2.552870
     11          6           0        2.270015   -1.516115   -4.624151
     12          6           0        0.882134   -2.865085   -1.108367
     13          6           0        0.594528   -4.354920   -1.365795
     14          6           0       -0.916903   -4.784041   -1.588294
     15          8           0       -1.369938   -5.432538   -2.476798
     16          8           0       -1.700555   -4.306837   -0.510237
     17          7           0        3.303403    2.723017   -1.473166
     18          6           0        2.255073    2.508852   -2.377029
     19          6           0        1.783726    3.829725   -2.739508
     20          6           0        2.308637    4.813748   -1.801584
     21          6           0        3.293163    4.040162   -1.001756
     22          6           0        0.731156    4.072290   -3.880406
     23          6           0        1.987417    6.254550   -1.833033
     24          8           0        1.214031    6.713411   -2.656248
     25          6           0        2.481779    7.297241   -0.797474
     26          7           0        5.129284    2.522621    1.064969
     27          6           0        4.853329    3.821930    1.030550
     28          6           0        5.595578    4.598927    2.188777
     29          6           0        6.316617    3.389742    2.970337
     30          6           0        6.000388    2.224001    2.115132
     31          6           0        6.570908    5.674330    1.602454
     32          6           0        5.808296    3.141112    4.432974
     33          6           0        6.811792    3.410701    5.549410
     34          7           0        5.297915   -0.323671    0.680200
     35          6           0        6.225304   -0.266741    1.715470
     36          6           0        6.501693   -1.619601    2.099608
     37          6           0        5.768659   -2.416860    1.202620
     38          6           0        4.988832   -1.561907    0.435974
     39          6           0        7.436977   -2.026867    3.236160
     40          6           0        5.587432   -3.803971    0.881355
     41          8           0        6.148085   -4.828844    1.282349
     42          6           0        4.404242   -3.795520   -0.253412
     43          6           0        4.775910   -4.384076   -1.500004
     44          8           0        5.568737   -3.950526   -2.341858
     45          8           0        4.176598   -5.620639   -1.666355
     46          6           0        4.597123   -6.361147   -2.880425
     47          6           0       -3.146432   -4.717434   -0.752874
     48          6           0       -4.060092   -3.995608    0.234302
     49          6           0       -5.363266   -4.310051    0.448920
     50          6           0       -6.100518   -5.492068   -0.216552
     51          6           0       -6.256672   -3.220342    1.131716
     52          6           0       -6.442617   -3.368978    2.709331
     53          6           0       -6.526714   -2.038957    3.462546
     54          6           0       -7.966083   -1.706370    3.927227
     55          6           0       -8.385472   -2.518748    5.133963
     56          6           0       -8.175441   -0.235815    4.283421
     57          6           0       -8.736056    0.634569    3.067016
     58          6           0       -7.629832    1.279149    2.206127
     59          6           0       -7.855795    1.305832    0.648660
     60          6           0       -6.865239    0.357776   -0.118477
     61          6           0       -7.865852    2.795234    0.179530
     62          6           0       -8.635595    2.901398   -1.163398
     63          6           0       -9.754072    3.861197   -1.186984
     64          6           0      -10.920334    3.382656   -2.099454
     65          6           0      -11.087698    4.187155   -3.463457
     66          6           0      -12.318137    3.312268   -1.377392
     67          1           0        1.193507    1.248324   -3.753138
     68          1           0        3.930695    5.540451    0.321826
     69          1           0        7.163460    0.864752    3.250620
     70          1           0        2.490275   -3.153717   -2.556342
     71          1           0        0.619344   -1.111944   -3.395007
     72          1           0        2.413874   -2.590465   -4.738319
     73          1           0        3.273375   -1.092646   -4.653710
     74          1           0        1.666449   -1.124912   -5.442396
     75          1           0       -0.036890   -2.308083   -1.292133
     76          1           0        1.136905   -2.710371   -0.060059
     77          1           0        1.074240   -4.975370   -0.608964
     78          1           0        1.078702   -4.722270   -2.270246
     79          1           0       -0.105912    4.632112   -3.463366
     80          1           0        0.462217    3.149619   -4.393275
     81          1           0        1.081769    4.745626   -4.662521
     82          1           0        2.337845    6.961622    0.230234
     83          1           0        1.930135    8.204718   -1.043087
     84          1           0        3.560985    7.331360   -0.940621
     85          1           0        4.832509    5.052892    2.822429
     86          1           0        7.380283    3.617370    2.908127
     87          1           0        6.364879    6.710045    1.872296
     88          1           0        6.670154    5.550172    0.523773
     89          1           0        7.580039    5.497213    1.974528
     90          1           0        5.378737    2.144493    4.540732
     91          1           0        4.981419    3.841980    4.551459
     92          1           0        6.814411    2.540650    6.206816
     93          1           0        6.552982    4.191842    6.264447
     94          1           0        7.830239    3.536488    5.182552
     95          1           0        7.767384   -3.059819    3.124863
     96          1           0        6.945067   -1.916225    4.202313
     97          1           0        8.373303   -1.469671    3.199992
     98          1           0        3.474609   -4.271913    0.059437
     99          1           0        5.669203   -6.533879   -2.973613
    100          1           0        4.287196   -5.923325   -3.830225
    101          1           0        4.134555   -7.342995   -2.775709
    102          1           0       -3.126281   -5.804012   -0.837501
    103          1           0       -3.426168   -4.249761   -1.696312
    104          1           0       -3.682088   -3.155298    0.815998
    105          1           0       -5.467593   -5.941996   -0.981537
    106          1           0       -7.044448   -5.143567   -0.634910
    107          1           0       -6.285975   -6.256517    0.538143
    108          1           0       -7.281184   -3.322727    0.773900
    109          1           0       -5.854879   -2.224923    0.939073
    110          1           0       -5.551672   -3.898474    3.049315
    111          1           0       -7.378836   -3.913763    2.830910
    112          1           0       -6.178182   -1.217563    2.835478
    113          1           0       -5.934272   -2.105735    4.375517
    114          1           0       -8.667439   -1.882593    3.111875
    115          1           0       -8.257061   -3.595065    5.017454
    116          1           0       -9.433358   -2.309811    5.351480
    117          1           0       -7.762878   -2.150811    5.949174
    118          1           0       -7.253660    0.278058    4.553096
    119          1           0       -8.916160   -0.203041    5.082477
    120          1           0       -9.296709    1.435479    3.547130
    121          1           0       -9.436659    0.103723    2.423346
    122          1           0       -6.671838    0.828107    2.465748
    123          1           0       -7.496389    2.302311    2.558165
    124          1           0       -8.826220    0.819659    0.548582
    125          1           0       -7.381085   -0.583849   -0.300862
    126          1           0       -5.951781    0.125156    0.429245
    127          1           0       -6.573232    0.831665   -1.056243
    128          1           0       -6.841704    3.133008    0.018142
    129          1           0       -8.311856    3.485164    0.896805
    130          1           0       -8.904071    1.916789   -1.546111
    131          1           0       -7.926153    3.221005   -1.926536
    132          1           0       -9.421710    4.848383   -1.507450
    133          1           0      -10.162007    4.121789   -0.210670
    134          1           0      -10.718065    2.366776   -2.440608
    135          1           0      -11.221811    3.464386   -4.268545
    136          1           0      -10.179600    4.775715   -3.590026
    137          1           0      -11.889138    4.925018   -3.488395
    138          1           0      -12.289966    3.467324   -0.299204
    139          1           0      -12.741890    2.315338   -1.498221
    140          1           0      -12.980513    4.105442   -1.722342
 ---------------------------------------------------------------------

 SCF Done:  E(RwB97XD) =  -3007.88030688     A.U. after   19 cycles

 Excitation energies and oscillator strengths:

 Excited State   1:      Singlet-A      1.6805 eV  737.77 nm  f=0.3895  <S**2>=0.000
     245 -> 248       -0.18135
     246 -> 247        0.68425
     245 <- 248       -0.11471
 This state for optimization and/or second-order correction.
 Total Energy, E(TD-HF/TD-DFT) =  -3007.81854904
 Copying the excited state density for this state as the 1-particle RhoCI density.

 Excited State   2:      Singlet-A      2.1336 eV  581.09 nm  f=0.1511  <S**2>=0.000
     245 -> 247        0.65382
     246 -> 248        0.24855

 Excited State   3:      Singlet-A      3.1505 eV  393.53 nm  f=0.0046  <S**2>=0.000
     242 -> 247        0.46885
     243 -> 247        0.49533

 Excited State   4:      Singlet-A      3.4203 eV  362.49 nm  f=0.0010  <S**2>=0.000
     241 -> 247       -0.14100
     242 -> 247       -0.44055
     243 -> 247        0.45126
     246 -> 248        0.16058

 Excited State   5:      Singlet-A      3.4441 eV  359.99 nm  f=0.0009  <S**2>=0.000
     241 -> 247        0.54533
     241 -> 248       -0.11381
     241 -> 249        0.27890
     241 -> 250        0.23527
     242 -> 247       -0.14894

 The electronic state is 1-A.
 Alpha  occ. eigenvalues --  -46.96598 -19.30178 -19.29448 -19.25903 -19.24493
 Alpha  occ. eigenvalues --  -19.24200 -19.23504 -14.47231 -14.46980 -14.45020
 Alpha  occ. eigenvalues --  -14.43809 -10.43429 -10.42662 -10.39854 -10.38849
 Alpha  occ. eigenvalues --  -10.36330 -10.36049 -10.35767 -10.35483 -10.35352
 Alpha  occ. eigenvalues --  -10.35196 -10.35124 -10.34860 -10.34109 -10.33693
 Alpha  occ. eigenvalues --  -10.33452 -10.33102 -10.32878 -10.32823 -10.32765
 Alpha  occ. eigenvalues --  -10.32429 -10.32179 -10.31969 -10.31954 -10.31836
 Alpha  occ. eigenvalues --  -10.31753 -10.31715 -10.31252 -10.31205 -10.31145
 Alpha  occ. eigenvalues --  -10.30841 -10.30725 -10.30487 -10.30210 -10.30122
 Alpha  occ. eigenvalues --  -10.30107 -10.29993 -10.29839 -10.29834 -10.29774
 Alpha  occ. eigenvalues --  -10.29745 -10.29618 -10.28998 -10.28910 -10.28773
 Alpha  occ. eigenvalues --  -10.28743 -10.28681 -10.28670 -10.28639 -10.28584
 Alpha  occ. eigenvalues --  -10.28159 -10.28089 -10.28078 -10.28056 -10.27980
 Alpha  occ. eigenvalues --  -10.27910  -3.22422  -1.95987  -1.95570  -1.95349
 Alpha  occ. eigenvalues --   -1.18371  -1.17640  -1.12459  -1.11414  -1.09793
 Alpha  occ. eigenvalues --   -1.08600  -1.07159  -1.06489  -1.05940  -1.04033
 Alpha  occ. eigenvalues --   -0.93916  -0.91907  -0.91705  -0.91402  -0.90945
 Alpha  occ. eigenvalues --   -0.90582  -0.90351  -0.89773  -0.88551  -0.88224
 Alpha  occ. eigenvalues --   -0.87408  -0.87343  -0.86110  -0.85831  -0.85444
 Alpha  occ. eigenvalues --   -0.84267  -0.84014  -0.82964  -0.82740  -0.82044
 Alpha  occ. eigenvalues --   -0.81376  -0.79967  -0.79857  -0.79431  -0.78082
 Alpha  occ. eigenvalues --   -0.77526  -0.77299  -0.76767  -0.76563  -0.75681
 Alpha  occ. eigenvalues --   -0.75207  -0.74484  -0.73850  -0.72723  -0.71526
 Alpha  occ. eigenvalues --   -0.71066  -0.70093  -0.70045  -0.68227  -0.68196
 Alpha  occ. eigenvalues --   -0.67983  -0.67313  -0.66824  -0.66274  -0.65854
 Alpha  occ. eigenvalues --   -0.65051  -0.64717  -0.64161  -0.63915  -0.62119
 Alpha  occ. eigenvalues --   -0.62031  -0.61437  -0.61253  -0.60893  -0.60358
 Alpha  occ. eigenvalues --   -0.59829  -0.58308  -0.58124  -0.57680  -0.57560
 Alpha  occ. eigenvalues --   -0.57376  -0.56470  -0.56268  -0.56117  -0.55772
 Alpha  occ. eigenvalues --   -0.55565  -0.55339  -0.55139  -0.54882  -0.54739
 Alpha  occ. eigenvalues --   -0.54365  -0.54210  -0.54066  -0.53959  -0.53471
 Alpha  occ. eigenvalues --   -0.53264  -0.53197  -0.52895  -0.52712  -0.52091
 Alpha  occ. eigenvalues --   -0.52008  -0.51840  -0.51781  -0.51498  -0.51322
 Alpha  occ. eigenvalues --   -0.51178  -0.50960  -0.50811  -0.50725  -0.50534
 Alpha  occ. eigenvalues --   -0.50418  -0.50311  -0.50173  -0.49724  -0.49661
 Alpha  occ. eigenvalues --   -0.49472  -0.49275  -0.49216  -0.48882  -0.48774
 Alpha  occ. eigenvalues --   -0.48449  -0.48059  -0.47657  -0.47579  -0.47556
 Alpha  occ. eigenvalues --   -0.47393  -0.47305  -0.47259  -0.46966  -0.46865
 Alpha  occ. eigenvalues --   -0.46796  -0.46653  -0.46464  -0.46321  -0.46258
 Alpha  occ. eigenvalues --   -0.45859  -0.45603  -0.45428  -0.45342  -0.45087
 Alpha  occ. eigenvalues --   -0.44784  -0.44660  -0.44526  -0.44360  -0.44202
 Alpha  occ. eigenvalues --   -0.44027  -0.43857  -0.43765  -0.43385  -0.43234
 Alpha  occ. eigenvalues --   -0.43108  -0.42974  -0.42939  -0.42737  -0.42454
 Alpha  occ. eigenvalues --   -0.42055  -0.41601  -0.41375  -0.40839  -0.40728
 Alpha  occ. eigenvalues --   -0.40288  -0.39946  -0.39821  -0.39566  -0.39555
 Alpha  occ. eigenvalues --   -0.39371  -0.39168  -0.39041  -0.38878  -0.38506
 Alpha  occ. eigenvalues --   -0.38279  -0.37636  -0.36997  -0.36828  -0.36303
 Alpha  occ. eigenvalues --   -0.35934  -0.35716  -0.35590  -0.33817  -0.33171
 Alpha  occ. eigenvalues --   -0.32776  -0.32154  -0.32015  -0.31434  -0.26315
 Alpha  occ. eigenvalues --   -0.23822
 Alpha virt. eigenvalues --   -0.07856   0.00001   0.02144   0.03928   0.04670
 Alpha virt. eigenvalues --    0.06422   0.07300   0.07597   0.07798   0.09540
 Alpha virt. eigenvalues --    0.10394   0.11206   0.11762   0.12179   0.12434

 Mulliken charges:
               1
     1  Mg   0.958051
     2  C   -0.049818
     3  C   -0.067054
     4  C   -0.060064
     5  C   -0.066569
     6  N   -0.286359
     7  C   -0.022137
     8  C   -0.067218
     9  C   -0.141392
    10  C    0.052756
    11  C    0.025495
    12  C    0.066821
    13  C   -0.019063
    14  C    0.203024
    15  O   -0.226017
    16  O   -0.412222
    17  N   -0.499241
    18  C    0.179598
    19  C   -0.141678
    20  C   -0.052537
    21  C    0.192977
    22  C    0.081618
    23  C   -0.000444
    24  O   -0.242894
    25  C   -0.012935
    26  N   -0.390873
    27  C    0.062753
    28  C   -0.106242
    29  C   -0.051271
    30  C    0.057360
    31  C    0.016049
    32  C   -0.003007
    33  C   -0.051189
    34  N   -0.391753
    35  C    0.089556
    36  C   -0.170822
    37  C   -0.062768
    38  C    0.134061
    39  C    0.067014
    40  C    0.171865
    41  O   -0.209965
    42  C   -0.071434
    43  C    0.258391
    44  O   -0.269106
    45  O   -0.377970
    46  C    0.142869
    47  C    0.221656
    48  C   -0.110230
    49  C   -0.208570
    50  C    0.034806
    51  C   -0.003852
    52  C   -0.021076
    53  C    0.035101
    54  C   -0.175695
    55  C   -0.000448
    56  C   -0.007038
    57  C   -0.036940
    58  C    0.008061
    59  C   -0.193088
    60  C   -0.002380
    61  C    0.018559
    62  C   -0.030680
    63  C    0.042217
    64  C   -0.236919
    65  C   -0.013659
    66  C   -0.010170
    67  H    0.004043
    68  H   -0.038461
    69  H    0.002053
    70  H    0.036987
    71  H    0.037688
    72  H    0.039812
    73  H    0.043687
    74  H    0.050982
    75  H    0.041985
    76  H    0.057332
    77  H    0.073418
    78  H    0.043503
    79  H    0.062105
    80  H    0.024964
    81  H    0.052907
    82  H    0.059505
    83  H    0.065194
    84  H    0.054486
    85  H    0.043153
    86  H    0.036454
    87  H    0.046456
    88  H    0.045838
    89  H    0.028370
    90  H    0.051122
    91  H    0.024362
    92  H    0.028807
    93  H    0.039113
    94  H    0.036898
    95  H    0.053206
    96  H    0.052328
    97  H    0.040059
    98  H    0.059639
    99  H    0.058873
   100  H    0.048038
   101  H    0.051699
   102  H    0.070180
   103  H    0.060967
   104  H    0.035861
   105  H    0.034604
   106  H    0.043863
   107  H    0.051294
   108  H    0.022079
   109  H    0.024443
   110  H    0.027258
   111  H    0.026755
   112  H    0.002462
   113  H    0.015267
   114  H    0.003104
   115  H    0.027651
   116  H    0.033716
   117  H    0.025800
   118  H    0.021074
   119  H    0.013533
   120  H    0.020203
   121  H    0.015488
   122  H    0.000922
   123  H    0.010469
   124  H    0.019656
   125  H    0.035322
   126  H    0.038421
   127  H    0.027467
   128  H    0.022063
   129  H    0.023738
   130  H    0.018368
   131  H    0.012242
   132  H    0.011674
   133  H    0.007171
   134  H    0.029047
   135  H    0.036916
   136  H    0.020481
   137  H    0.029515
   138  H    0.018852
   139  H    0.032877
   140  H    0.026720
 Sum of Mulliken charges =  -0.00000

 Dipole moment (field-independent basis, Debye):
    X=             -1.0922    Y=              3.2688    Z=              1.7095  Tot=              3.8471
 Quadrupole moment (field-independent basis, Debye-Ang):
   XX=           -395.6300   YY=           -421.2186   ZZ=           -392.6106
   XY=             44.6712   XZ=              8.8338   YZ=             27.4340

 Normal termination of Gaussian 16 at Thu May  5 03:28:15 2022.
