 Gaussian 16, Revision A.03,
 Gaussian 16:  ES64L-G16RevA.03 25-Dec-2016

 --------------------
 #p ZINDO=(nstates=5)
 --------------------

 ----------------------------
 step_51_chromophore_17 ZINDO
 ----------------------------
 Symbolic Z-matrix:
 Charge =  0 Multiplicity = 1

                         Standard orientation:
 ---------------------------------------------------------------------
 Center     Atomic      Atomic             Coordinates (Angstroms)
 Number     Number       Type             X           Y           Z
 ---------------------------------------------------------------------
      1         12           0        4.479196    1.284325   -0.489022
      2          6           0        4.059027   -2.277563   -0.457908
      3          6           0        1.932166    1.260529   -2.949603
      4          6           0        4.091501    4.483334    0.101843
      5          6           0        6.569466    0.980062    2.341288
      6          7           0        3.028239   -0.313986   -1.433717
      7          6           0        3.040905   -1.642284   -1.237643
      8          6           0        1.990689   -2.314410   -2.071489
      9          6           0        1.680331   -1.254575   -3.193352
     10          6           0        2.323810   -0.005893   -2.552870
     11          6           0        2.270015   -1.516115   -4.624151
     12          6           0        0.882134   -2.865085   -1.108367
     13          6           0        0.594528   -4.354920   -1.365795
     14          6           0       -0.916903   -4.784041   -1.588294
     15          8           0       -1.369938   -5.432538   -2.476798
     16          8           0       -1.700555   -4.306837   -0.510237
     17          7           0        3.303403    2.723017   -1.473166
     18          6           0        2.255073    2.508852   -2.377029
     19          6           0        1.783726    3.829725   -2.739508
     20          6           0        2.308637    4.813748   -1.801584
     21          6           0        3.293163    4.040162   -1.001756
     22          6           0        0.731156    4.072290   -3.880406
     23          6           0        1.987417    6.254550   -1.833033
     24          8           0        1.214031    6.713411   -2.656248
     25          6           0        2.481779    7.297241   -0.797474
     26          7           0        5.129284    2.522621    1.064969
     27          6           0        4.853329    3.821930    1.030550
     28          6           0        5.595578    4.598927    2.188777
     29          6           0        6.316617    3.389742    2.970337
     30          6           0        6.000388    2.224001    2.115132
     31          6           0        6.570908    5.674330    1.602454
     32          6           0        5.808296    3.141112    4.432974
     33          6           0        6.811792    3.410701    5.549410
     34          7           0        5.297915   -0.323671    0.680200
     35          6           0        6.225304   -0.266741    1.715470
     36          6           0        6.501693   -1.619601    2.099608
     37          6           0        5.768659   -2.416860    1.202620
     38          6           0        4.988832   -1.561907    0.435974
     39          6           0        7.436977   -2.026867    3.236160
     40          6           0        5.587432   -3.803971    0.881355
     41          8           0        6.148085   -4.828844    1.282349
     42          6           0        4.404242   -3.795520   -0.253412
     43          6           0        4.775910   -4.384076   -1.500004
     44          8           0        5.568737   -3.950526   -2.341858
     45          8           0        4.176598   -5.620639   -1.666355
     46          6           0        4.597123   -6.361147   -2.880425
     47          6           0       -3.146432   -4.717434   -0.752874
     48          6           0       -4.060092   -3.995608    0.234302
     49          6           0       -5.363266   -4.310051    0.448920
     50          6           0       -6.100518   -5.492068   -0.216552
     51          6           0       -6.256672   -3.220342    1.131716
     52          6           0       -6.442617   -3.368978    2.709331
     53          6           0       -6.526714   -2.038957    3.462546
     54          6           0       -7.966083   -1.706370    3.927227
     55          6           0       -8.385472   -2.518748    5.133963
     56          6           0       -8.175441   -0.235815    4.283421
     57          6           0       -8.736056    0.634569    3.067016
     58          6           0       -7.629832    1.279149    2.206127
     59          6           0       -7.855795    1.305832    0.648660
     60          6           0       -6.865239    0.357776   -0.118477
     61          6           0       -7.865852    2.795234    0.179530
     62          6           0       -8.635595    2.901398   -1.163398
     63          6           0       -9.754072    3.861197   -1.186984
     64          6           0      -10.920334    3.382656   -2.099454
     65          6           0      -11.087698    4.187155   -3.463457
     66          6           0      -12.318137    3.312268   -1.377392
     67          1           0        1.193507    1.248324   -3.753138
     68          1           0        3.930695    5.540451    0.321826
     69          1           0        7.163460    0.864752    3.250620
     70          1           0        2.490275   -3.153717   -2.556342
     71          1           0        0.619344   -1.111944   -3.395007
     72          1           0        2.413874   -2.590465   -4.738319
     73          1           0        3.273375   -1.092646   -4.653710
     74          1           0        1.666449   -1.124912   -5.442396
     75          1           0       -0.036890   -2.308083   -1.292133
     76          1           0        1.136905   -2.710371   -0.060059
     77          1           0        1.074240   -4.975370   -0.608964
     78          1           0        1.078702   -4.722270   -2.270246
     79          1           0       -0.105912    4.632112   -3.463366
     80          1           0        0.462217    3.149619   -4.393275
     81          1           0        1.081769    4.745626   -4.662521
     82          1           0        2.337845    6.961622    0.230234
     83          1           0        1.930135    8.204718   -1.043087
     84          1           0        3.560985    7.331360   -0.940621
     85          1           0        4.832509    5.052892    2.822429
     86          1           0        7.380283    3.617370    2.908127
     87          1           0        6.364879    6.710045    1.872296
     88          1           0        6.670154    5.550172    0.523773
     89          1           0        7.580039    5.497213    1.974528
     90          1           0        5.378737    2.144493    4.540732
     91          1           0        4.981419    3.841980    4.551459
     92          1           0        6.814411    2.540650    6.206816
     93          1           0        6.552982    4.191842    6.264447
     94          1           0        7.830239    3.536488    5.182552
     95          1           0        7.767384   -3.059819    3.124863
     96          1           0        6.945067   -1.916225    4.202313
     97          1           0        8.373303   -1.469671    3.199992
     98          1           0        3.474609   -4.271913    0.059437
     99          1           0        5.669203   -6.533879   -2.973613
    100          1           0        4.287196   -5.923325   -3.830225
    101          1           0        4.134555   -7.342995   -2.775709
    102          1           0       -3.126281   -5.804012   -0.837501
    103          1           0       -3.426168   -4.249761   -1.696312
    104          1           0       -3.682088   -3.155298    0.815998
    105          1           0       -5.467593   -5.941996   -0.981537
    106          1           0       -7.044448   -5.143567   -0.634910
    107          1           0       -6.285975   -6.256517    0.538143
    108          1           0       -7.281184   -3.322727    0.773900
    109          1           0       -5.854879   -2.224923    0.939073
    110          1           0       -5.551672   -3.898474    3.049315
    111          1           0       -7.378836   -3.913763    2.830910
    112          1           0       -6.178182   -1.217563    2.835478
    113          1           0       -5.934272   -2.105735    4.375517
    114          1           0       -8.667439   -1.882593    3.111875
    115          1           0       -8.257061   -3.595065    5.017454
    116          1           0       -9.433358   -2.309811    5.351480
    117          1           0       -7.762878   -2.150811    5.949174
    118          1           0       -7.253660    0.278058    4.553096
    119          1           0       -8.916160   -0.203041    5.082477
    120          1           0       -9.296709    1.435479    3.547130
    121          1           0       -9.436659    0.103723    2.423346
    122          1           0       -6.671838    0.828107    2.465748
    123          1           0       -7.496389    2.302311    2.558165
    124          1           0       -8.826220    0.819659    0.548582
    125          1           0       -7.381085   -0.583849   -0.300862
    126          1           0       -5.951781    0.125156    0.429245
    127          1           0       -6.573232    0.831665   -1.056243
    128          1           0       -6.841704    3.133008    0.018142
    129          1           0       -8.311856    3.485164    0.896805
    130          1           0       -8.904071    1.916789   -1.546111
    131          1           0       -7.926153    3.221005   -1.926536
    132          1           0       -9.421710    4.848383   -1.507450
    133          1           0      -10.162007    4.121789   -0.210670
    134          1           0      -10.718065    2.366776   -2.440608
    135          1           0      -11.221811    3.464386   -4.268545
    136          1           0      -10.179600    4.775715   -3.590026
    137          1           0      -11.889138    4.925018   -3.488395
    138          1           0      -12.289966    3.467324   -0.299204
    139          1           0      -12.741890    2.315338   -1.498221
    140          1           0      -12.980513    4.105442   -1.722342
 ---------------------------------------------------------------------

 SCF Done:  E(RZINDO/S) =  -473.956598111     A.U. after   20 cycles

 Excitation energies and oscillator strengths:

 Excited State   1:      Singlet-A      1.2650 eV  980.08 nm  f=0.5970  <S**2>=0.000
     175 ->178        -0.17717
     176 ->177         0.66707
 This state for optimization and/or second-order correction.
 Total Energy, E(CIS/TDA) =  -473.910108708
 Copying the excited state density for this state as the 1-particle RhoCI density.

 Excited State   2:      Singlet-A      1.8791 eV  659.80 nm  f=0.1043  <S**2>=0.000
     175 ->177         0.58477
     176 ->178         0.36249

 Excited State   3:      Singlet-A      2.8733 eV  431.51 nm  f=0.0040  <S**2>=0.000
     168 ->177         0.33785
     168 ->178        -0.14068
     168 ->179        -0.40316
     168 ->181         0.27327
     168 ->186        -0.21969
     168 ->187         0.14351
     168 ->194         0.13996

 Excited State   4:      Singlet-A      2.9870 eV  415.08 nm  f=0.6398  <S**2>=0.000
     171 ->177         0.30627
     172 ->177        -0.12573
     175 ->177        -0.27791
     176 ->178         0.50617

 Excited State   5:      Singlet-A      3.0471 eV  406.89 nm  f=0.1175  <S**2>=0.000
     171 ->177         0.52766
     173 ->177         0.25103
     175 ->177         0.14010
     176 ->178        -0.16953
     176 ->179         0.24009
     176 ->180         0.10406

 The electronic state is 1-A.
 Alpha  occ. eigenvalues --   -1.84333  -1.80758  -1.79547  -1.71987  -1.71660
 Alpha  occ. eigenvalues --   -1.70707  -1.65595  -1.60580  -1.60464  -1.55900
 Alpha  occ. eigenvalues --   -1.52676  -1.50395  -1.47903  -1.46859  -1.46009
 Alpha  occ. eigenvalues --   -1.45439  -1.41979  -1.39435  -1.38557  -1.37947
 Alpha  occ. eigenvalues --   -1.35377  -1.33587  -1.32206  -1.31227  -1.28192
 Alpha  occ. eigenvalues --   -1.27028  -1.26674  -1.22642  -1.19665  -1.17748
 Alpha  occ. eigenvalues --   -1.17085  -1.15190  -1.14842  -1.14312  -1.13612
 Alpha  occ. eigenvalues --   -1.13162  -1.10640  -1.09879  -1.05260  -1.04084
 Alpha  occ. eigenvalues --   -1.02002  -1.01506  -0.99557  -0.98019  -0.96507
 Alpha  occ. eigenvalues --   -0.96387  -0.95074  -0.93831  -0.93771  -0.93057
 Alpha  occ. eigenvalues --   -0.91324  -0.91228  -0.88413  -0.87124  -0.86624
 Alpha  occ. eigenvalues --   -0.86261  -0.84187  -0.83321  -0.82313  -0.80406
 Alpha  occ. eigenvalues --   -0.79752  -0.79329  -0.77519  -0.77070  -0.76039
 Alpha  occ. eigenvalues --   -0.75819  -0.74866  -0.74478  -0.74174  -0.73466
 Alpha  occ. eigenvalues --   -0.72959  -0.72132  -0.71717  -0.71492  -0.70955
 Alpha  occ. eigenvalues --   -0.69964  -0.69613  -0.68857  -0.68479  -0.68189
 Alpha  occ. eigenvalues --   -0.67905  -0.66885  -0.66043  -0.65974  -0.65236
 Alpha  occ. eigenvalues --   -0.64740  -0.64618  -0.64179  -0.63749  -0.63602
 Alpha  occ. eigenvalues --   -0.63186  -0.62856  -0.62420  -0.62352  -0.62029
 Alpha  occ. eigenvalues --   -0.61399  -0.60986  -0.60868  -0.60443  -0.60254
 Alpha  occ. eigenvalues --   -0.59854  -0.59243  -0.58922  -0.58618  -0.58370
 Alpha  occ. eigenvalues --   -0.57834  -0.57748  -0.57480  -0.57126  -0.56966
 Alpha  occ. eigenvalues --   -0.56814  -0.56099  -0.55694  -0.55566  -0.55074
 Alpha  occ. eigenvalues --   -0.54587  -0.53878  -0.53766  -0.53388  -0.52990
 Alpha  occ. eigenvalues --   -0.52860  -0.52777  -0.52214  -0.51902  -0.51758
 Alpha  occ. eigenvalues --   -0.51546  -0.51297  -0.51190  -0.50767  -0.50749
 Alpha  occ. eigenvalues --   -0.50172  -0.50100  -0.49813  -0.49594  -0.49404
 Alpha  occ. eigenvalues --   -0.49251  -0.48709  -0.48651  -0.48274  -0.47885
 Alpha  occ. eigenvalues --   -0.47803  -0.47620  -0.47221  -0.47013  -0.46779
 Alpha  occ. eigenvalues --   -0.46687  -0.46405  -0.46377  -0.45921  -0.45858
 Alpha  occ. eigenvalues --   -0.45693  -0.45419  -0.45378  -0.45166  -0.44691
 Alpha  occ. eigenvalues --   -0.44577  -0.43981  -0.43714  -0.43227  -0.42759
 Alpha  occ. eigenvalues --   -0.42626  -0.41749  -0.41212  -0.39513  -0.39032
 Alpha  occ. eigenvalues --   -0.38340  -0.37306  -0.35683  -0.35192  -0.34841
 Alpha  occ. eigenvalues --   -0.33508  -0.32763  -0.32190  -0.32020  -0.26915
 Alpha  occ. eigenvalues --   -0.22527
 Alpha virt. eigenvalues --   -0.09300  -0.02397  -0.00889   0.00397   0.01016
 Alpha virt. eigenvalues --    0.01914   0.02523   0.02673   0.04328   0.04409
 Alpha virt. eigenvalues --    0.05926   0.06371   0.06784   0.07082   0.07597

 Mulliken charges:
               1
     1  Mg   0.437095
     2  C   -0.053883
     3  C   -0.057445
     4  C   -0.100117
     5  C   -0.067489
     6  N   -0.277824
     7  C    0.120366
     8  C    0.006898
     9  C    0.002247
    10  C    0.153625
    11  C   -0.049953
    12  C   -0.011025
    13  C   -0.000410
    14  C    0.457493
    15  O   -0.485103
    16  O   -0.297876
    17  N   -0.344297
    18  C    0.123389
    19  C    0.058361
    20  C   -0.049721
    21  C    0.149916
    22  C   -0.042451
    23  C    0.322780
    24  O   -0.525115
    25  C   -0.032291
    26  N   -0.277747
    27  C    0.174395
    28  C   -0.008025
    29  C    0.002515
    30  C    0.103097
    31  C   -0.052473
    32  C   -0.023180
    33  C   -0.058183
    34  N   -0.305441
    35  C    0.057794
    36  C    0.013936
    37  C   -0.055074
    38  C    0.119056
    39  C   -0.041142
    40  C    0.333469
    41  O   -0.520295
    42  C    0.054483
    43  C    0.494547
    44  O   -0.533488
    45  O   -0.274983
    46  C    0.076494
    47  C    0.102733
    48  C   -0.078468
    49  C   -0.031971
    50  C   -0.043627
    51  C   -0.035340
    52  C   -0.038676
    53  C   -0.032151
    54  C   -0.009328
    55  C   -0.052873
    56  C   -0.039501
    57  C   -0.044611
    58  C   -0.044344
    59  C   -0.015155
    60  C   -0.056997
    61  C   -0.030287
    62  C   -0.031686
    63  C   -0.020642
    64  C   -0.019978
    65  C   -0.062826
    66  C   -0.062339
    67  H    0.030169
    68  H    0.018531
    69  H    0.024152
    70  H    0.030760
    71  H    0.030653
    72  H    0.023299
    73  H    0.025401
    74  H    0.029246
    75  H    0.026433
    76  H    0.034765
    77  H    0.045808
    78  H    0.032287
    79  H    0.044908
    80  H    0.023466
    81  H    0.039165
    82  H    0.033285
    83  H    0.048898
    84  H    0.036274
    85  H    0.034164
    86  H    0.036680
    87  H    0.025597
    88  H    0.026081
    89  H    0.016326
    90  H    0.031342
    91  H    0.014380
    92  H    0.012102
    93  H    0.022702
    94  H    0.023489
    95  H    0.028849
    96  H    0.031525
    97  H    0.023588
    98  H    0.046906
    99  H    0.049178
   100  H    0.042157
   101  H    0.024821
   102  H    0.066487
   103  H    0.050350
   104  H    0.041264
   105  H    0.024256
   106  H    0.028793
   107  H    0.030186
   108  H    0.020028
   109  H    0.028754
   110  H    0.021503
   111  H    0.026412
   112  H    0.022689
   113  H    0.018404
   114  H    0.016432
   115  H    0.015053
   116  H    0.015467
   117  H    0.018571
   118  H    0.023488
   119  H    0.018008
   120  H    0.010273
   121  H    0.023616
   122  H    0.015616
   123  H    0.011609
   124  H    0.022488
   125  H    0.019305
   126  H    0.021770
   127  H    0.018720
   128  H    0.018926
   129  H    0.024206
   130  H    0.021705
   131  H    0.008037
   132  H    0.015183
   133  H    0.016641
   134  H    0.018755
   135  H    0.021103
   136  H    0.014733
   137  H    0.022477
   138  H    0.013178
   139  H    0.018424
   140  H    0.020843
 Sum of Mulliken charges =  -0.00000

 Dipole moment (field-independent basis, Debye):
    X=             -2.9626    Y=              5.7084    Z=              1.8992  Tot=              6.7059
 N-N= 4.394465565516D+03 E-N= 0.000000000000D+00  KE=-9.462338600047D+03
 Leave Link  601 at Thu May  5 03:59:02 2022, MaxMem=  6710886400 cpu:               0.7 elap:               0.0
 (Enter /sw/apps/gaussian-16.0/g16/l9999.exe)
 1\1\GINC-BP1-COMPUTE141\SP\RZINDO CIS\STO-3G\C55H74Mg1N4O6\OF15641\05-
 May-2022\0\\#p ZINDO=(nstates=5)\\step_51_chromophore_17 ZINDO\\0,1\Mg
 ,0,29.721,58.649,41.493\C,0,26.653,57.269,40.249\C,0,31.26,55.892,39.8
 89\C,0,32.546,60.293,41.716\C,0,27.929,61.526,42.485\N,0,29.041,56.904
 ,40.063\C,0,27.787,56.591,39.699\C,0,27.774,55.372,38.825\C,0,29.157,5
 4.686,39.133\C,0,29.878,55.861,39.828\C,0,29.149,53.413,40.051\C,0,27.
 361,55.814,37.378\C,0,26.194,54.969,36.837\C,0,26.371,54.3,35.409\O,0,

 Normal termination of Gaussian 16 at Thu May  5 03:59:02 2022.
