 Gaussian 16, Revision A.03,
 Gaussian 16:  ES64L-G16RevA.03 25-Dec-2016

 ------------------------------
 #p blyp/Def2SVP td=(nstates=5)
 ------------------------------

 ---------------------------------------------------
 step_1251_chromophore_11 TDDFT with blyp functional
 ---------------------------------------------------
 Symbolic Z-matrix:
 Charge =  0 Multiplicity = 1

                         Standard orientation:
 ---------------------------------------------------------------------
 Center     Atomic      Atomic             Coordinates (Angstroms)
 Number     Number       Type             X           Y           Z
 ---------------------------------------------------------------------
      1         12           0       -4.696302    1.368346    0.729797
      2          6           0       -4.918166   -2.102294    0.470036
      3          6           0       -1.939890    0.948403    2.832369
      4          6           0       -3.557330    4.457607   -0.141865
      5          6           0       -7.418915    1.693913   -1.339282
      6          7           0       -3.456832   -0.422859    1.394733
      7          6           0       -3.804421   -1.791146    1.199454
      8          6           0       -3.009995   -2.657818    2.125809
      9          6           0       -2.370789   -1.618738    3.119107
     10          6           0       -2.564943   -0.288428    2.370149
     11          6           0       -3.088467   -1.673997    4.514062
     12          6           0       -1.899085   -3.495696    1.354263
     13          6           0       -1.544787   -3.047630   -0.080288
     14          6           0       -0.790396   -4.069270   -0.929508
     15          8           0       -1.142102   -4.420920   -2.049093
     16          8           0        0.406216   -4.279427   -0.361406
     17          7           0       -2.928312    2.488825    1.272396
     18          6           0       -2.096977    2.220135    2.336330
     19          6           0       -1.248843    3.340022    2.632248
     20          6           0       -1.590353    4.354572    1.615530
     21          6           0       -2.732535    3.806329    0.826130
     22          6           0       -0.323544    3.462584    3.864311
     23          6           0       -0.938401    5.781861    1.704873
     24          8           0       -0.192650    6.076485    2.613519
     25          6           0       -1.358366    6.812449    0.726774
     26          7           0       -5.372410    2.870919   -0.588691
     27          6           0       -4.808251    4.088852   -0.744361
     28          6           0       -5.744140    5.051306   -1.580365
     29          6           0       -6.952716    4.159084   -1.971318
     30          6           0       -6.565423    2.814605   -1.324273
     31          6           0       -6.116319    6.382478   -0.896179
     32          6           0       -7.243877    4.015917   -3.541806
     33          6           0       -8.484479    4.691696   -4.103358
     34          7           0       -6.143253    0.111868   -0.010407
     35          6           0       -7.203769    0.392482   -0.901056
     36          6           0       -7.885615   -0.827825   -1.150655
     37          6           0       -7.035104   -1.803780   -0.636504
     38          6           0       -5.943794   -1.222892   -0.001607
     39          6           0       -9.141010   -0.958687   -1.870148
     40          6           0       -6.905489   -3.275138   -0.304159
     41          8           0       -7.682456   -4.206630   -0.488061
     42          6           0       -5.497718   -3.496551    0.322961
     43          6           0       -4.710389   -4.394456   -0.569458
     44          8           0       -4.410712   -4.238264   -1.751189
     45          8           0       -4.387495   -5.548643    0.091556
     46          6           0       -3.858629   -6.688792   -0.659814
     47          6           0        1.352882   -5.159061   -1.095462
     48          6           0        2.619139   -4.329177   -1.126341
     49          6           0        3.557261   -4.263698   -0.170575
     50          6           0        3.488371   -4.852769    1.255933
     51          6           0        4.900792   -3.708923   -0.529402
     52          6           0        5.119804   -2.329262    0.098770
     53          6           0        6.158680   -1.458437   -0.739374
     54          6           0        6.079998    0.088876   -0.522931
     55          6           0        5.860698    0.914667   -1.796221
     56          6           0        7.311906    0.579350    0.318102
     57          6           0        8.742584    0.495996   -0.362648
     58          6           0        9.709285   -0.507015    0.238342
     59          6           0       10.941485    0.119531    0.925995
     60          6           0       10.722273    0.650539    2.426932
     61          6           0       11.649730    1.177314    0.043356
     62          6           0       13.199806    0.914161   -0.075624
     63          6           0       13.788595    1.054585   -1.509574
     64          6           0       15.105242    1.825472   -1.499965
     65          6           0       15.164384    2.954415   -2.668244
     66          6           0       16.267648    0.807467   -1.552776
     67          1           0       -1.426002    0.833450    3.789019
     68          1           0       -3.277635    5.496667   -0.325527
     69          1           0       -8.285122    1.907122   -1.970224
     70          1           0       -3.671127   -3.267193    2.741655
     71          1           0       -1.300496   -1.748691    3.275584
     72          1           0       -2.536147   -2.480103    4.997894
     73          1           0       -4.134536   -1.934462    4.348630
     74          1           0       -2.961503   -0.712838    5.011891
     75          1           0       -2.002353   -4.580590    1.375646
     76          1           0       -0.926764   -3.461135    1.847021
     77          1           0       -1.067428   -2.067703   -0.117488
     78          1           0       -2.472863   -2.790971   -0.590431
     79          1           0       -0.798462    4.041873    4.656069
     80          1           0        0.636075    3.866497    3.540788
     81          1           0       -0.119824    2.482431    4.295466
     82          1           0       -0.642638    7.633047    0.757956
     83          1           0       -2.398434    7.083482    0.912322
     84          1           0       -1.199980    6.441860   -0.285725
     85          1           0       -5.204224    5.220088   -2.512423
     86          1           0       -7.807810    4.401962   -1.340506
     87          1           0       -6.096726    7.228978   -1.582343
     88          1           0       -5.439641    6.542787   -0.057265
     89          1           0       -7.138710    6.267354   -0.535796
     90          1           0       -7.323679    2.976414   -3.859916
     91          1           0       -6.376105    4.320169   -4.126327
     92          1           0       -9.093101    5.037725   -3.268843
     93          1           0       -9.053380    4.043032   -4.769300
     94          1           0       -8.192580    5.525648   -4.742050
     95          1           0       -9.571486   -0.006897   -2.184453
     96          1           0       -9.911528   -1.313673   -1.186508
     97          1           0       -9.083569   -1.590090   -2.756513
     98          1           0       -5.660766   -4.006884    1.272143
     99          1           0       -3.564609   -6.446800   -1.681724
    100          1           0       -4.516776   -7.554241   -0.731367
    101          1           0       -2.897645   -6.983675   -0.239086
    102          1           0        1.039558   -5.388327   -2.113115
    103          1           0        1.455260   -6.033310   -0.452429
    104          1           0        2.878276   -4.164608   -2.171117
    105          1           0        4.281031   -5.595281    1.347944
    106          1           0        2.490653   -5.281479    1.353265
    107          1           0        3.760215   -3.964484    1.825318
    108          1           0        5.102265   -3.785188   -1.598247
    109          1           0        5.714277   -4.245294   -0.040189
    110          1           0        5.461963   -2.411744    1.130358
    111          1           0        4.141990   -1.849437    0.136813
    112          1           0        5.971745   -1.702281   -1.784636
    113          1           0        7.156786   -1.877106   -0.607678
    114          1           0        5.197872    0.352501    0.059057
    115          1           0        6.262406    0.447177   -2.694164
    116          1           0        6.535375    1.758898   -1.649132
    117          1           0        4.911327    1.425754   -1.959988
    118          1           0        7.246756   -0.103476    1.165342
    119          1           0        7.047394    1.616684    0.524903
    120          1           0        9.190694    1.489630   -0.379509
    121          1           0        8.540411    0.168758   -1.382275
    122          1           0        9.876785   -1.284972   -0.506922
    123          1           0        9.150929   -0.972264    1.051081
    124          1           0       11.545927   -0.786973    0.952943
    125          1           0       11.168190   -0.148979    3.019991
    126          1           0        9.634814    0.723438    2.412152
    127          1           0       11.129561    1.640908    2.627724
    128          1           0       11.542508    2.177333    0.463492
    129          1           0       11.314428    1.258710   -0.990422
    130          1           0       13.457957   -0.030164    0.403171
    131          1           0       13.600898    1.705483    0.557548
    132          1           0       13.045117    1.569460   -2.118695
    133          1           0       13.757315    0.075894   -1.988135
    134          1           0       15.310686    2.353486   -0.568362
    135          1           0       14.164101    2.972893   -3.101354
    136          1           0       15.961129    2.898756   -3.409376
    137          1           0       15.168022    3.920726   -2.164156
    138          1           0       16.697912    0.769354   -2.553827
    139          1           0       15.959570   -0.205146   -1.293476
    140          1           0       16.894531    1.066656   -0.698754
 ---------------------------------------------------------------------

 SCF Done:  E(RB-LYP) =  -3007.34731817     A.U. after   20 cycles

 Excitation energies and oscillator strengths:

 Excited State   1:      Singlet-A      1.8034 eV  687.51 nm  f=0.2500  <S**2>=0.000
     245 -> 248       -0.19354
     246 -> 247        0.68005
     246 <- 247       -0.13732
 This state for optimization and/or second-order correction.
 Total Energy, E(TD-HF/TD-DFT) =  -3007.28104557
 Copying the excited state density for this state as the 1-particle RhoCI density.

 Excited State   2:      Singlet-A      1.8603 eV  666.46 nm  f=0.0057  <S**2>=0.000
     244 -> 247        0.70108

 Excited State   3:      Singlet-A      2.0316 eV  610.29 nm  f=0.0068  <S**2>=0.000
     243 -> 247        0.65910
     245 -> 247        0.22494

 Excited State   4:      Singlet-A      2.0562 eV  602.99 nm  f=0.0588  <S**2>=0.000
     240 -> 247       -0.11306
     243 -> 247       -0.24301
     245 -> 247        0.58659
     246 -> 248        0.26222

 Excited State   5:      Singlet-A      2.2895 eV  541.54 nm  f=0.0004  <S**2>=0.000
     240 -> 247       -0.26897
     241 -> 247        0.64714

 The electronic state is 1-A.
 Alpha  occ. eigenvalues --  -46.27474 -18.81610 -18.81156 -18.75928 -18.75456
 Alpha  occ. eigenvalues --  -18.75348 -18.75341 -14.03544 -14.03173 -14.00839
 Alpha  occ. eigenvalues --  -14.00432 -10.03047 -10.02857 -10.00101  -9.99539
 Alpha  occ. eigenvalues --   -9.97533  -9.97451  -9.97038  -9.96816  -9.96732
 Alpha  occ. eigenvalues --   -9.96438  -9.96283  -9.95287  -9.95151  -9.94800
 Alpha  occ. eigenvalues --   -9.94714  -9.94552  -9.94402  -9.94157  -9.94062
 Alpha  occ. eigenvalues --   -9.93829  -9.93651  -9.93458  -9.93373  -9.93274
 Alpha  occ. eigenvalues --   -9.93232  -9.93197  -9.93093  -9.93082  -9.92901
 Alpha  occ. eigenvalues --   -9.92790  -9.92758  -9.92724  -9.92273  -9.92121
 Alpha  occ. eigenvalues --   -9.92114  -9.92029  -9.91956  -9.91871  -9.91819
 Alpha  occ. eigenvalues --   -9.91782  -9.91721  -9.91662  -9.91529  -9.91412
 Alpha  occ. eigenvalues --   -9.91239  -9.91098  -9.90960  -9.90822  -9.90764
 Alpha  occ. eigenvalues --   -9.90732  -9.90731  -9.90713  -9.90664  -9.90428
 Alpha  occ. eigenvalues --   -9.90403  -2.92019  -1.72428  -1.71931  -1.71711
 Alpha  occ. eigenvalues --   -0.97453  -0.96612  -0.92375  -0.90625  -0.88816
 Alpha  occ. eigenvalues --   -0.88023  -0.86120  -0.85536  -0.85100  -0.83847
 Alpha  occ. eigenvalues --   -0.75405  -0.73929  -0.72681  -0.72555  -0.72121
 Alpha  occ. eigenvalues --   -0.71497  -0.71355  -0.70507  -0.70423  -0.70169
 Alpha  occ. eigenvalues --   -0.69212  -0.68470  -0.68035  -0.67805  -0.66969
 Alpha  occ. eigenvalues --   -0.66264  -0.66154  -0.65385  -0.64790  -0.64620
 Alpha  occ. eigenvalues --   -0.63640  -0.62458  -0.62184  -0.61063  -0.60601
 Alpha  occ. eigenvalues --   -0.60477  -0.59970  -0.59859  -0.59353  -0.58666
 Alpha  occ. eigenvalues --   -0.58087  -0.57671  -0.56920  -0.55388  -0.54625
 Alpha  occ. eigenvalues --   -0.54226  -0.53535  -0.52468  -0.52257  -0.51909
 Alpha  occ. eigenvalues --   -0.51752  -0.50859  -0.50471  -0.50183  -0.49787
 Alpha  occ. eigenvalues --   -0.49333  -0.48477  -0.48283  -0.47017  -0.46100
 Alpha  occ. eigenvalues --   -0.45626  -0.45511  -0.45240  -0.45056  -0.44470
 Alpha  occ. eigenvalues --   -0.44123  -0.43672  -0.43060  -0.42518  -0.42214
 Alpha  occ. eigenvalues --   -0.42057  -0.41865  -0.41273  -0.41040  -0.40763
 Alpha  occ. eigenvalues --   -0.40377  -0.40176  -0.40155  -0.40022  -0.39707
 Alpha  occ. eigenvalues --   -0.39587  -0.39440  -0.39154  -0.39039  -0.38963
 Alpha  occ. eigenvalues --   -0.38775  -0.38565  -0.38483  -0.38387  -0.38234
 Alpha  occ. eigenvalues --   -0.37808  -0.37646  -0.37493  -0.37307  -0.36996
 Alpha  occ. eigenvalues --   -0.36907  -0.36790  -0.36593  -0.36362  -0.36339
 Alpha  occ. eigenvalues --   -0.36155  -0.36123  -0.35929  -0.35683  -0.35628
 Alpha  occ. eigenvalues --   -0.35247  -0.35065  -0.34789  -0.34701  -0.34575
 Alpha  occ. eigenvalues --   -0.34208  -0.33921  -0.33892  -0.33817  -0.33736
 Alpha  occ. eigenvalues --   -0.33655  -0.33568  -0.33515  -0.33289  -0.33146
 Alpha  occ. eigenvalues --   -0.32963  -0.32755  -0.32372  -0.32346  -0.32078
 Alpha  occ. eigenvalues --   -0.31732  -0.31482  -0.31415  -0.31323  -0.31194
 Alpha  occ. eigenvalues --   -0.31135  -0.30925  -0.30807  -0.30704  -0.30383
 Alpha  occ. eigenvalues --   -0.30353  -0.30133  -0.30067  -0.29786  -0.29643
 Alpha  occ. eigenvalues --   -0.29612  -0.29231  -0.29214  -0.29150  -0.28964
 Alpha  occ. eigenvalues --   -0.28860  -0.28116  -0.28022  -0.27815  -0.27676
 Alpha  occ. eigenvalues --   -0.27302  -0.27161  -0.26829  -0.26531  -0.26523
 Alpha  occ. eigenvalues --   -0.26061  -0.25981  -0.25678  -0.25169  -0.25030
 Alpha  occ. eigenvalues --   -0.24336  -0.24135  -0.23987  -0.23700  -0.23358
 Alpha  occ. eigenvalues --   -0.22750  -0.22194  -0.21301  -0.20619  -0.20063
 Alpha  occ. eigenvalues --   -0.19911  -0.19817  -0.18912  -0.18301  -0.17523
 Alpha  occ. eigenvalues --   -0.15946
 Alpha virt. eigenvalues --   -0.11546  -0.07237  -0.05851  -0.04545  -0.03472
 Alpha virt. eigenvalues --   -0.03149  -0.02051  -0.01695  -0.01351  -0.00368
 Alpha virt. eigenvalues --    0.00894   0.02112   0.02376   0.02568   0.02951

 Mulliken charges:
               1
     1  Mg   0.682765
     2  C    0.060015
     3  C   -0.061181
     4  C   -0.042230
     5  C   -0.061774
     6  N   -0.196176
     7  C   -0.123547
     8  C    0.116138
     9  C   -0.038454
    10  C   -0.006995
    11  C    0.128238
    12  C    0.081942
    13  C    0.115191
    14  C    0.067808
    15  O   -0.177951
    16  O   -0.263319
    17  N   -0.294065
    18  C    0.149525
    19  C   -0.143045
    20  C   -0.029256
    21  C    0.135665
    22  C    0.191589
    23  C   -0.076867
    24  O   -0.150501
    25  C    0.145136
    26  N   -0.240065
    27  C   -0.006380
    28  C    0.043186
    29  C    0.050121
    30  C   -0.049598
    31  C    0.146732
    32  C    0.083743
    33  C    0.071636
    34  N   -0.307825
    35  C    0.158480
    36  C   -0.144292
    37  C    0.055785
    38  C    0.079959
    39  C    0.180935
    40  C   -0.040039
    41  O   -0.135195
    42  C    0.105468
    43  C    0.097426
    44  O   -0.169167
    45  O   -0.272068
    46  C    0.203714
    47  C    0.301819
    48  C   -0.095455
    49  C   -0.144187
    50  C    0.169024
    51  C    0.136663
    52  C    0.025301
    53  C    0.096382
    54  C   -0.058268
    55  C    0.119491
    56  C    0.074936
    57  C    0.066430
    58  C    0.075538
    59  C   -0.071676
    60  C    0.112825
    61  C    0.073482
    62  C    0.053428
    63  C    0.111333
    64  C   -0.098802
    65  C    0.098335
    66  C    0.106539
    67  H   -0.047632
    68  H   -0.085091
    69  H   -0.066532
    70  H   -0.028650
    71  H   -0.028525
    72  H    0.005299
    73  H    0.004083
    74  H   -0.004413
    75  H   -0.027535
    76  H   -0.033048
    77  H   -0.005434
    78  H    0.010321
    79  H    0.014128
    80  H    0.013761
    81  H   -0.032421
    82  H   -0.012951
    83  H    0.032528
    84  H    0.006423
    85  H   -0.023723
    86  H   -0.013169
    87  H   -0.002560
    88  H   -0.003580
    89  H   -0.017175
    90  H   -0.015405
    91  H   -0.028750
    92  H   -0.007338
    93  H   -0.006772
    94  H   -0.010630
    95  H   -0.038209
    96  H   -0.000000
    97  H    0.016135
    98  H   -0.012528
    99  H    0.027520
   100  H    0.019614
   101  H   -0.000375
   102  H    0.005299
   103  H   -0.008016
   104  H   -0.033521
   105  H    0.003569
   106  H    0.002202
   107  H   -0.000995
   108  H   -0.023482
   109  H   -0.041445
   110  H   -0.014484
   111  H   -0.019523
   112  H   -0.045937
   113  H   -0.034269
   114  H   -0.040447
   115  H   -0.017300
   116  H   -0.043915
   117  H   -0.007200
   118  H   -0.022979
   119  H   -0.032844
   120  H   -0.017162
   121  H   -0.036783
   122  H   -0.026621
   123  H   -0.046937
   124  H   -0.038242
   125  H    0.002287
   126  H   -0.005054
   127  H   -0.007443
   128  H   -0.031417
   129  H   -0.021912
   130  H   -0.028115
   131  H   -0.040145
   132  H   -0.045503
   133  H   -0.028533
   134  H   -0.022912
   135  H   -0.026712
   136  H    0.000724
   137  H   -0.021703
   138  H   -0.007302
   139  H   -0.025577
   140  H   -0.021361
 Sum of Mulliken charges =  -0.00000

 Dipole moment (field-independent basis, Debye):
    X=              1.2834    Y=              2.7452    Z=              2.4079  Tot=              3.8705
 Quadrupole moment (field-independent basis, Debye-Ang):
   XX=           -397.4934   YY=           -398.4143   ZZ=           -402.3687
   XY=            -59.8121   XZ=             -4.8619   YZ=            -31.7316

 Normal termination of Gaussian 16 at Wed May  4 02:09:01 2022.
