 Gaussian 16, Revision A.03,
 Gaussian 16:  ES64L-G16RevA.03 25-Dec-2016

 -----------------------------------
 #p cam-b3lyp/Def2SVP td=(nstates=5)
 -----------------------------------

 --------------------------------------------------------
 step_1251_chromophore_11 TDDFT with cam-b3lyp functional
 --------------------------------------------------------
 Symbolic Z-matrix:
 Charge =  0 Multiplicity = 1

                         Standard orientation:
 ---------------------------------------------------------------------
 Center     Atomic      Atomic             Coordinates (Angstroms)
 Number     Number       Type             X           Y           Z
 ---------------------------------------------------------------------
      1         12           0       -4.696302    1.368346    0.729797
      2          6           0       -4.918166   -2.102294    0.470036
      3          6           0       -1.939890    0.948403    2.832369
      4          6           0       -3.557330    4.457607   -0.141865
      5          6           0       -7.418915    1.693913   -1.339282
      6          7           0       -3.456832   -0.422859    1.394733
      7          6           0       -3.804421   -1.791146    1.199454
      8          6           0       -3.009995   -2.657818    2.125809
      9          6           0       -2.370789   -1.618738    3.119107
     10          6           0       -2.564943   -0.288428    2.370149
     11          6           0       -3.088467   -1.673997    4.514062
     12          6           0       -1.899085   -3.495696    1.354263
     13          6           0       -1.544787   -3.047630   -0.080288
     14          6           0       -0.790396   -4.069270   -0.929508
     15          8           0       -1.142102   -4.420920   -2.049093
     16          8           0        0.406216   -4.279427   -0.361406
     17          7           0       -2.928312    2.488825    1.272396
     18          6           0       -2.096977    2.220135    2.336330
     19          6           0       -1.248843    3.340022    2.632248
     20          6           0       -1.590353    4.354572    1.615530
     21          6           0       -2.732535    3.806329    0.826130
     22          6           0       -0.323544    3.462584    3.864311
     23          6           0       -0.938401    5.781861    1.704873
     24          8           0       -0.192650    6.076485    2.613519
     25          6           0       -1.358366    6.812449    0.726774
     26          7           0       -5.372410    2.870919   -0.588691
     27          6           0       -4.808251    4.088852   -0.744361
     28          6           0       -5.744140    5.051306   -1.580365
     29          6           0       -6.952716    4.159084   -1.971318
     30          6           0       -6.565423    2.814605   -1.324273
     31          6           0       -6.116319    6.382478   -0.896179
     32          6           0       -7.243877    4.015917   -3.541806
     33          6           0       -8.484479    4.691696   -4.103358
     34          7           0       -6.143253    0.111868   -0.010407
     35          6           0       -7.203769    0.392482   -0.901056
     36          6           0       -7.885615   -0.827825   -1.150655
     37          6           0       -7.035104   -1.803780   -0.636504
     38          6           0       -5.943794   -1.222892   -0.001607
     39          6           0       -9.141010   -0.958687   -1.870148
     40          6           0       -6.905489   -3.275138   -0.304159
     41          8           0       -7.682456   -4.206630   -0.488061
     42          6           0       -5.497718   -3.496551    0.322961
     43          6           0       -4.710389   -4.394456   -0.569458
     44          8           0       -4.410712   -4.238264   -1.751189
     45          8           0       -4.387495   -5.548643    0.091556
     46          6           0       -3.858629   -6.688792   -0.659814
     47          6           0        1.352882   -5.159061   -1.095462
     48          6           0        2.619139   -4.329177   -1.126341
     49          6           0        3.557261   -4.263698   -0.170575
     50          6           0        3.488371   -4.852769    1.255933
     51          6           0        4.900792   -3.708923   -0.529402
     52          6           0        5.119804   -2.329262    0.098770
     53          6           0        6.158680   -1.458437   -0.739374
     54          6           0        6.079998    0.088876   -0.522931
     55          6           0        5.860698    0.914667   -1.796221
     56          6           0        7.311906    0.579350    0.318102
     57          6           0        8.742584    0.495996   -0.362648
     58          6           0        9.709285   -0.507015    0.238342
     59          6           0       10.941485    0.119531    0.925995
     60          6           0       10.722273    0.650539    2.426932
     61          6           0       11.649730    1.177314    0.043356
     62          6           0       13.199806    0.914161   -0.075624
     63          6           0       13.788595    1.054585   -1.509574
     64          6           0       15.105242    1.825472   -1.499965
     65          6           0       15.164384    2.954415   -2.668244
     66          6           0       16.267648    0.807467   -1.552776
     67          1           0       -1.426002    0.833450    3.789019
     68          1           0       -3.277635    5.496667   -0.325527
     69          1           0       -8.285122    1.907122   -1.970224
     70          1           0       -3.671127   -3.267193    2.741655
     71          1           0       -1.300496   -1.748691    3.275584
     72          1           0       -2.536147   -2.480103    4.997894
     73          1           0       -4.134536   -1.934462    4.348630
     74          1           0       -2.961503   -0.712838    5.011891
     75          1           0       -2.002353   -4.580590    1.375646
     76          1           0       -0.926764   -3.461135    1.847021
     77          1           0       -1.067428   -2.067703   -0.117488
     78          1           0       -2.472863   -2.790971   -0.590431
     79          1           0       -0.798462    4.041873    4.656069
     80          1           0        0.636075    3.866497    3.540788
     81          1           0       -0.119824    2.482431    4.295466
     82          1           0       -0.642638    7.633047    0.757956
     83          1           0       -2.398434    7.083482    0.912322
     84          1           0       -1.199980    6.441860   -0.285725
     85          1           0       -5.204224    5.220088   -2.512423
     86          1           0       -7.807810    4.401962   -1.340506
     87          1           0       -6.096726    7.228978   -1.582343
     88          1           0       -5.439641    6.542787   -0.057265
     89          1           0       -7.138710    6.267354   -0.535796
     90          1           0       -7.323679    2.976414   -3.859916
     91          1           0       -6.376105    4.320169   -4.126327
     92          1           0       -9.093101    5.037725   -3.268843
     93          1           0       -9.053380    4.043032   -4.769300
     94          1           0       -8.192580    5.525648   -4.742050
     95          1           0       -9.571486   -0.006897   -2.184453
     96          1           0       -9.911528   -1.313673   -1.186508
     97          1           0       -9.083569   -1.590090   -2.756513
     98          1           0       -5.660766   -4.006884    1.272143
     99          1           0       -3.564609   -6.446800   -1.681724
    100          1           0       -4.516776   -7.554241   -0.731367
    101          1           0       -2.897645   -6.983675   -0.239086
    102          1           0        1.039558   -5.388327   -2.113115
    103          1           0        1.455260   -6.033310   -0.452429
    104          1           0        2.878276   -4.164608   -2.171117
    105          1           0        4.281031   -5.595281    1.347944
    106          1           0        2.490653   -5.281479    1.353265
    107          1           0        3.760215   -3.964484    1.825318
    108          1           0        5.102265   -3.785188   -1.598247
    109          1           0        5.714277   -4.245294   -0.040189
    110          1           0        5.461963   -2.411744    1.130358
    111          1           0        4.141990   -1.849437    0.136813
    112          1           0        5.971745   -1.702281   -1.784636
    113          1           0        7.156786   -1.877106   -0.607678
    114          1           0        5.197872    0.352501    0.059057
    115          1           0        6.262406    0.447177   -2.694164
    116          1           0        6.535375    1.758898   -1.649132
    117          1           0        4.911327    1.425754   -1.959988
    118          1           0        7.246756   -0.103476    1.165342
    119          1           0        7.047394    1.616684    0.524903
    120          1           0        9.190694    1.489630   -0.379509
    121          1           0        8.540411    0.168758   -1.382275
    122          1           0        9.876785   -1.284972   -0.506922
    123          1           0        9.150929   -0.972264    1.051081
    124          1           0       11.545927   -0.786973    0.952943
    125          1           0       11.168190   -0.148979    3.019991
    126          1           0        9.634814    0.723438    2.412152
    127          1           0       11.129561    1.640908    2.627724
    128          1           0       11.542508    2.177333    0.463492
    129          1           0       11.314428    1.258710   -0.990422
    130          1           0       13.457957   -0.030164    0.403171
    131          1           0       13.600898    1.705483    0.557548
    132          1           0       13.045117    1.569460   -2.118695
    133          1           0       13.757315    0.075894   -1.988135
    134          1           0       15.310686    2.353486   -0.568362
    135          1           0       14.164101    2.972893   -3.101354
    136          1           0       15.961129    2.898756   -3.409376
    137          1           0       15.168022    3.920726   -2.164156
    138          1           0       16.697912    0.769354   -2.553827
    139          1           0       15.959570   -0.205146   -1.293476
    140          1           0       16.894531    1.066656   -0.698754
 ---------------------------------------------------------------------

 SCF Done:  E(RCAM-B3LYP) =  -3007.13400693     A.U. after   17 cycles

 Excitation energies and oscillator strengths:

 Excited State   1:      Singlet-A      1.7979 eV  689.61 nm  f=0.3292  <S**2>=0.000
     245 -> 248       -0.17182
     246 -> 247        0.68608
 This state for optimization and/or second-order correction.
 Total Energy, E(TD-HF/TD-DFT) =  -3007.06793600
 Copying the excited state density for this state as the 1-particle RhoCI density.

 Excited State   2:      Singlet-A      2.2938 eV  540.51 nm  f=0.0776  <S**2>=0.000
     245 -> 247        0.61756
     246 -> 248        0.32349

 Excited State   3:      Singlet-A      3.2026 eV  387.13 nm  f=0.0090  <S**2>=0.000
     242 -> 247       -0.22373
     243 -> 247        0.61210
     244 -> 247       -0.16484
     246 -> 248       -0.17835

 Excited State   4:      Singlet-A      3.4052 eV  364.10 nm  f=0.0152  <S**2>=0.000
     243 -> 247        0.10860
     244 -> 247        0.65350
     246 -> 248       -0.17847

 Excited State   5:      Singlet-A      3.5499 eV  349.26 nm  f=0.9261  <S**2>=0.000
     243 -> 247        0.18705
     244 -> 247        0.12436
     245 -> 247       -0.34353
     246 -> 248        0.56831
     245 <- 247        0.10721

 The electronic state is 1-A.
 Alpha  occ. eigenvalues --  -46.89067 -19.24409 -19.23937 -19.19582 -19.18276
 Alpha  occ. eigenvalues --  -19.18275 -19.18050 -14.42333 -14.42292 -14.39539
 Alpha  occ. eigenvalues --  -14.38488 -10.38352 -10.37999 -10.35722 -10.34458
 Alpha  occ. eigenvalues --  -10.32552 -10.32324 -10.31904 -10.31598 -10.30692
 Alpha  occ. eigenvalues --  -10.30464 -10.30335 -10.30308 -10.29658 -10.28786
 Alpha  occ. eigenvalues --  -10.28615 -10.28607 -10.28567 -10.28511 -10.28290
 Alpha  occ. eigenvalues --  -10.28081 -10.28052 -10.27773 -10.27649 -10.27602
 Alpha  occ. eigenvalues --  -10.27349 -10.27149 -10.26897 -10.26877 -10.26627
 Alpha  occ. eigenvalues --  -10.26608 -10.26587 -10.26510 -10.26430 -10.26246
 Alpha  occ. eigenvalues --  -10.25793 -10.25663 -10.25659 -10.25630 -10.25612
 Alpha  occ. eigenvalues --  -10.25507 -10.25408 -10.25287 -10.25110 -10.25079
 Alpha  occ. eigenvalues --  -10.24913 -10.24879 -10.24620 -10.24490 -10.24477
 Alpha  occ. eigenvalues --  -10.24470 -10.24434 -10.24363 -10.24207 -10.24057
 Alpha  occ. eigenvalues --  -10.23986  -3.17509  -1.92396  -1.91986  -1.91784
 Alpha  occ. eigenvalues --   -1.15816  -1.14982  -1.11238  -1.08580  -1.06586
 Alpha  occ. eigenvalues --   -1.05774  -1.03826  -1.03200  -1.02409  -1.01719
 Alpha  occ. eigenvalues --   -0.92310  -0.90821  -0.89527  -0.89153  -0.88885
 Alpha  occ. eigenvalues --   -0.88208  -0.88179  -0.87078  -0.87002  -0.86227
 Alpha  occ. eigenvalues --   -0.85599  -0.85487  -0.84359  -0.83870  -0.83279
 Alpha  occ. eigenvalues --   -0.82523  -0.82283  -0.81393  -0.80533  -0.80393
 Alpha  occ. eigenvalues --   -0.79444  -0.77882  -0.77684  -0.77023  -0.75945
 Alpha  occ. eigenvalues --   -0.75805  -0.75338  -0.75134  -0.74683  -0.73921
 Alpha  occ. eigenvalues --   -0.73148  -0.72632  -0.71880  -0.70281  -0.69112
 Alpha  occ. eigenvalues --   -0.68926  -0.68080  -0.67037  -0.66608  -0.66163
 Alpha  occ. eigenvalues --   -0.65919  -0.65018  -0.64528  -0.64136  -0.63619
 Alpha  occ. eigenvalues --   -0.63339  -0.62397  -0.61776  -0.60754  -0.59832
 Alpha  occ. eigenvalues --   -0.59132  -0.59015  -0.58783  -0.58407  -0.57930
 Alpha  occ. eigenvalues --   -0.57500  -0.56976  -0.56212  -0.55663  -0.55446
 Alpha  occ. eigenvalues --   -0.54954  -0.54639  -0.54279  -0.53761  -0.53603
 Alpha  occ. eigenvalues --   -0.53450  -0.52982  -0.52810  -0.52660  -0.52540
 Alpha  occ. eigenvalues --   -0.52424  -0.51962  -0.51906  -0.51704  -0.51555
 Alpha  occ. eigenvalues --   -0.51457  -0.51212  -0.50900  -0.50737  -0.50646
 Alpha  occ. eigenvalues --   -0.50482  -0.50166  -0.49897  -0.49758  -0.49630
 Alpha  occ. eigenvalues --   -0.49165  -0.48939  -0.48872  -0.48656  -0.48488
 Alpha  occ. eigenvalues --   -0.48436  -0.48392  -0.48346  -0.48078  -0.47681
 Alpha  occ. eigenvalues --   -0.47563  -0.47121  -0.46795  -0.46677  -0.46507
 Alpha  occ. eigenvalues --   -0.46057  -0.45998  -0.45838  -0.45805  -0.45587
 Alpha  occ. eigenvalues --   -0.45479  -0.45352  -0.45264  -0.44963  -0.44860
 Alpha  occ. eigenvalues --   -0.44640  -0.44268  -0.44048  -0.43771  -0.43636
 Alpha  occ. eigenvalues --   -0.43362  -0.43163  -0.43073  -0.42871  -0.42730
 Alpha  occ. eigenvalues --   -0.42561  -0.42508  -0.42238  -0.42071  -0.41836
 Alpha  occ. eigenvalues --   -0.41693  -0.41571  -0.41451  -0.40941  -0.40928
 Alpha  occ. eigenvalues --   -0.40853  -0.40407  -0.40376  -0.40335  -0.40279
 Alpha  occ. eigenvalues --   -0.39990  -0.39942  -0.39270  -0.38799  -0.38641
 Alpha  occ. eigenvalues --   -0.38301  -0.38216  -0.37622  -0.37396  -0.37312
 Alpha  occ. eigenvalues --   -0.37051  -0.36734  -0.36690  -0.35877  -0.35641
 Alpha  occ. eigenvalues --   -0.35418  -0.34972  -0.34739  -0.34446  -0.33577
 Alpha  occ. eigenvalues --   -0.33129  -0.33007  -0.32647  -0.31575  -0.31028
 Alpha  occ. eigenvalues --   -0.30180  -0.29900  -0.29758  -0.28659  -0.24483
 Alpha  occ. eigenvalues --   -0.21325
 Alpha virt. eigenvalues --   -0.08479  -0.02135   0.00664   0.01617   0.02655
 Alpha virt. eigenvalues --    0.04165   0.05251   0.05993   0.06424   0.06803
 Alpha virt. eigenvalues --    0.08222   0.08480   0.08680   0.08782   0.09192

 Mulliken charges:
               1
     1  Mg   0.811974
     2  C    0.044767
     3  C   -0.077368
     4  C   -0.074233
     5  C   -0.067886
     6  N   -0.256927
     7  C   -0.089026
     8  C    0.055363
     9  C   -0.090040
    10  C    0.019425
    11  C    0.072018
    12  C    0.034502
    13  C    0.045246
    14  C    0.149012
    15  O   -0.220290
    16  O   -0.326365
    17  N   -0.382279
    18  C    0.165200
    19  C   -0.145875
    20  C   -0.089607
    21  C    0.172053
    22  C    0.138820
    23  C    0.003986
    24  O   -0.188314
    25  C    0.055767
    26  N   -0.313898
    27  C    0.027752
    28  C   -0.012910
    29  C   -0.009595
    30  C   -0.026740
    31  C    0.087369
    32  C    0.025860
    33  C    0.010688
    34  N   -0.393836
    35  C    0.151842
    36  C   -0.153873
    37  C   -0.005941
    38  C    0.101608
    39  C    0.128992
    40  C    0.055832
    41  O   -0.177613
    42  C    0.015474
    43  C    0.188483
    44  O   -0.205651
    45  O   -0.336455
    46  C    0.169170
    47  C    0.259978
    48  C   -0.115077
    49  C   -0.163416
    50  C    0.111981
    51  C    0.071604
    52  C   -0.021407
    53  C    0.043606
    54  C   -0.112330
    55  C    0.056595
    56  C    0.029514
    57  C    0.002434
    58  C    0.026620
    59  C   -0.125502
    60  C    0.057372
    61  C    0.016491
    62  C    0.007297
    63  C    0.050488
    64  C   -0.160556
    65  C    0.041246
    66  C    0.050047
    67  H   -0.014194
    68  H   -0.050848
    69  H   -0.034417
    70  H    0.008747
    71  H    0.007147
    72  H    0.031014
    73  H    0.028286
    74  H    0.019145
    75  H    0.003465
    76  H   -0.000992
    77  H    0.026545
    78  H    0.041249
    79  H    0.043572
    80  H    0.043673
    81  H   -0.003768
    82  H    0.024699
    83  H    0.057999
    84  H    0.035898
    85  H    0.011923
    86  H    0.020697
    87  H    0.023152
    88  H    0.018494
    89  H    0.008794
    90  H    0.016055
    91  H   -0.000282
    92  H    0.014361
    93  H    0.017594
    94  H    0.012010
    95  H   -0.014198
    96  H    0.024093
    97  H    0.038799
    98  H    0.033226
    99  H    0.054483
   100  H    0.040808
   101  H    0.017733
   102  H    0.041809
   103  H    0.019913
   104  H   -0.001780
   105  H    0.027820
   106  H    0.025482
   107  H    0.021465
   108  H    0.007295
   109  H   -0.010212
   110  H    0.008746
   111  H    0.008325
   112  H   -0.015859
   113  H   -0.008694
   114  H   -0.006592
   115  H    0.006285
   116  H   -0.018524
   117  H    0.018582
   118  H    0.001222
   119  H   -0.003629
   120  H    0.011461
   121  H   -0.007673
   122  H    0.002426
   123  H   -0.017727
   124  H   -0.005546
   125  H    0.025414
   126  H    0.014834
   127  H    0.016125
   128  H   -0.003672
   129  H    0.005054
   130  H   -0.001637
   131  H   -0.011692
   132  H   -0.016788
   133  H    0.000827
   134  H    0.008943
   135  H   -0.002802
   136  H    0.023586
   137  H    0.002206
   138  H    0.015412
   139  H   -0.001444
   140  H    0.002612
 Sum of Mulliken charges =  -0.00000

 Dipole moment (field-independent basis, Debye):
    X=              2.3393    Y=              3.6756    Z=              3.1368  Tot=              5.3686
 Quadrupole moment (field-independent basis, Debye-Ang):
   XX=           -407.8652   YY=           -392.2786   ZZ=           -400.4264
   XY=            -63.6617   XZ=             -7.0827   YZ=            -31.9574

 Normal termination of Gaussian 16 at Wed May  4 01:12:04 2022.
