 Gaussian 16, Revision A.03,
 Gaussian 16:  ES64L-G16RevA.03 25-Dec-2016

 ---------------------------------
 #p PBE1PBE/Def2SVP td=(nstates=5)
 ---------------------------------

 ------------------------------------------------------
 step_1251_chromophore_11 TDDFT with PBE1PBE functional
 ------------------------------------------------------
 Symbolic Z-matrix:
 Charge =  0 Multiplicity = 1

                         Standard orientation:
 ---------------------------------------------------------------------
 Center     Atomic      Atomic             Coordinates (Angstroms)
 Number     Number       Type             X           Y           Z
 ---------------------------------------------------------------------
      1         12           0       -4.696302    1.368346    0.729797
      2          6           0       -4.918166   -2.102294    0.470036
      3          6           0       -1.939890    0.948403    2.832369
      4          6           0       -3.557330    4.457607   -0.141865
      5          6           0       -7.418915    1.693913   -1.339282
      6          7           0       -3.456832   -0.422859    1.394733
      7          6           0       -3.804421   -1.791146    1.199454
      8          6           0       -3.009995   -2.657818    2.125809
      9          6           0       -2.370789   -1.618738    3.119107
     10          6           0       -2.564943   -0.288428    2.370149
     11          6           0       -3.088467   -1.673997    4.514062
     12          6           0       -1.899085   -3.495696    1.354263
     13          6           0       -1.544787   -3.047630   -0.080288
     14          6           0       -0.790396   -4.069270   -0.929508
     15          8           0       -1.142102   -4.420920   -2.049093
     16          8           0        0.406216   -4.279427   -0.361406
     17          7           0       -2.928312    2.488825    1.272396
     18          6           0       -2.096977    2.220135    2.336330
     19          6           0       -1.248843    3.340022    2.632248
     20          6           0       -1.590353    4.354572    1.615530
     21          6           0       -2.732535    3.806329    0.826130
     22          6           0       -0.323544    3.462584    3.864311
     23          6           0       -0.938401    5.781861    1.704873
     24          8           0       -0.192650    6.076485    2.613519
     25          6           0       -1.358366    6.812449    0.726774
     26          7           0       -5.372410    2.870919   -0.588691
     27          6           0       -4.808251    4.088852   -0.744361
     28          6           0       -5.744140    5.051306   -1.580365
     29          6           0       -6.952716    4.159084   -1.971318
     30          6           0       -6.565423    2.814605   -1.324273
     31          6           0       -6.116319    6.382478   -0.896179
     32          6           0       -7.243877    4.015917   -3.541806
     33          6           0       -8.484479    4.691696   -4.103358
     34          7           0       -6.143253    0.111868   -0.010407
     35          6           0       -7.203769    0.392482   -0.901056
     36          6           0       -7.885615   -0.827825   -1.150655
     37          6           0       -7.035104   -1.803780   -0.636504
     38          6           0       -5.943794   -1.222892   -0.001607
     39          6           0       -9.141010   -0.958687   -1.870148
     40          6           0       -6.905489   -3.275138   -0.304159
     41          8           0       -7.682456   -4.206630   -0.488061
     42          6           0       -5.497718   -3.496551    0.322961
     43          6           0       -4.710389   -4.394456   -0.569458
     44          8           0       -4.410712   -4.238264   -1.751189
     45          8           0       -4.387495   -5.548643    0.091556
     46          6           0       -3.858629   -6.688792   -0.659814
     47          6           0        1.352882   -5.159061   -1.095462
     48          6           0        2.619139   -4.329177   -1.126341
     49          6           0        3.557261   -4.263698   -0.170575
     50          6           0        3.488371   -4.852769    1.255933
     51          6           0        4.900792   -3.708923   -0.529402
     52          6           0        5.119804   -2.329262    0.098770
     53          6           0        6.158680   -1.458437   -0.739374
     54          6           0        6.079998    0.088876   -0.522931
     55          6           0        5.860698    0.914667   -1.796221
     56          6           0        7.311906    0.579350    0.318102
     57          6           0        8.742584    0.495996   -0.362648
     58          6           0        9.709285   -0.507015    0.238342
     59          6           0       10.941485    0.119531    0.925995
     60          6           0       10.722273    0.650539    2.426932
     61          6           0       11.649730    1.177314    0.043356
     62          6           0       13.199806    0.914161   -0.075624
     63          6           0       13.788595    1.054585   -1.509574
     64          6           0       15.105242    1.825472   -1.499965
     65          6           0       15.164384    2.954415   -2.668244
     66          6           0       16.267648    0.807467   -1.552776
     67          1           0       -1.426002    0.833450    3.789019
     68          1           0       -3.277635    5.496667   -0.325527
     69          1           0       -8.285122    1.907122   -1.970224
     70          1           0       -3.671127   -3.267193    2.741655
     71          1           0       -1.300496   -1.748691    3.275584
     72          1           0       -2.536147   -2.480103    4.997894
     73          1           0       -4.134536   -1.934462    4.348630
     74          1           0       -2.961503   -0.712838    5.011891
     75          1           0       -2.002353   -4.580590    1.375646
     76          1           0       -0.926764   -3.461135    1.847021
     77          1           0       -1.067428   -2.067703   -0.117488
     78          1           0       -2.472863   -2.790971   -0.590431
     79          1           0       -0.798462    4.041873    4.656069
     80          1           0        0.636075    3.866497    3.540788
     81          1           0       -0.119824    2.482431    4.295466
     82          1           0       -0.642638    7.633047    0.757956
     83          1           0       -2.398434    7.083482    0.912322
     84          1           0       -1.199980    6.441860   -0.285725
     85          1           0       -5.204224    5.220088   -2.512423
     86          1           0       -7.807810    4.401962   -1.340506
     87          1           0       -6.096726    7.228978   -1.582343
     88          1           0       -5.439641    6.542787   -0.057265
     89          1           0       -7.138710    6.267354   -0.535796
     90          1           0       -7.323679    2.976414   -3.859916
     91          1           0       -6.376105    4.320169   -4.126327
     92          1           0       -9.093101    5.037725   -3.268843
     93          1           0       -9.053380    4.043032   -4.769300
     94          1           0       -8.192580    5.525648   -4.742050
     95          1           0       -9.571486   -0.006897   -2.184453
     96          1           0       -9.911528   -1.313673   -1.186508
     97          1           0       -9.083569   -1.590090   -2.756513
     98          1           0       -5.660766   -4.006884    1.272143
     99          1           0       -3.564609   -6.446800   -1.681724
    100          1           0       -4.516776   -7.554241   -0.731367
    101          1           0       -2.897645   -6.983675   -0.239086
    102          1           0        1.039558   -5.388327   -2.113115
    103          1           0        1.455260   -6.033310   -0.452429
    104          1           0        2.878276   -4.164608   -2.171117
    105          1           0        4.281031   -5.595281    1.347944
    106          1           0        2.490653   -5.281479    1.353265
    107          1           0        3.760215   -3.964484    1.825318
    108          1           0        5.102265   -3.785188   -1.598247
    109          1           0        5.714277   -4.245294   -0.040189
    110          1           0        5.461963   -2.411744    1.130358
    111          1           0        4.141990   -1.849437    0.136813
    112          1           0        5.971745   -1.702281   -1.784636
    113          1           0        7.156786   -1.877106   -0.607678
    114          1           0        5.197872    0.352501    0.059057
    115          1           0        6.262406    0.447177   -2.694164
    116          1           0        6.535375    1.758898   -1.649132
    117          1           0        4.911327    1.425754   -1.959988
    118          1           0        7.246756   -0.103476    1.165342
    119          1           0        7.047394    1.616684    0.524903
    120          1           0        9.190694    1.489630   -0.379509
    121          1           0        8.540411    0.168758   -1.382275
    122          1           0        9.876785   -1.284972   -0.506922
    123          1           0        9.150929   -0.972264    1.051081
    124          1           0       11.545927   -0.786973    0.952943
    125          1           0       11.168190   -0.148979    3.019991
    126          1           0        9.634814    0.723438    2.412152
    127          1           0       11.129561    1.640908    2.627724
    128          1           0       11.542508    2.177333    0.463492
    129          1           0       11.314428    1.258710   -0.990422
    130          1           0       13.457957   -0.030164    0.403171
    131          1           0       13.600898    1.705483    0.557548
    132          1           0       13.045117    1.569460   -2.118695
    133          1           0       13.757315    0.075894   -1.988135
    134          1           0       15.310686    2.353486   -0.568362
    135          1           0       14.164101    2.972893   -3.101354
    136          1           0       15.961129    2.898756   -3.409376
    137          1           0       15.168022    3.920726   -2.164156
    138          1           0       16.697912    0.769354   -2.553827
    139          1           0       15.959570   -0.205146   -1.293476
    140          1           0       16.894531    1.066656   -0.698754
 ---------------------------------------------------------------------

 SCF Done:  E(RPBE1PBE) =  -3005.32131708     A.U. after   16 cycles

 Excitation energies and oscillator strengths:

 Excited State   1:      Singlet-A      1.8736 eV  661.76 nm  f=0.3178  <S**2>=0.000
     245 -> 248       -0.17426
     246 -> 247        0.69037
 This state for optimization and/or second-order correction.
 Total Energy, E(TD-HF/TD-DFT) =  -3005.25246483
 Copying the excited state density for this state as the 1-particle RhoCI density.

 Excited State   2:      Singlet-A      2.2856 eV  542.45 nm  f=0.0792  <S**2>=0.000
     245 -> 247        0.63007
     246 -> 248        0.30258

 Excited State   3:      Singlet-A      2.8932 eV  428.54 nm  f=0.0013  <S**2>=0.000
     242 -> 247        0.14374
     243 -> 247       -0.26886
     244 -> 247        0.63071

 Excited State   4:      Singlet-A      2.9536 eV  419.78 nm  f=0.0016  <S**2>=0.000
     243 -> 247        0.62702
     244 -> 247        0.27565
     246 -> 248       -0.11996

 Excited State   5:      Singlet-A      3.0418 eV  407.61 nm  f=0.0012  <S**2>=0.000
     242 -> 247        0.66384
     243 -> 247        0.10323
     244 -> 247       -0.12042

 The electronic state is 1-A.
 Alpha  occ. eigenvalues --  -46.92447 -19.25099 -19.24647 -19.19500 -19.18611
 Alpha  occ. eigenvalues --  -19.18571 -19.18565 -14.41932 -14.41670 -14.39051
 Alpha  occ. eigenvalues --  -14.38388 -10.35432 -10.35013 -10.32575 -10.31937
 Alpha  occ. eigenvalues --  -10.29996 -10.29541 -10.29231 -10.28974 -10.28826
 Alpha  occ. eigenvalues --  -10.28440 -10.27586 -10.27472 -10.26810 -10.26809
 Alpha  occ. eigenvalues --  -10.26600 -10.26546 -10.26431 -10.26164 -10.25958
 Alpha  occ. eigenvalues --  -10.25900 -10.25868 -10.25536 -10.25304 -10.25017
 Alpha  occ. eigenvalues --  -10.24995 -10.24643 -10.24515 -10.24443 -10.24378
 Alpha  occ. eigenvalues --  -10.24316 -10.24248 -10.23957 -10.23731 -10.23533
 Alpha  occ. eigenvalues --  -10.23476 -10.23334 -10.23322 -10.23200 -10.23118
 Alpha  occ. eigenvalues --  -10.23008 -10.22939 -10.22843 -10.22663 -10.22659
 Alpha  occ. eigenvalues --  -10.22450 -10.22432 -10.22377 -10.22038 -10.22031
 Alpha  occ. eigenvalues --  -10.22004 -10.22000 -10.21977 -10.21909 -10.21409
 Alpha  occ. eigenvalues --  -10.21352  -3.14472  -1.87297  -1.86867  -1.86669
 Alpha  occ. eigenvalues --   -1.10631  -1.09810  -1.05699  -1.03623  -1.01442
 Alpha  occ. eigenvalues --   -1.00652  -0.98407  -0.97794  -0.97248  -0.96128
 Alpha  occ. eigenvalues --   -0.86816  -0.84941  -0.83574  -0.83490  -0.83086
 Alpha  occ. eigenvalues --   -0.82370  -0.82275  -0.81383  -0.81101  -0.80867
 Alpha  occ. eigenvalues --   -0.79786  -0.79429  -0.78538  -0.78227  -0.77390
 Alpha  occ. eigenvalues --   -0.76686  -0.76425  -0.75690  -0.74907  -0.74631
 Alpha  occ. eigenvalues --   -0.73558  -0.72281  -0.72020  -0.71053  -0.70295
 Alpha  occ. eigenvalues --   -0.70006  -0.69487  -0.69405  -0.68778  -0.68073
 Alpha  occ. eigenvalues --   -0.67494  -0.67029  -0.66278  -0.64523  -0.63495
 Alpha  occ. eigenvalues --   -0.63078  -0.62513  -0.61433  -0.60801  -0.60408
 Alpha  occ. eigenvalues --   -0.60300  -0.59479  -0.59035  -0.58724  -0.58116
 Alpha  occ. eigenvalues --   -0.57502  -0.56612  -0.56468  -0.54954  -0.54269
 Alpha  occ. eigenvalues --   -0.53710  -0.53386  -0.53314  -0.53004  -0.52424
 Alpha  occ. eigenvalues --   -0.51978  -0.51590  -0.50797  -0.50173  -0.49842
 Alpha  occ. eigenvalues --   -0.49560  -0.49043  -0.48736  -0.48256  -0.48156
 Alpha  occ. eigenvalues --   -0.47668  -0.47608  -0.47300  -0.47232  -0.47085
 Alpha  occ. eigenvalues --   -0.46861  -0.46621  -0.46557  -0.46154  -0.46095
 Alpha  occ. eigenvalues --   -0.45959  -0.45828  -0.45354  -0.45232  -0.45193
 Alpha  occ. eigenvalues --   -0.44910  -0.44749  -0.44468  -0.44191  -0.44098
 Alpha  occ. eigenvalues --   -0.43740  -0.43580  -0.43485  -0.43223  -0.43181
 Alpha  occ. eigenvalues --   -0.43089  -0.42971  -0.42931  -0.42790  -0.42208
 Alpha  occ. eigenvalues --   -0.42136  -0.41704  -0.41412  -0.41339  -0.41225
 Alpha  occ. eigenvalues --   -0.40669  -0.40615  -0.40510  -0.40458  -0.40351
 Alpha  occ. eigenvalues --   -0.40165  -0.40013  -0.39885  -0.39665  -0.39595
 Alpha  occ. eigenvalues --   -0.39295  -0.39149  -0.38842  -0.38775  -0.38370
 Alpha  occ. eigenvalues --   -0.38142  -0.37885  -0.37877  -0.37597  -0.37572
 Alpha  occ. eigenvalues --   -0.37362  -0.37291  -0.37017  -0.36897  -0.36685
 Alpha  occ. eigenvalues --   -0.36532  -0.36412  -0.36283  -0.35874  -0.35740
 Alpha  occ. eigenvalues --   -0.35666  -0.35341  -0.35266  -0.35097  -0.34982
 Alpha  occ. eigenvalues --   -0.34801  -0.34682  -0.34147  -0.33645  -0.33394
 Alpha  occ. eigenvalues --   -0.33118  -0.32922  -0.32430  -0.32411  -0.32140
 Alpha  occ. eigenvalues --   -0.32103  -0.31754  -0.31506  -0.30719  -0.30487
 Alpha  occ. eigenvalues --   -0.30364  -0.29977  -0.29658  -0.29601  -0.29038
 Alpha  occ. eigenvalues --   -0.28069  -0.27966  -0.27645  -0.26568  -0.26095
 Alpha  occ. eigenvalues --   -0.25452  -0.25126  -0.24990  -0.24565  -0.21291
 Alpha  occ. eigenvalues --   -0.18898
 Alpha virt. eigenvalues --   -0.11076  -0.05654  -0.03506  -0.01888  -0.01172
 Alpha virt. eigenvalues --   -0.00212   0.00836   0.01312   0.02015   0.02633
 Alpha virt. eigenvalues --    0.04084   0.04828   0.05155   0.05539   0.05948

 Mulliken charges:
               1
     1  Mg   0.956384
     2  C    0.039348
     3  C   -0.072169
     4  C   -0.070234
     5  C   -0.066139
     6  N   -0.355685
     7  C   -0.012703
     8  C   -0.029103
     9  C   -0.162787
    10  C    0.064227
    11  C    0.011219
    12  C   -0.004487
    13  C   -0.039873
    14  C    0.221558
    15  O   -0.256266
    16  O   -0.352569
    17  N   -0.484725
    18  C    0.183126
    19  C   -0.170587
    20  C   -0.126100
    21  C    0.187192
    22  C    0.077291
    23  C    0.051266
    24  O   -0.224628
    25  C   -0.022005
    26  N   -0.413836
    27  C    0.062442
    28  C   -0.085148
    29  C   -0.091157
    30  C    0.018023
    31  C    0.025978
    32  C   -0.031426
    33  C   -0.061251
    34  N   -0.516013
    35  C    0.171869
    36  C   -0.184225
    37  C   -0.041558
    38  C    0.145032
    39  C    0.079491
    40  C    0.150127
    41  O   -0.219705
    42  C   -0.099796
    43  C    0.287156
    44  O   -0.242719
    45  O   -0.370449
    46  C    0.116003
    47  C    0.210085
    48  C   -0.122920
    49  C   -0.205126
    50  C    0.043650
    51  C    0.009023
    52  C   -0.082898
    53  C   -0.008832
    54  C   -0.196195
    55  C   -0.002715
    56  C   -0.032172
    57  C   -0.059126
    58  C   -0.031673
    59  C   -0.205038
    60  C   -0.007832
    61  C   -0.039188
    62  C   -0.049342
    63  C   -0.008593
    64  C   -0.251068
    65  C   -0.020330
    66  C   -0.007183
    67  H    0.014919
    68  H   -0.015046
    69  H   -0.000277
    70  H    0.045239
    71  H    0.041836
    72  H    0.058849
    73  H    0.054354
    74  H    0.047721
    75  H    0.036876
    76  H    0.032517
    77  H    0.061193
    78  H    0.077867
    79  H    0.069107
    80  H    0.069150
    81  H    0.022294
    82  H    0.051783
    83  H    0.083141
    84  H    0.061833
    85  H    0.049768
    86  H    0.057358
    87  H    0.050143
    88  H    0.047120
    89  H    0.035647
    90  H    0.047168
    91  H    0.032542
    92  H    0.042067
    93  H    0.044792
    94  H    0.040580
    95  H    0.015283
    96  H    0.054357
    97  H    0.067388
    98  H    0.070312
    99  H    0.075195
   100  H    0.062571
   101  H    0.039690
   102  H    0.067264
   103  H    0.046861
   104  H    0.027397
   105  H    0.055509
   106  H    0.053272
   107  H    0.051039
   108  H    0.036737
   109  H    0.024636
   110  H    0.040217
   111  H    0.042744
   112  H    0.016927
   113  H    0.026382
   114  H    0.032233
   115  H    0.032585
   116  H    0.010760
   117  H    0.046231
   118  H    0.034300
   119  H    0.029721
   120  H    0.043838
   121  H    0.026630
   122  H    0.033205
   123  H    0.016174
   124  H    0.032782
   125  H    0.052133
   126  H    0.045228
   127  H    0.042628
   128  H    0.029027
   129  H    0.037761
   130  H    0.029525
   131  H    0.021586
   132  H    0.015563
   133  H    0.032812
   134  H    0.045292
   135  H    0.024818
   136  H    0.049215
   137  H    0.030344
   138  H    0.042016
   139  H    0.026527
   140  H    0.029836
 Sum of Mulliken charges =  -0.00000

 Dipole moment (field-independent basis, Debye):
    X=              1.6301    Y=              3.2843    Z=              2.7340  Tot=              4.5737
 Quadrupole moment (field-independent basis, Debye-Ang):
   XX=           -397.4064   YY=           -390.0664   ZZ=           -397.4555
   XY=            -63.4346   XZ=             -4.6256   YZ=            -33.4525

 Normal termination of Gaussian 16 at Wed May  4 01:29:40 2022.
