 Gaussian 16, Revision A.03,
 Gaussian 16:  ES64L-G16RevA.03 25-Dec-2016

 --------------------------------
 #p wB97XD/Def2SVP td=(nstates=5)
 --------------------------------

 -----------------------------------------------------
 step_1251_chromophore_11 TDDFT with wB97XD functional
 -----------------------------------------------------
 Symbolic Z-matrix:
 Charge =  0 Multiplicity = 1

                         Standard orientation:
 ---------------------------------------------------------------------
 Center     Atomic      Atomic             Coordinates (Angstroms)
 Number     Number       Type             X           Y           Z
 ---------------------------------------------------------------------
      1         12           0       -4.696302    1.368346    0.729797
      2          6           0       -4.918166   -2.102294    0.470036
      3          6           0       -1.939890    0.948403    2.832369
      4          6           0       -3.557330    4.457607   -0.141865
      5          6           0       -7.418915    1.693913   -1.339282
      6          7           0       -3.456832   -0.422859    1.394733
      7          6           0       -3.804421   -1.791146    1.199454
      8          6           0       -3.009995   -2.657818    2.125809
      9          6           0       -2.370789   -1.618738    3.119107
     10          6           0       -2.564943   -0.288428    2.370149
     11          6           0       -3.088467   -1.673997    4.514062
     12          6           0       -1.899085   -3.495696    1.354263
     13          6           0       -1.544787   -3.047630   -0.080288
     14          6           0       -0.790396   -4.069270   -0.929508
     15          8           0       -1.142102   -4.420920   -2.049093
     16          8           0        0.406216   -4.279427   -0.361406
     17          7           0       -2.928312    2.488825    1.272396
     18          6           0       -2.096977    2.220135    2.336330
     19          6           0       -1.248843    3.340022    2.632248
     20          6           0       -1.590353    4.354572    1.615530
     21          6           0       -2.732535    3.806329    0.826130
     22          6           0       -0.323544    3.462584    3.864311
     23          6           0       -0.938401    5.781861    1.704873
     24          8           0       -0.192650    6.076485    2.613519
     25          6           0       -1.358366    6.812449    0.726774
     26          7           0       -5.372410    2.870919   -0.588691
     27          6           0       -4.808251    4.088852   -0.744361
     28          6           0       -5.744140    5.051306   -1.580365
     29          6           0       -6.952716    4.159084   -1.971318
     30          6           0       -6.565423    2.814605   -1.324273
     31          6           0       -6.116319    6.382478   -0.896179
     32          6           0       -7.243877    4.015917   -3.541806
     33          6           0       -8.484479    4.691696   -4.103358
     34          7           0       -6.143253    0.111868   -0.010407
     35          6           0       -7.203769    0.392482   -0.901056
     36          6           0       -7.885615   -0.827825   -1.150655
     37          6           0       -7.035104   -1.803780   -0.636504
     38          6           0       -5.943794   -1.222892   -0.001607
     39          6           0       -9.141010   -0.958687   -1.870148
     40          6           0       -6.905489   -3.275138   -0.304159
     41          8           0       -7.682456   -4.206630   -0.488061
     42          6           0       -5.497718   -3.496551    0.322961
     43          6           0       -4.710389   -4.394456   -0.569458
     44          8           0       -4.410712   -4.238264   -1.751189
     45          8           0       -4.387495   -5.548643    0.091556
     46          6           0       -3.858629   -6.688792   -0.659814
     47          6           0        1.352882   -5.159061   -1.095462
     48          6           0        2.619139   -4.329177   -1.126341
     49          6           0        3.557261   -4.263698   -0.170575
     50          6           0        3.488371   -4.852769    1.255933
     51          6           0        4.900792   -3.708923   -0.529402
     52          6           0        5.119804   -2.329262    0.098770
     53          6           0        6.158680   -1.458437   -0.739374
     54          6           0        6.079998    0.088876   -0.522931
     55          6           0        5.860698    0.914667   -1.796221
     56          6           0        7.311906    0.579350    0.318102
     57          6           0        8.742584    0.495996   -0.362648
     58          6           0        9.709285   -0.507015    0.238342
     59          6           0       10.941485    0.119531    0.925995
     60          6           0       10.722273    0.650539    2.426932
     61          6           0       11.649730    1.177314    0.043356
     62          6           0       13.199806    0.914161   -0.075624
     63          6           0       13.788595    1.054585   -1.509574
     64          6           0       15.105242    1.825472   -1.499965
     65          6           0       15.164384    2.954415   -2.668244
     66          6           0       16.267648    0.807467   -1.552776
     67          1           0       -1.426002    0.833450    3.789019
     68          1           0       -3.277635    5.496667   -0.325527
     69          1           0       -8.285122    1.907122   -1.970224
     70          1           0       -3.671127   -3.267193    2.741655
     71          1           0       -1.300496   -1.748691    3.275584
     72          1           0       -2.536147   -2.480103    4.997894
     73          1           0       -4.134536   -1.934462    4.348630
     74          1           0       -2.961503   -0.712838    5.011891
     75          1           0       -2.002353   -4.580590    1.375646
     76          1           0       -0.926764   -3.461135    1.847021
     77          1           0       -1.067428   -2.067703   -0.117488
     78          1           0       -2.472863   -2.790971   -0.590431
     79          1           0       -0.798462    4.041873    4.656069
     80          1           0        0.636075    3.866497    3.540788
     81          1           0       -0.119824    2.482431    4.295466
     82          1           0       -0.642638    7.633047    0.757956
     83          1           0       -2.398434    7.083482    0.912322
     84          1           0       -1.199980    6.441860   -0.285725
     85          1           0       -5.204224    5.220088   -2.512423
     86          1           0       -7.807810    4.401962   -1.340506
     87          1           0       -6.096726    7.228978   -1.582343
     88          1           0       -5.439641    6.542787   -0.057265
     89          1           0       -7.138710    6.267354   -0.535796
     90          1           0       -7.323679    2.976414   -3.859916
     91          1           0       -6.376105    4.320169   -4.126327
     92          1           0       -9.093101    5.037725   -3.268843
     93          1           0       -9.053380    4.043032   -4.769300
     94          1           0       -8.192580    5.525648   -4.742050
     95          1           0       -9.571486   -0.006897   -2.184453
     96          1           0       -9.911528   -1.313673   -1.186508
     97          1           0       -9.083569   -1.590090   -2.756513
     98          1           0       -5.660766   -4.006884    1.272143
     99          1           0       -3.564609   -6.446800   -1.681724
    100          1           0       -4.516776   -7.554241   -0.731367
    101          1           0       -2.897645   -6.983675   -0.239086
    102          1           0        1.039558   -5.388327   -2.113115
    103          1           0        1.455260   -6.033310   -0.452429
    104          1           0        2.878276   -4.164608   -2.171117
    105          1           0        4.281031   -5.595281    1.347944
    106          1           0        2.490653   -5.281479    1.353265
    107          1           0        3.760215   -3.964484    1.825318
    108          1           0        5.102265   -3.785188   -1.598247
    109          1           0        5.714277   -4.245294   -0.040189
    110          1           0        5.461963   -2.411744    1.130358
    111          1           0        4.141990   -1.849437    0.136813
    112          1           0        5.971745   -1.702281   -1.784636
    113          1           0        7.156786   -1.877106   -0.607678
    114          1           0        5.197872    0.352501    0.059057
    115          1           0        6.262406    0.447177   -2.694164
    116          1           0        6.535375    1.758898   -1.649132
    117          1           0        4.911327    1.425754   -1.959988
    118          1           0        7.246756   -0.103476    1.165342
    119          1           0        7.047394    1.616684    0.524903
    120          1           0        9.190694    1.489630   -0.379509
    121          1           0        8.540411    0.168758   -1.382275
    122          1           0        9.876785   -1.284972   -0.506922
    123          1           0        9.150929   -0.972264    1.051081
    124          1           0       11.545927   -0.786973    0.952943
    125          1           0       11.168190   -0.148979    3.019991
    126          1           0        9.634814    0.723438    2.412152
    127          1           0       11.129561    1.640908    2.627724
    128          1           0       11.542508    2.177333    0.463492
    129          1           0       11.314428    1.258710   -0.990422
    130          1           0       13.457957   -0.030164    0.403171
    131          1           0       13.600898    1.705483    0.557548
    132          1           0       13.045117    1.569460   -2.118695
    133          1           0       13.757315    0.075894   -1.988135
    134          1           0       15.310686    2.353486   -0.568362
    135          1           0       14.164101    2.972893   -3.101354
    136          1           0       15.961129    2.898756   -3.409376
    137          1           0       15.168022    3.920726   -2.164156
    138          1           0       16.697912    0.769354   -2.553827
    139          1           0       15.959570   -0.205146   -1.293476
    140          1           0       16.894531    1.066656   -0.698754
 ---------------------------------------------------------------------

 SCF Done:  E(RwB97XD) =  -3007.83383854     A.U. after   18 cycles

 Excitation energies and oscillator strengths:

 Excited State   1:      Singlet-A      1.7847 eV  694.71 nm  f=0.3296  <S**2>=0.000
     245 -> 248       -0.17300
     246 -> 247        0.68444
     245 <- 248       -0.10533
 This state for optimization and/or second-order correction.
 Total Energy, E(TD-HF/TD-DFT) =  -3007.76825255
 Copying the excited state density for this state as the 1-particle RhoCI density.

 Excited State   2:      Singlet-A      2.2475 eV  551.67 nm  f=0.0774  <S**2>=0.000
     245 -> 247        0.61594
     246 -> 248        0.32152

 Excited State   3:      Singlet-A      3.1955 eV  387.99 nm  f=0.0115  <S**2>=0.000
     242 -> 247        0.63262
     243 -> 247        0.12891
     244 -> 247       -0.12941
     246 -> 248       -0.19519

 Excited State   4:      Singlet-A      3.4630 eV  358.03 nm  f=0.0646  <S**2>=0.000
     244 -> 247        0.62410
     244 -> 249        0.11533
     246 -> 248       -0.25577

 Excited State   5:      Singlet-A      3.5809 eV  346.24 nm  f=0.9068  <S**2>=0.000
     242 -> 247        0.17930
     244 -> 247        0.21596
     245 -> 247       -0.33672
     246 -> 248        0.53007
     245 <- 247        0.10398

 The electronic state is 1-A.
 Alpha  occ. eigenvalues --  -46.95412 -19.29620 -19.29119 -19.24660 -19.23179
 Alpha  occ. eigenvalues --  -19.23167 -19.23018 -14.46921 -14.46909 -14.44204
 Alpha  occ. eigenvalues --  -14.43028 -10.42163 -10.41773 -10.39747 -10.38411
 Alpha  occ. eigenvalues --  -10.36677 -10.36536 -10.36023 -10.35479 -10.34646
 Alpha  occ. eigenvalues --  -10.34491 -10.34454 -10.34013 -10.33950 -10.32833
 Alpha  occ. eigenvalues --  -10.32752 -10.32693 -10.32645 -10.32451 -10.32374
 Alpha  occ. eigenvalues --  -10.32162 -10.31938 -10.31765 -10.31746 -10.31735
 Alpha  occ. eigenvalues --  -10.31331 -10.31063 -10.30796 -10.30770 -10.30644
 Alpha  occ. eigenvalues --  -10.30589 -10.30458 -10.30422 -10.30346 -10.30180
 Alpha  occ. eigenvalues --  -10.29760 -10.29646 -10.29632 -10.29595 -10.29399
 Alpha  occ. eigenvalues --  -10.29391 -10.29325 -10.29241 -10.29024 -10.28916
 Alpha  occ. eigenvalues --  -10.28833 -10.28665 -10.28452 -10.28411 -10.28411
 Alpha  occ. eigenvalues --  -10.28402 -10.28379 -10.28289 -10.28141 -10.27881
 Alpha  occ. eigenvalues --  -10.27790  -3.21310  -1.94881  -1.94453  -1.94250
 Alpha  occ. eigenvalues --   -1.17979  -1.17107  -1.13518  -1.10734  -1.08743
 Alpha  occ. eigenvalues --   -1.07919  -1.05826  -1.05191  -1.04416  -1.03800
 Alpha  occ. eigenvalues --   -0.94227  -0.92623  -0.91283  -0.91013  -0.90751
 Alpha  occ. eigenvalues --   -0.90155  -0.89972  -0.88992  -0.88790  -0.88090
 Alpha  occ. eigenvalues --   -0.87561  -0.87421  -0.86242  -0.85717  -0.85167
 Alpha  occ. eigenvalues --   -0.84468  -0.84121  -0.83314  -0.82483  -0.82265
 Alpha  occ. eigenvalues --   -0.81262  -0.79785  -0.79569  -0.79051  -0.77822
 Alpha  occ. eigenvalues --   -0.77669  -0.77125  -0.77085  -0.76507  -0.75759
 Alpha  occ. eigenvalues --   -0.75074  -0.74574  -0.73861  -0.72199  -0.70994
 Alpha  occ. eigenvalues --   -0.70778  -0.70049  -0.69075  -0.68467  -0.67999
 Alpha  occ. eigenvalues --   -0.67821  -0.67011  -0.66552  -0.66126  -0.65572
 Alpha  occ. eigenvalues --   -0.65165  -0.64262  -0.63729  -0.62607  -0.61880
 Alpha  occ. eigenvalues --   -0.61095  -0.60900  -0.60777  -0.60380  -0.59873
 Alpha  occ. eigenvalues --   -0.59392  -0.58935  -0.58211  -0.57656  -0.57321
 Alpha  occ. eigenvalues --   -0.56857  -0.56518  -0.56145  -0.55635  -0.55530
 Alpha  occ. eigenvalues --   -0.55434  -0.54907  -0.54675  -0.54573  -0.54457
 Alpha  occ. eigenvalues --   -0.54292  -0.53907  -0.53815  -0.53580  -0.53444
 Alpha  occ. eigenvalues --   -0.53372  -0.53113  -0.52757  -0.52642  -0.52586
 Alpha  occ. eigenvalues --   -0.52394  -0.52120  -0.51860  -0.51688  -0.51540
 Alpha  occ. eigenvalues --   -0.51067  -0.50824  -0.50756  -0.50530  -0.50455
 Alpha  occ. eigenvalues --   -0.50332  -0.50263  -0.50206  -0.49974  -0.49537
 Alpha  occ. eigenvalues --   -0.49531  -0.49039  -0.48683  -0.48546  -0.48469
 Alpha  occ. eigenvalues --   -0.48054  -0.47894  -0.47750  -0.47695  -0.47436
 Alpha  occ. eigenvalues --   -0.47347  -0.47251  -0.47134  -0.46851  -0.46811
 Alpha  occ. eigenvalues --   -0.46513  -0.46169  -0.45970  -0.45680  -0.45520
 Alpha  occ. eigenvalues --   -0.45357  -0.45106  -0.44982  -0.44832  -0.44692
 Alpha  occ. eigenvalues --   -0.44488  -0.44389  -0.44109  -0.43953  -0.43781
 Alpha  occ. eigenvalues --   -0.43617  -0.43475  -0.43334  -0.42823  -0.42795
 Alpha  occ. eigenvalues --   -0.42736  -0.42307  -0.42277  -0.42203  -0.42125
 Alpha  occ. eigenvalues --   -0.41862  -0.41821  -0.41162  -0.40672  -0.40495
 Alpha  occ. eigenvalues --   -0.40184  -0.40052  -0.39482  -0.39340  -0.39169
 Alpha  occ. eigenvalues --   -0.39163  -0.38691  -0.38537  -0.37743  -0.37508
 Alpha  occ. eigenvalues --   -0.37367  -0.36934  -0.36609  -0.36445  -0.35737
 Alpha  occ. eigenvalues --   -0.34977  -0.34934  -0.34597  -0.33583  -0.33199
 Alpha  occ. eigenvalues --   -0.32177  -0.32049  -0.31774  -0.30708  -0.26447
 Alpha  occ. eigenvalues --   -0.23170
 Alpha virt. eigenvalues --   -0.06778  -0.00211   0.02759   0.04628   0.04848
 Alpha virt. eigenvalues --    0.06446   0.07527   0.08195   0.08892   0.09258
 Alpha virt. eigenvalues --    0.11042   0.11157   0.11707   0.12255   0.12586

 Mulliken charges:
               1
     1  Mg   0.946725
     2  C    0.034885
     3  C   -0.089808
     4  C   -0.088237
     5  C   -0.078656
     6  N   -0.320999
     7  C   -0.044156
     8  C   -0.001818
     9  C   -0.138741
    10  C    0.048744
    11  C    0.022916
    12  C   -0.000219
    13  C   -0.011095
    14  C    0.207423
    15  O   -0.251777
    16  O   -0.352725
    17  N   -0.459576
    18  C    0.183174
    19  C   -0.161381
    20  C   -0.125577
    21  C    0.194993
    22  C    0.090771
    23  C    0.051170
    24  O   -0.218497
    25  C   -0.010052
    26  N   -0.385401
    27  C    0.056737
    28  C   -0.064711
    29  C   -0.061750
    30  C    0.003099
    31  C    0.039853
    32  C   -0.018928
    33  C   -0.044925
    34  N   -0.481029
    35  C    0.161124
    36  C   -0.178167
    37  C   -0.040370
    38  C    0.128123
    39  C    0.089901
    40  C    0.129597
    41  O   -0.214141
    42  C   -0.058139
    43  C    0.254420
    44  O   -0.233982
    45  O   -0.367199
    46  C    0.131632
    47  C    0.222334
    48  C   -0.132247
    49  C   -0.191255
    50  C    0.061272
    51  C    0.025243
    52  C   -0.065565
    53  C    0.005975
    54  C   -0.168881
    55  C    0.007614
    56  C   -0.007646
    57  C   -0.046723
    58  C   -0.012027
    59  C   -0.178120
    60  C    0.007900
    61  C   -0.023988
    62  C   -0.032820
    63  C    0.008860
    64  C   -0.223755
    65  C   -0.005838
    66  C    0.002994
    67  H    0.008983
    68  H   -0.028490
    69  H   -0.010477
    70  H    0.034697
    71  H    0.033544
    72  H    0.054319
    73  H    0.049266
    74  H    0.041013
    75  H    0.029275
    76  H    0.023632
    77  H    0.053413
    78  H    0.063918
    79  H    0.067544
    80  H    0.066979
    81  H    0.019039
    82  H    0.051723
    83  H    0.078781
    84  H    0.057533
    85  H    0.039264
    86  H    0.044483
    87  H    0.046035
    88  H    0.038368
    89  H    0.030366
    90  H    0.039499
    91  H    0.024316
    92  H    0.034895
    93  H    0.039759
    94  H    0.033766
    95  H    0.007150
    96  H    0.046898
    97  H    0.060859
    98  H    0.064171
    99  H    0.071777
   100  H    0.059065
   101  H    0.034500
   102  H    0.065153
   103  H    0.042402
   104  H    0.024469
   105  H    0.049982
   106  H    0.047311
   107  H    0.043159
   108  H    0.030128
   109  H    0.015618
   110  H    0.031321
   111  H    0.031260
   112  H    0.006740
   113  H    0.014209
   114  H    0.021436
   115  H    0.026903
   116  H    0.001940
   117  H    0.042303
   118  H    0.020884
   119  H    0.021290
   120  H    0.034351
   121  H    0.016043
   122  H    0.027736
   123  H    0.002958
   124  H    0.020057
   125  H    0.047641
   126  H    0.034362
   127  H    0.037739
   128  H    0.019951
   129  H    0.024984
   130  H    0.020766
   131  H    0.011395
   132  H    0.003174
   133  H    0.025491
   134  H    0.033829
   135  H    0.017387
   136  H    0.044639
   137  H    0.024131
   138  H    0.036383
   139  H    0.019362
   140  H    0.024690
 Sum of Mulliken charges =  -0.00000

 Dipole moment (field-independent basis, Debye):
    X=              2.5359    Y=              3.8691    Z=              3.3420  Tot=              5.7070
 Quadrupole moment (field-independent basis, Debye-Ang):
   XX=           -405.3458   YY=           -387.4462   ZZ=           -396.4553
   XY=            -64.5663   XZ=             -7.0650   YZ=            -32.2980

 Normal termination of Gaussian 16 at Wed May  4 01:55:53 2022.
