 Gaussian 16, Revision A.03,
 Gaussian 16:  ES64L-G16RevA.03 25-Dec-2016

 --------------------
 #p ZINDO=(nstates=5)
 --------------------

 ------------------------------
 step_1251_chromophore_11 ZINDO
 ------------------------------
 Symbolic Z-matrix:
 Charge =  0 Multiplicity = 1

                         Standard orientation:
 ---------------------------------------------------------------------
 Center     Atomic      Atomic             Coordinates (Angstroms)
 Number     Number       Type             X           Y           Z
 ---------------------------------------------------------------------
      1         12           0       -4.696302    1.368346    0.729797
      2          6           0       -4.918166   -2.102294    0.470036
      3          6           0       -1.939890    0.948403    2.832369
      4          6           0       -3.557330    4.457607   -0.141865
      5          6           0       -7.418915    1.693913   -1.339282
      6          7           0       -3.456832   -0.422859    1.394733
      7          6           0       -3.804421   -1.791146    1.199454
      8          6           0       -3.009995   -2.657818    2.125809
      9          6           0       -2.370789   -1.618738    3.119107
     10          6           0       -2.564943   -0.288428    2.370149
     11          6           0       -3.088467   -1.673997    4.514062
     12          6           0       -1.899085   -3.495696    1.354263
     13          6           0       -1.544787   -3.047630   -0.080288
     14          6           0       -0.790396   -4.069270   -0.929508
     15          8           0       -1.142102   -4.420920   -2.049093
     16          8           0        0.406216   -4.279427   -0.361406
     17          7           0       -2.928312    2.488825    1.272396
     18          6           0       -2.096977    2.220135    2.336330
     19          6           0       -1.248843    3.340022    2.632248
     20          6           0       -1.590353    4.354572    1.615530
     21          6           0       -2.732535    3.806329    0.826130
     22          6           0       -0.323544    3.462584    3.864311
     23          6           0       -0.938401    5.781861    1.704873
     24          8           0       -0.192650    6.076485    2.613519
     25          6           0       -1.358366    6.812449    0.726774
     26          7           0       -5.372410    2.870919   -0.588691
     27          6           0       -4.808251    4.088852   -0.744361
     28          6           0       -5.744140    5.051306   -1.580365
     29          6           0       -6.952716    4.159084   -1.971318
     30          6           0       -6.565423    2.814605   -1.324273
     31          6           0       -6.116319    6.382478   -0.896179
     32          6           0       -7.243877    4.015917   -3.541806
     33          6           0       -8.484479    4.691696   -4.103358
     34          7           0       -6.143253    0.111868   -0.010407
     35          6           0       -7.203769    0.392482   -0.901056
     36          6           0       -7.885615   -0.827825   -1.150655
     37          6           0       -7.035104   -1.803780   -0.636504
     38          6           0       -5.943794   -1.222892   -0.001607
     39          6           0       -9.141010   -0.958687   -1.870148
     40          6           0       -6.905489   -3.275138   -0.304159
     41          8           0       -7.682456   -4.206630   -0.488061
     42          6           0       -5.497718   -3.496551    0.322961
     43          6           0       -4.710389   -4.394456   -0.569458
     44          8           0       -4.410712   -4.238264   -1.751189
     45          8           0       -4.387495   -5.548643    0.091556
     46          6           0       -3.858629   -6.688792   -0.659814
     47          6           0        1.352882   -5.159061   -1.095462
     48          6           0        2.619139   -4.329177   -1.126341
     49          6           0        3.557261   -4.263698   -0.170575
     50          6           0        3.488371   -4.852769    1.255933
     51          6           0        4.900792   -3.708923   -0.529402
     52          6           0        5.119804   -2.329262    0.098770
     53          6           0        6.158680   -1.458437   -0.739374
     54          6           0        6.079998    0.088876   -0.522931
     55          6           0        5.860698    0.914667   -1.796221
     56          6           0        7.311906    0.579350    0.318102
     57          6           0        8.742584    0.495996   -0.362648
     58          6           0        9.709285   -0.507015    0.238342
     59          6           0       10.941485    0.119531    0.925995
     60          6           0       10.722273    0.650539    2.426932
     61          6           0       11.649730    1.177314    0.043356
     62          6           0       13.199806    0.914161   -0.075624
     63          6           0       13.788595    1.054585   -1.509574
     64          6           0       15.105242    1.825472   -1.499965
     65          6           0       15.164384    2.954415   -2.668244
     66          6           0       16.267648    0.807467   -1.552776
     67          1           0       -1.426002    0.833450    3.789019
     68          1           0       -3.277635    5.496667   -0.325527
     69          1           0       -8.285122    1.907122   -1.970224
     70          1           0       -3.671127   -3.267193    2.741655
     71          1           0       -1.300496   -1.748691    3.275584
     72          1           0       -2.536147   -2.480103    4.997894
     73          1           0       -4.134536   -1.934462    4.348630
     74          1           0       -2.961503   -0.712838    5.011891
     75          1           0       -2.002353   -4.580590    1.375646
     76          1           0       -0.926764   -3.461135    1.847021
     77          1           0       -1.067428   -2.067703   -0.117488
     78          1           0       -2.472863   -2.790971   -0.590431
     79          1           0       -0.798462    4.041873    4.656069
     80          1           0        0.636075    3.866497    3.540788
     81          1           0       -0.119824    2.482431    4.295466
     82          1           0       -0.642638    7.633047    0.757956
     83          1           0       -2.398434    7.083482    0.912322
     84          1           0       -1.199980    6.441860   -0.285725
     85          1           0       -5.204224    5.220088   -2.512423
     86          1           0       -7.807810    4.401962   -1.340506
     87          1           0       -6.096726    7.228978   -1.582343
     88          1           0       -5.439641    6.542787   -0.057265
     89          1           0       -7.138710    6.267354   -0.535796
     90          1           0       -7.323679    2.976414   -3.859916
     91          1           0       -6.376105    4.320169   -4.126327
     92          1           0       -9.093101    5.037725   -3.268843
     93          1           0       -9.053380    4.043032   -4.769300
     94          1           0       -8.192580    5.525648   -4.742050
     95          1           0       -9.571486   -0.006897   -2.184453
     96          1           0       -9.911528   -1.313673   -1.186508
     97          1           0       -9.083569   -1.590090   -2.756513
     98          1           0       -5.660766   -4.006884    1.272143
     99          1           0       -3.564609   -6.446800   -1.681724
    100          1           0       -4.516776   -7.554241   -0.731367
    101          1           0       -2.897645   -6.983675   -0.239086
    102          1           0        1.039558   -5.388327   -2.113115
    103          1           0        1.455260   -6.033310   -0.452429
    104          1           0        2.878276   -4.164608   -2.171117
    105          1           0        4.281031   -5.595281    1.347944
    106          1           0        2.490653   -5.281479    1.353265
    107          1           0        3.760215   -3.964484    1.825318
    108          1           0        5.102265   -3.785188   -1.598247
    109          1           0        5.714277   -4.245294   -0.040189
    110          1           0        5.461963   -2.411744    1.130358
    111          1           0        4.141990   -1.849437    0.136813
    112          1           0        5.971745   -1.702281   -1.784636
    113          1           0        7.156786   -1.877106   -0.607678
    114          1           0        5.197872    0.352501    0.059057
    115          1           0        6.262406    0.447177   -2.694164
    116          1           0        6.535375    1.758898   -1.649132
    117          1           0        4.911327    1.425754   -1.959988
    118          1           0        7.246756   -0.103476    1.165342
    119          1           0        7.047394    1.616684    0.524903
    120          1           0        9.190694    1.489630   -0.379509
    121          1           0        8.540411    0.168758   -1.382275
    122          1           0        9.876785   -1.284972   -0.506922
    123          1           0        9.150929   -0.972264    1.051081
    124          1           0       11.545927   -0.786973    0.952943
    125          1           0       11.168190   -0.148979    3.019991
    126          1           0        9.634814    0.723438    2.412152
    127          1           0       11.129561    1.640908    2.627724
    128          1           0       11.542508    2.177333    0.463492
    129          1           0       11.314428    1.258710   -0.990422
    130          1           0       13.457957   -0.030164    0.403171
    131          1           0       13.600898    1.705483    0.557548
    132          1           0       13.045117    1.569460   -2.118695
    133          1           0       13.757315    0.075894   -1.988135
    134          1           0       15.310686    2.353486   -0.568362
    135          1           0       14.164101    2.972893   -3.101354
    136          1           0       15.961129    2.898756   -3.409376
    137          1           0       15.168022    3.920726   -2.164156
    138          1           0       16.697912    0.769354   -2.553827
    139          1           0       15.959570   -0.205146   -1.293476
    140          1           0       16.894531    1.066656   -0.698754
 ---------------------------------------------------------------------

 SCF Done:  E(RZINDO/S) =  -474.017297034     A.U. after   19 cycles

 Excitation energies and oscillator strengths:

 Excited State   1:      Singlet-A      1.3714 eV  904.07 nm  f=0.4709  <S**2>=0.000
     175 ->178         0.14887
     176 ->177         0.67588
 This state for optimization and/or second-order correction.
 Total Energy, E(CIS/TDA) =  -473.966899037
 Copying the excited state density for this state as the 1-particle RhoCI density.

 Excited State   2:      Singlet-A      1.9547 eV  634.29 nm  f=0.0086  <S**2>=0.000
     175 ->177         0.50108
     176 ->178        -0.46603

 Excited State   3:      Singlet-A      2.9575 eV  419.22 nm  f=1.1092  <S**2>=0.000
     171 ->177        -0.15836
     175 ->177         0.42414
     176 ->178         0.47172

 Excited State   4:      Singlet-A      3.0423 eV  407.53 nm  f=0.0110  <S**2>=0.000
     165 ->179         0.11447
     168 ->177        -0.26197
     168 ->178        -0.12584
     168 ->179         0.37122
     168 ->181         0.22269
     168 ->184        -0.18736
     168 ->185        -0.14678
     171 ->177         0.20809
     176 ->179         0.13775

 Excited State   5:      Singlet-A      3.0895 eV  401.31 nm  f=0.1944  <S**2>=0.000
     168 ->179        -0.10405
     170 ->177         0.10870
     170 ->179         0.14204
     170 ->181        -0.24031
     170 ->188        -0.14556
     171 ->177         0.10777
     175 ->178        -0.10228
     176 ->178        -0.11956
     176 ->179         0.42551
     176 ->181        -0.23168

 The electronic state is 1-A.
 Alpha  occ. eigenvalues --   -1.83819  -1.80008  -1.78137  -1.73069  -1.71196
 Alpha  occ. eigenvalues --   -1.69939  -1.64862  -1.60559  -1.59858  -1.57231
 Alpha  occ. eigenvalues --   -1.55738  -1.51043  -1.47061  -1.46481  -1.45944
 Alpha  occ. eigenvalues --   -1.43388  -1.42064  -1.39091  -1.37996  -1.36682
 Alpha  occ. eigenvalues --   -1.35850  -1.33563  -1.32743  -1.30946  -1.28801
 Alpha  occ. eigenvalues --   -1.27417  -1.25437  -1.22967  -1.21235  -1.18122
 Alpha  occ. eigenvalues --   -1.16982  -1.16553  -1.14735  -1.13642  -1.12892
 Alpha  occ. eigenvalues --   -1.12197  -1.09883  -1.09034  -1.04934  -1.03628
 Alpha  occ. eigenvalues --   -1.02365  -1.01897  -1.00088  -0.99210  -0.97818
 Alpha  occ. eigenvalues --   -0.95371  -0.95199  -0.94297  -0.93031  -0.92330
 Alpha  occ. eigenvalues --   -0.90536  -0.89276  -0.87828  -0.87089  -0.85955
 Alpha  occ. eigenvalues --   -0.85070  -0.83879  -0.83815  -0.81559  -0.79572
 Alpha  occ. eigenvalues --   -0.79497  -0.79088  -0.78382  -0.76705  -0.76425
 Alpha  occ. eigenvalues --   -0.76006  -0.74666  -0.74364  -0.73675  -0.73419
 Alpha  occ. eigenvalues --   -0.72890  -0.72682  -0.71246  -0.70850  -0.70446
 Alpha  occ. eigenvalues --   -0.70055  -0.69635  -0.68663  -0.68451  -0.67472
 Alpha  occ. eigenvalues --   -0.67262  -0.67126  -0.66458  -0.65512  -0.65162
 Alpha  occ. eigenvalues --   -0.64785  -0.64414  -0.64170  -0.63785  -0.63630
 Alpha  occ. eigenvalues --   -0.63525  -0.63303  -0.63005  -0.62243  -0.61981
 Alpha  occ. eigenvalues --   -0.61770  -0.61290  -0.60554  -0.60390  -0.60318
 Alpha  occ. eigenvalues --   -0.59589  -0.59125  -0.58973  -0.58679  -0.58200
 Alpha  occ. eigenvalues --   -0.58018  -0.57527  -0.56729  -0.56506  -0.56371
 Alpha  occ. eigenvalues --   -0.56121  -0.55804  -0.55161  -0.54860  -0.54439
 Alpha  occ. eigenvalues --   -0.54153  -0.53789  -0.53602  -0.53480  -0.53080
 Alpha  occ. eigenvalues --   -0.52639  -0.52376  -0.52106  -0.51728  -0.51187
 Alpha  occ. eigenvalues --   -0.50969  -0.50894  -0.50803  -0.50337  -0.50287
 Alpha  occ. eigenvalues --   -0.49775  -0.49035  -0.48862  -0.48624  -0.48473
 Alpha  occ. eigenvalues --   -0.48299  -0.48134  -0.47705  -0.47627  -0.47315
 Alpha  occ. eigenvalues --   -0.47250  -0.47120  -0.46909  -0.46556  -0.46532
 Alpha  occ. eigenvalues --   -0.46409  -0.46236  -0.46068  -0.45821  -0.45468
 Alpha  occ. eigenvalues --   -0.44883  -0.44718  -0.44682  -0.44284  -0.43890
 Alpha  occ. eigenvalues --   -0.43768  -0.43065  -0.43012  -0.42525  -0.41817
 Alpha  occ. eigenvalues --   -0.40768  -0.40527  -0.40011  -0.39086  -0.37745
 Alpha  occ. eigenvalues --   -0.37562  -0.37222  -0.36367  -0.34840  -0.33825
 Alpha  occ. eigenvalues --   -0.33723  -0.32504  -0.32205  -0.30881  -0.27265
 Alpha  occ. eigenvalues --   -0.21938
 Alpha virt. eigenvalues --   -0.08113  -0.02410  -0.00459   0.01348   0.01653
 Alpha virt. eigenvalues --    0.02331   0.02800   0.03500   0.04320   0.04323
 Alpha virt. eigenvalues --    0.05093   0.05984   0.07428   0.07612   0.07863

 Mulliken charges:
               1
     1  Mg   0.432072
     2  C   -0.013615
     3  C   -0.085257
     4  C   -0.108064
     5  C   -0.053077
     6  N   -0.282663
     7  C    0.084163
     8  C    0.013968
     9  C   -0.003257
    10  C    0.184880
    11  C   -0.049421
    12  C   -0.027970
    13  C   -0.001608
    14  C    0.467392
    15  O   -0.505595
    16  O   -0.267230
    17  N   -0.363994
    18  C    0.155974
    19  C    0.054420
    20  C   -0.064138
    21  C    0.162407
    22  C   -0.028444
    23  C    0.334750
    24  O   -0.509978
    25  C   -0.027187
    26  N   -0.269345
    27  C    0.175631
    28  C    0.009865
    29  C    0.000075
    30  C    0.063458
    31  C   -0.049101
    32  C   -0.029987
    33  C   -0.055264
    34  N   -0.332439
    35  C    0.062293
    36  C    0.021504
    37  C   -0.061420
    38  C    0.099319
    39  C   -0.033905
    40  C    0.325120
    41  O   -0.528635
    42  C    0.059104
    43  C    0.491072
    44  O   -0.513643
    45  O   -0.278233
    46  C    0.072887
    47  C    0.096770
    48  C   -0.104379
    49  C    0.010325
    50  C   -0.049491
    51  C   -0.022885
    52  C   -0.030757
    53  C   -0.039923
    54  C   -0.009495
    55  C   -0.063320
    56  C   -0.041466
    57  C   -0.038577
    58  C   -0.032576
    59  C   -0.016562
    60  C   -0.065192
    61  C   -0.039163
    62  C   -0.049187
    63  C   -0.026736
    64  C   -0.013166
    65  C   -0.071643
    66  C   -0.062869
    67  H    0.027385
    68  H    0.018256
    69  H    0.017629
    70  H    0.034367
    71  H    0.029303
    72  H    0.024897
    73  H    0.033046
    74  H    0.027321
    75  H    0.030742
    76  H    0.012121
    77  H    0.042041
    78  H    0.039671
    79  H    0.046615
    80  H    0.046228
    81  H    0.016216
    82  H    0.036087
    83  H    0.050633
    84  H    0.030790
    85  H    0.031982
    86  H    0.040281
    87  H    0.024764
    88  H    0.024029
    89  H    0.024075
    90  H    0.024205
    91  H    0.018209
    92  H    0.021208
    93  H    0.023119
    94  H    0.015413
    95  H    0.009992
    96  H    0.029131
    97  H    0.035766
    98  H    0.051652
    99  H    0.053090
   100  H    0.044036
   101  H    0.026020
   102  H    0.061607
   103  H    0.037184
   104  H    0.026928
   105  H    0.033032
   106  H    0.035190
   107  H    0.037483
   108  H    0.028036
   109  H    0.014052
   110  H    0.019376
   111  H    0.018666
   112  H    0.013120
   113  H    0.021201
   114  H    0.014441
   115  H    0.021944
   116  H    0.004303
   117  H    0.027831
   118  H    0.019845
   119  H    0.019405
   120  H    0.024527
   121  H    0.016291
   122  H    0.024521
   123  H    0.008190
   124  H    0.012086
   125  H    0.029744
   126  H    0.027312
   127  H    0.029896
   128  H    0.017189
   129  H    0.020776
   130  H    0.022371
   131  H    0.012286
   132  H    0.010458
   133  H    0.022677
   134  H    0.025653
   135  H    0.018845
   136  H    0.033855
   137  H    0.013449
   138  H    0.027751
   139  H    0.012638
   140  H    0.018927
 Sum of Mulliken charges =   0.00000

 Dipole moment (field-independent basis, Debye):
    X=              4.2422    Y=              5.7345    Z=              6.8697  Tot=              9.9032
 N-N= 4.376492258654D+03 E-N= 0.000000000000D+00  KE=-9.427497602319D+03
 Leave Link  601 at Wed May  4 02:09:08 2022, MaxMem=  6710886400 cpu:               1.0 elap:               0.1
 (Enter /sw/apps/gaussian-16.0/g16/l9999.exe)
 1\1\GINC-BP1-COMPUTE100\SP\RZINDO CIS\STO-3G\C55H74Mg1N4O6\OF15641\04-
 May-2022\0\\#p ZINDO=(nstates=5)\\step_1251_chromophore_11 ZINDO\\0,1\
 Mg,0,52.987,24.02,44.668\C,0,50.17,25.855,43.741\C,0,51.446,21.165,43.
 376\C,0,56.04,22.596,44.166\C,0,54.429,26.874,45.923\N,0,51.074,23.634
 ,43.494\C,0,50.02,24.572,43.293\C,0,48.773,23.858,42.874\C,0,49.121,22
 .349,43.151\C,0,50.652,22.389,43.302\C,0,48.369,21.834,44.429\C,0,48.4
 26,24.111,41.342\C,0,49.545,24.691,40.45\C,0,49.093,25.285,39.117\O,0,

 Normal termination of Gaussian 16 at Wed May  4 02:09:08 2022.
