 Gaussian 16, Revision A.03,
 Gaussian 16:  ES64L-G16RevA.03 25-Dec-2016

 ------------------------------
 #p blyp/Def2SVP td=(nstates=5)
 ------------------------------

 ---------------------------------------------------
 step_1501_chromophore_15 TDDFT with blyp functional
 ---------------------------------------------------
 Symbolic Z-matrix:
 Charge =  0 Multiplicity = 1

                         Standard orientation:
 ---------------------------------------------------------------------
 Center     Atomic      Atomic             Coordinates (Angstroms)
 Number     Number       Type             X           Y           Z
 ---------------------------------------------------------------------
      1         12           0       -4.670216    0.910973   -0.153945
      2          6           0       -3.993093   -2.576938    0.447275
      3          6           0       -1.271875    1.270099   -0.316343
      4          6           0       -5.234533    4.016723   -0.030365
      5          6           0       -8.055306    0.093196    0.660177
      6          7           0       -2.831009   -0.440131    0.137508
      7          6           0       -2.832635   -1.834036    0.197563
      8          6           0       -1.420281   -2.447475   -0.169522
      9          6           0       -0.573548   -1.198004    0.081779
     10          6           0       -1.582319   -0.041214   -0.193590
     11          6           0        0.076230   -1.080668    1.484672
     12          6           0       -1.469287   -2.884948   -1.672302
     13          6           0       -0.214498   -3.658735   -2.227405
     14          6           0        0.978317   -3.762744   -1.282571
     15          8           0        1.004504   -4.346235   -0.206256
     16          8           0        2.052576   -3.097201   -1.810862
     17          7           0       -3.439095    2.408285   -0.269566
     18          6           0       -2.076535    2.426977   -0.378629
     19          6           0       -1.563225    3.787309   -0.357214
     20          6           0       -2.700098    4.670735   -0.326038
     21          6           0       -3.861350    3.720891   -0.095947
     22          6           0       -0.081074    4.212637   -0.508134
     23          6           0       -2.776945    6.158406   -0.412173
     24          8           0       -3.894301    6.767545   -0.386289
     25          6           0       -1.489573    6.993855   -0.504390
     26          7           0       -6.435015    1.860295    0.190461
     27          6           0       -6.372104    3.238443    0.169914
     28          6           0       -7.755562    3.841167    0.501445
     29          6           0       -8.668437    2.609454    0.842726
     30          6           0       -7.677135    1.439340    0.637434
     31          6           0       -7.725560    4.943773    1.642538
     32          6           0      -10.074065    2.498756    0.218376
     33          6           0      -11.228511    2.640893    1.231317
     34          7           0       -5.810730   -0.856653    0.314860
     35          6           0       -7.171683   -0.980721    0.471864
     36          6           0       -7.477305   -2.312465    0.595187
     37          6           0       -6.288722   -3.009771    0.583670
     38          6           0       -5.321403   -2.045905    0.458339
     39          6           0       -8.883125   -2.850696    0.760434
     40          6           0       -5.762070   -4.362521    0.679094
     41          8           0       -6.361216   -5.454061    0.795566
     42          6           0       -4.268835   -4.122405    0.779974
     43          6           0       -3.472136   -5.211663    0.119369
     44          8           0       -3.588469   -5.423438   -1.085363
     45          8           0       -2.556954   -5.761624    0.956725
     46          6           0       -1.604273   -6.644167    0.359472
     47          6           0        3.334809   -3.344283   -1.143797
     48          6           0        4.321110   -2.439545   -1.894660
     49          6           0        5.676307   -2.582294   -2.099996
     50          6           0        6.368505   -3.794541   -1.579591
     51          6           0        6.406097   -1.512497   -2.837975
     52          6           0        6.386861   -0.177296   -2.094122
     53          6           0        6.364736    0.970773   -3.084174
     54          6           0        6.706810    2.318740   -2.427401
     55          6           0        5.966474    3.449327   -3.111355
     56          6           0        8.282175    2.458549   -2.411459
     57          6           0        8.798688    2.946238   -1.004547
     58          6           0        9.376966    1.785611   -0.175328
     59          6           0       10.871646    1.675901    0.102404
     60          6           0       11.619349    1.535295   -1.303838
     61          6           0       11.199051    0.407924    0.957240
     62          6           0       11.951175    0.786925    2.199532
     63          6           0       11.830385   -0.285821    3.317868
     64          6           0       10.726579    0.079950    4.314670
     65          6           0       10.995556    1.305197    5.233307
     66          6           0       10.489598   -1.150668    5.218776
     67          1           0       -0.212030    1.505995   -0.431502
     68          1           0       -5.539520    5.064089    0.019380
     69          1           0       -9.119504   -0.095113    0.814356
     70          1           0       -1.174079   -3.293655    0.471733
     71          1           0        0.184274   -1.234789   -0.701039
     72          1           0       -0.497731   -1.624628    2.234569
     73          1           0        0.117880   -0.026909    1.760604
     74          1           0        1.145787   -1.280612    1.545986
     75          1           0       -1.595681   -2.024288   -2.329281
     76          1           0       -2.309782   -3.557049   -1.846318
     77          1           0        0.167727   -3.220675   -3.149144
     78          1           0       -0.600394   -4.616327   -2.578910
     79          1           0        0.599297    3.374548   -0.358976
     80          1           0        0.199500    5.011351    0.178338
     81          1           0        0.229476    4.431118   -1.528999
     82          1           0       -0.936864    6.673901   -1.387532
     83          1           0       -0.905404    6.799785    0.395222
     84          1           0       -1.747810    8.050418   -0.574899
     85          1           0       -8.162628    4.393028   -0.345770
     86          1           0       -8.867668    2.657782    1.913202
     87          1           0       -6.664381    4.974235    1.889454
     88          1           0       -8.305176    4.742127    2.543349
     89          1           0       -7.971261    5.909505    1.201492
     90          1           0      -10.194015    1.567954   -0.335266
     91          1           0      -10.209206    3.302219   -0.505961
     92          1           0      -11.502552    3.681583    1.062409
     93          1           0      -10.868370    2.378692    2.226396
     94          1           0      -12.059855    1.973199    1.000972
     95          1           0       -9.232014   -2.846889   -0.272312
     96          1           0       -9.520066   -2.260540    1.420201
     97          1           0       -8.911716   -3.882137    1.112573
     98          1           0       -3.981444   -4.404175    1.792699
     99          1           0       -1.851953   -7.095432   -0.600610
    100          1           0       -1.461655   -7.486393    1.036402
    101          1           0       -0.630068   -6.155303    0.344883
    102          1           0        3.643886   -4.383259   -1.259008
    103          1           0        3.467961   -3.089370   -0.093056
    104          1           0        3.820142   -1.573791   -2.329719
    105          1           0        7.118517   -4.091455   -2.311489
    106          1           0        5.681011   -4.623494   -1.407081
    107          1           0        6.877122   -3.576292   -0.640719
    108          1           0        5.968996   -1.445294   -3.834504
    109          1           0        7.429186   -1.850254   -2.998658
    110          1           0        7.357508   -0.029294   -1.619123
    111          1           0        5.693869   -0.104060   -1.256803
    112          1           0        5.380197    0.950948   -3.550871
    113          1           0        7.114781    0.661411   -3.813419
    114          1           0        6.264947    2.267484   -1.431407
    115          1           0        6.664483    4.219461   -3.438975
    116          1           0        5.258024    3.893283   -2.411479
    117          1           0        5.409557    3.114972   -3.985672
    118          1           0        8.659728    3.230713   -3.081359
    119          1           0        8.772725    1.498899   -2.576620
    120          1           0        7.994398    3.445708   -0.463642
    121          1           0        9.589938    3.677856   -1.166536
    122          1           0        9.096262    0.777818   -0.482884
    123          1           0        8.851285    1.954404    0.764504
    124          1           0       11.270420    2.559751    0.599997
    125          1           0       12.678180    1.789958   -1.257064
    126          1           0       11.097802    2.059012   -2.105281
    127          1           0       11.529170    0.471139   -1.519018
    128          1           0       11.782007   -0.252056    0.314662
    129          1           0       10.285197   -0.139221    1.187983
    130          1           0       11.658074    1.729142    2.662242
    131          1           0       13.000786    0.889633    1.925081
    132          1           0       12.850130   -0.217152    3.697067
    133          1           0       11.639113   -1.212157    2.775143
    134          1           0        9.755360    0.332314    3.889752
    135          1           0       12.059395    1.318804    5.469325
    136          1           0       10.456642    1.311166    6.180514
    137          1           0       10.672179    2.184511    4.676480
    138          1           0       10.859619   -0.918749    6.216728
    139          1           0       10.999222   -2.022988    4.808432
    140          1           0        9.403517   -1.236624    5.233818
 ---------------------------------------------------------------------

 SCF Done:  E(RB-LYP) =  -3007.38615298     A.U. after   21 cycles

 Excitation energies and oscillator strengths:

 Excited State   1:      Singlet-A      1.7893 eV  692.91 nm  f=0.2214  <S**2>=0.000
     244 -> 247       -0.20967
     245 -> 247        0.18549
     245 -> 248       -0.16110
     246 -> 247        0.62476
     246 <- 247       -0.13352
 This state for optimization and/or second-order correction.
 Total Energy, E(TD-HF/TD-DFT) =  -3007.32039671
 Copying the excited state density for this state as the 1-particle RhoCI density.

 Excited State   2:      Singlet-A      1.8082 eV  685.68 nm  f=0.0711  <S**2>=0.000
     244 -> 247        0.59142
     245 -> 247       -0.26471
     246 -> 247        0.27050

 Excited State   3:      Singlet-A      1.8912 eV  655.59 nm  f=0.0103  <S**2>=0.000
     243 -> 247        0.68752
     244 -> 247       -0.10495

 Excited State   4:      Singlet-A      2.0126 eV  616.03 nm  f=0.0935  <S**2>=0.000
     241 -> 247        0.10470
     243 -> 247        0.13355
     244 -> 247        0.29971
     245 -> 247        0.56260
     246 -> 248        0.18665
     246 -> 249       -0.13151

 Excited State   5:      Singlet-A      2.1223 eV  584.19 nm  f=0.0000  <S**2>=0.000
     242 -> 247        0.70709

 The electronic state is 1-A.
 Alpha  occ. eigenvalues --  -46.26454 -18.83559 -18.82982 -18.78041 -18.76137
 Alpha  occ. eigenvalues --  -18.75543 -18.75225 -14.03200 -14.03056 -14.01711
 Alpha  occ. eigenvalues --  -13.99958 -10.05135 -10.03692 -10.00284  -9.99011
 Alpha  occ. eigenvalues --   -9.98864  -9.96725  -9.96650  -9.96636  -9.96576
 Alpha  occ. eigenvalues --   -9.96497  -9.96138  -9.95838  -9.94864  -9.94201
 Alpha  occ. eigenvalues --   -9.94167  -9.93912  -9.93894  -9.93848  -9.93783
 Alpha  occ. eigenvalues --   -9.93726  -9.93717  -9.93714  -9.93710  -9.93588
 Alpha  occ. eigenvalues --   -9.93206  -9.92938  -9.92683  -9.92677  -9.92564
 Alpha  occ. eigenvalues --   -9.92415  -9.92378  -9.92244  -9.92231  -9.92205
 Alpha  occ. eigenvalues --   -9.92087  -9.92056  -9.92042  -9.92033  -9.91973
 Alpha  occ. eigenvalues --   -9.91919  -9.91813  -9.91751  -9.91649  -9.91498
 Alpha  occ. eigenvalues --   -9.91451  -9.91240  -9.91205  -9.91159  -9.91049
 Alpha  occ. eigenvalues --   -9.91039  -9.91029  -9.90997  -9.90715  -9.90451
 Alpha  occ. eigenvalues --   -9.89619  -2.91385  -1.71791  -1.71300  -1.71086
 Alpha  occ. eigenvalues --   -0.99024  -0.98573  -0.90978  -0.89986  -0.89204
 Alpha  occ. eigenvalues --   -0.89014  -0.87698  -0.85949  -0.85250  -0.84616
 Alpha  occ. eigenvalues --   -0.74827  -0.74460  -0.73436  -0.72706  -0.72364
 Alpha  occ. eigenvalues --   -0.72286  -0.71698  -0.71311  -0.70624  -0.70560
 Alpha  occ. eigenvalues --   -0.70067  -0.69391  -0.68334  -0.67715  -0.67387
 Alpha  occ. eigenvalues --   -0.66952  -0.65979  -0.65444  -0.65359  -0.64608
 Alpha  occ. eigenvalues --   -0.64331  -0.62731  -0.62207  -0.61889  -0.61113
 Alpha  occ. eigenvalues --   -0.60726  -0.60104  -0.59865  -0.59788  -0.59037
 Alpha  occ. eigenvalues --   -0.58094  -0.57779  -0.56592  -0.55633  -0.54377
 Alpha  occ. eigenvalues --   -0.54057  -0.53785  -0.53360  -0.52561  -0.51397
 Alpha  occ. eigenvalues --   -0.51337  -0.51274  -0.50661  -0.50465  -0.50394
 Alpha  occ. eigenvalues --   -0.50178  -0.49466  -0.48973  -0.48541  -0.46815
 Alpha  occ. eigenvalues --   -0.46705  -0.45870  -0.45631  -0.45185  -0.44554
 Alpha  occ. eigenvalues --   -0.43299  -0.43146  -0.43040  -0.42931  -0.42425
 Alpha  occ. eigenvalues --   -0.42085  -0.41883  -0.41745  -0.41623  -0.41589
 Alpha  occ. eigenvalues --   -0.41015  -0.40982  -0.40580  -0.40419  -0.40307
 Alpha  occ. eigenvalues --   -0.40049  -0.39924  -0.39794  -0.39504  -0.39412
 Alpha  occ. eigenvalues --   -0.39013  -0.38894  -0.38629  -0.38486  -0.38238
 Alpha  occ. eigenvalues --   -0.38110  -0.37973  -0.37880  -0.37725  -0.37471
 Alpha  occ. eigenvalues --   -0.37323  -0.36946  -0.36699  -0.36407  -0.36366
 Alpha  occ. eigenvalues --   -0.36221  -0.36095  -0.35986  -0.35672  -0.35476
 Alpha  occ. eigenvalues --   -0.35330  -0.35238  -0.35192  -0.34955  -0.34634
 Alpha  occ. eigenvalues --   -0.34574  -0.34473  -0.34303  -0.34233  -0.33981
 Alpha  occ. eigenvalues --   -0.33760  -0.33614  -0.33499  -0.33376  -0.32999
 Alpha  occ. eigenvalues --   -0.32970  -0.32736  -0.32569  -0.32439  -0.32315
 Alpha  occ. eigenvalues --   -0.32009  -0.31791  -0.31732  -0.31672  -0.31402
 Alpha  occ. eigenvalues --   -0.31041  -0.30985  -0.30911  -0.30744  -0.30459
 Alpha  occ. eigenvalues --   -0.30423  -0.30236  -0.30052  -0.29948  -0.29797
 Alpha  occ. eigenvalues --   -0.29729  -0.29632  -0.29594  -0.29204  -0.29110
 Alpha  occ. eigenvalues --   -0.29101  -0.28853  -0.28678  -0.28244  -0.28203
 Alpha  occ. eigenvalues --   -0.27824  -0.27752  -0.27630  -0.27094  -0.26809
 Alpha  occ. eigenvalues --   -0.26579  -0.26497  -0.26344  -0.25812  -0.25696
 Alpha  occ. eigenvalues --   -0.25432  -0.25196  -0.24772  -0.23904  -0.23568
 Alpha  occ. eigenvalues --   -0.23320  -0.22848  -0.22384  -0.21355  -0.21021
 Alpha  occ. eigenvalues --   -0.20125  -0.19576  -0.18633  -0.18404  -0.17283
 Alpha  occ. eigenvalues --   -0.16036
 Alpha virt. eigenvalues --   -0.11776  -0.07404  -0.05912  -0.04752  -0.04090
 Alpha virt. eigenvalues --   -0.03104  -0.02302  -0.02170  -0.01645   0.00332
 Alpha virt. eigenvalues --    0.01076   0.01521   0.02253   0.02656   0.02668

 Mulliken charges:
               1
     1  Mg   0.731891
     2  C    0.081792
     3  C   -0.063835
     4  C   -0.020875
     5  C   -0.117164
     6  N   -0.197721
     7  C   -0.111307
     8  C    0.004275
     9  C    0.053631
    10  C    0.020631
    11  C    0.165989
    12  C    0.081550
    13  C    0.144732
    14  C    0.086716
    15  O   -0.195921
    16  O   -0.262794
    17  N   -0.351338
    18  C    0.138211
    19  C   -0.130893
    20  C    0.057696
    21  C    0.122877
    22  C    0.153783
    23  C   -0.077874
    24  O   -0.205135
    25  C    0.129789
    26  N   -0.283225
    27  C    0.037564
    28  C   -0.020566
    29  C    0.089675
    30  C    0.016826
    31  C    0.102026
    32  C    0.080884
    33  C    0.052030
    34  N   -0.176286
    35  C    0.138911
    36  C   -0.197544
    37  C    0.068866
    38  C    0.025825
    39  C    0.176969
    40  C    0.004807
    41  O   -0.154489
    42  C    0.060700
    43  C    0.074718
    44  O   -0.199878
    45  O   -0.234252
    46  C    0.192716
    47  C    0.328308
    48  C   -0.151885
    49  C   -0.177706
    50  C    0.159618
    51  C    0.191975
    52  C    0.067254
    53  C    0.060612
    54  C   -0.044131
    55  C    0.131713
    56  C    0.095647
    57  C    0.080144
    58  C    0.052119
    59  C   -0.061281
    60  C    0.077110
    61  C    0.127192
    62  C    0.051016
    63  C    0.126693
    64  C   -0.119370
    65  C    0.088220
    66  C    0.130065
    67  H   -0.071414
    68  H   -0.039959
    69  H   -0.057818
    70  H   -0.018253
    71  H   -0.049025
    72  H    0.002445
    73  H   -0.028738
    74  H   -0.011830
    75  H   -0.022960
    76  H    0.008813
    77  H   -0.015400
    78  H    0.007625
    79  H   -0.028960
    80  H    0.003812
    81  H    0.007582
    82  H    0.010220
    83  H    0.014131
    84  H   -0.004080
    85  H   -0.012556
    86  H   -0.028917
    87  H   -0.003600
    88  H   -0.000707
    89  H   -0.002970
    90  H   -0.019698
    91  H   -0.027356
    92  H    0.004244
    93  H   -0.001250
    94  H   -0.006596
    95  H    0.000702
    96  H   -0.001554
    97  H    0.001805
    98  H    0.001855
    99  H    0.022119
   100  H   -0.001811
   101  H    0.023842
   102  H   -0.003610
   103  H    0.018560
   104  H   -0.034214
   105  H   -0.010374
   106  H   -0.018915
   107  H    0.001833
   108  H   -0.012860
   109  H   -0.048075
   110  H   -0.057501
   111  H   -0.023948
   112  H   -0.036226
   113  H   -0.028135
   114  H   -0.038346
   115  H   -0.025293
   116  H   -0.021112
   117  H   -0.019561
   118  H   -0.028822
   119  H   -0.014061
   120  H   -0.029354
   121  H   -0.036482
   122  H   -0.016743
   123  H   -0.042690
   124  H   -0.035934
   125  H   -0.009592
   126  H   -0.012027
   127  H   -0.026364
   128  H   -0.041137
   129  H   -0.040107
   130  H   -0.037056
   131  H   -0.042754
   132  H   -0.032553
   133  H   -0.028268
   134  H   -0.034441
   135  H   -0.016169
   136  H   -0.014353
   137  H   -0.008094
   138  H   -0.020992
   139  H   -0.017619
   140  H   -0.018650
 Sum of Mulliken charges =  -0.00000

 Dipole moment (field-independent basis, Debye):
    X=              5.2598    Y=              3.1529    Z=             -0.5901  Tot=              6.1608
 Quadrupole moment (field-independent basis, Debye-Ang):
   XX=           -379.0947   YY=           -444.7612   ZZ=           -405.9440
   XY=            -29.3618   XZ=             -5.4823   YZ=              5.6590

 Normal termination of Gaussian 16 at Wed May  4 08:02:36 2022.
