 Gaussian 16, Revision A.03,
 Gaussian 16:  ES64L-G16RevA.03 25-Dec-2016

 -----------------------------------
 #p cam-b3lyp/Def2SVP td=(nstates=5)
 -----------------------------------

 --------------------------------------------------------
 step_1501_chromophore_15 TDDFT with cam-b3lyp functional
 --------------------------------------------------------
 Symbolic Z-matrix:
 Charge =  0 Multiplicity = 1

                         Standard orientation:
 ---------------------------------------------------------------------
 Center     Atomic      Atomic             Coordinates (Angstroms)
 Number     Number       Type             X           Y           Z
 ---------------------------------------------------------------------
      1         12           0       -4.670216    0.910973   -0.153945
      2          6           0       -3.993093   -2.576938    0.447275
      3          6           0       -1.271875    1.270099   -0.316343
      4          6           0       -5.234533    4.016723   -0.030365
      5          6           0       -8.055306    0.093196    0.660177
      6          7           0       -2.831009   -0.440131    0.137508
      7          6           0       -2.832635   -1.834036    0.197563
      8          6           0       -1.420281   -2.447475   -0.169522
      9          6           0       -0.573548   -1.198004    0.081779
     10          6           0       -1.582319   -0.041214   -0.193590
     11          6           0        0.076230   -1.080668    1.484672
     12          6           0       -1.469287   -2.884948   -1.672302
     13          6           0       -0.214498   -3.658735   -2.227405
     14          6           0        0.978317   -3.762744   -1.282571
     15          8           0        1.004504   -4.346235   -0.206256
     16          8           0        2.052576   -3.097201   -1.810862
     17          7           0       -3.439095    2.408285   -0.269566
     18          6           0       -2.076535    2.426977   -0.378629
     19          6           0       -1.563225    3.787309   -0.357214
     20          6           0       -2.700098    4.670735   -0.326038
     21          6           0       -3.861350    3.720891   -0.095947
     22          6           0       -0.081074    4.212637   -0.508134
     23          6           0       -2.776945    6.158406   -0.412173
     24          8           0       -3.894301    6.767545   -0.386289
     25          6           0       -1.489573    6.993855   -0.504390
     26          7           0       -6.435015    1.860295    0.190461
     27          6           0       -6.372104    3.238443    0.169914
     28          6           0       -7.755562    3.841167    0.501445
     29          6           0       -8.668437    2.609454    0.842726
     30          6           0       -7.677135    1.439340    0.637434
     31          6           0       -7.725560    4.943773    1.642538
     32          6           0      -10.074065    2.498756    0.218376
     33          6           0      -11.228511    2.640893    1.231317
     34          7           0       -5.810730   -0.856653    0.314860
     35          6           0       -7.171683   -0.980721    0.471864
     36          6           0       -7.477305   -2.312465    0.595187
     37          6           0       -6.288722   -3.009771    0.583670
     38          6           0       -5.321403   -2.045905    0.458339
     39          6           0       -8.883125   -2.850696    0.760434
     40          6           0       -5.762070   -4.362521    0.679094
     41          8           0       -6.361216   -5.454061    0.795566
     42          6           0       -4.268835   -4.122405    0.779974
     43          6           0       -3.472136   -5.211663    0.119369
     44          8           0       -3.588469   -5.423438   -1.085363
     45          8           0       -2.556954   -5.761624    0.956725
     46          6           0       -1.604273   -6.644167    0.359472
     47          6           0        3.334809   -3.344283   -1.143797
     48          6           0        4.321110   -2.439545   -1.894660
     49          6           0        5.676307   -2.582294   -2.099996
     50          6           0        6.368505   -3.794541   -1.579591
     51          6           0        6.406097   -1.512497   -2.837975
     52          6           0        6.386861   -0.177296   -2.094122
     53          6           0        6.364736    0.970773   -3.084174
     54          6           0        6.706810    2.318740   -2.427401
     55          6           0        5.966474    3.449327   -3.111355
     56          6           0        8.282175    2.458549   -2.411459
     57          6           0        8.798688    2.946238   -1.004547
     58          6           0        9.376966    1.785611   -0.175328
     59          6           0       10.871646    1.675901    0.102404
     60          6           0       11.619349    1.535295   -1.303838
     61          6           0       11.199051    0.407924    0.957240
     62          6           0       11.951175    0.786925    2.199532
     63          6           0       11.830385   -0.285821    3.317868
     64          6           0       10.726579    0.079950    4.314670
     65          6           0       10.995556    1.305197    5.233307
     66          6           0       10.489598   -1.150668    5.218776
     67          1           0       -0.212030    1.505995   -0.431502
     68          1           0       -5.539520    5.064089    0.019380
     69          1           0       -9.119504   -0.095113    0.814356
     70          1           0       -1.174079   -3.293655    0.471733
     71          1           0        0.184274   -1.234789   -0.701039
     72          1           0       -0.497731   -1.624628    2.234569
     73          1           0        0.117880   -0.026909    1.760604
     74          1           0        1.145787   -1.280612    1.545986
     75          1           0       -1.595681   -2.024288   -2.329281
     76          1           0       -2.309782   -3.557049   -1.846318
     77          1           0        0.167727   -3.220675   -3.149144
     78          1           0       -0.600394   -4.616327   -2.578910
     79          1           0        0.599297    3.374548   -0.358976
     80          1           0        0.199500    5.011351    0.178338
     81          1           0        0.229476    4.431118   -1.528999
     82          1           0       -0.936864    6.673901   -1.387532
     83          1           0       -0.905404    6.799785    0.395222
     84          1           0       -1.747810    8.050418   -0.574899
     85          1           0       -8.162628    4.393028   -0.345770
     86          1           0       -8.867668    2.657782    1.913202
     87          1           0       -6.664381    4.974235    1.889454
     88          1           0       -8.305176    4.742127    2.543349
     89          1           0       -7.971261    5.909505    1.201492
     90          1           0      -10.194015    1.567954   -0.335266
     91          1           0      -10.209206    3.302219   -0.505961
     92          1           0      -11.502552    3.681583    1.062409
     93          1           0      -10.868370    2.378692    2.226396
     94          1           0      -12.059855    1.973199    1.000972
     95          1           0       -9.232014   -2.846889   -0.272312
     96          1           0       -9.520066   -2.260540    1.420201
     97          1           0       -8.911716   -3.882137    1.112573
     98          1           0       -3.981444   -4.404175    1.792699
     99          1           0       -1.851953   -7.095432   -0.600610
    100          1           0       -1.461655   -7.486393    1.036402
    101          1           0       -0.630068   -6.155303    0.344883
    102          1           0        3.643886   -4.383259   -1.259008
    103          1           0        3.467961   -3.089370   -0.093056
    104          1           0        3.820142   -1.573791   -2.329719
    105          1           0        7.118517   -4.091455   -2.311489
    106          1           0        5.681011   -4.623494   -1.407081
    107          1           0        6.877122   -3.576292   -0.640719
    108          1           0        5.968996   -1.445294   -3.834504
    109          1           0        7.429186   -1.850254   -2.998658
    110          1           0        7.357508   -0.029294   -1.619123
    111          1           0        5.693869   -0.104060   -1.256803
    112          1           0        5.380197    0.950948   -3.550871
    113          1           0        7.114781    0.661411   -3.813419
    114          1           0        6.264947    2.267484   -1.431407
    115          1           0        6.664483    4.219461   -3.438975
    116          1           0        5.258024    3.893283   -2.411479
    117          1           0        5.409557    3.114972   -3.985672
    118          1           0        8.659728    3.230713   -3.081359
    119          1           0        8.772725    1.498899   -2.576620
    120          1           0        7.994398    3.445708   -0.463642
    121          1           0        9.589938    3.677856   -1.166536
    122          1           0        9.096262    0.777818   -0.482884
    123          1           0        8.851285    1.954404    0.764504
    124          1           0       11.270420    2.559751    0.599997
    125          1           0       12.678180    1.789958   -1.257064
    126          1           0       11.097802    2.059012   -2.105281
    127          1           0       11.529170    0.471139   -1.519018
    128          1           0       11.782007   -0.252056    0.314662
    129          1           0       10.285197   -0.139221    1.187983
    130          1           0       11.658074    1.729142    2.662242
    131          1           0       13.000786    0.889633    1.925081
    132          1           0       12.850130   -0.217152    3.697067
    133          1           0       11.639113   -1.212157    2.775143
    134          1           0        9.755360    0.332314    3.889752
    135          1           0       12.059395    1.318804    5.469325
    136          1           0       10.456642    1.311166    6.180514
    137          1           0       10.672179    2.184511    4.676480
    138          1           0       10.859619   -0.918749    6.216728
    139          1           0       10.999222   -2.022988    4.808432
    140          1           0        9.403517   -1.236624    5.233818
 ---------------------------------------------------------------------

 SCF Done:  E(RCAM-B3LYP) =  -3007.18486367     A.U. after   18 cycles

 Excitation energies and oscillator strengths:

 Excited State   1:      Singlet-A      1.6912 eV  733.12 nm  f=0.3745  <S**2>=0.000
     245 -> 248        0.16312
     246 -> 247        0.68650
 This state for optimization and/or second-order correction.
 Total Energy, E(TD-HF/TD-DFT) =  -3007.12271383
 Copying the excited state density for this state as the 1-particle RhoCI density.

 Excited State   2:      Singlet-A      2.2023 eV  562.97 nm  f=0.1471  <S**2>=0.000
     245 -> 247        0.64846
     246 -> 248       -0.25654

 Excited State   3:      Singlet-A      3.2791 eV  378.10 nm  f=0.0034  <S**2>=0.000
     243 -> 247        0.68764

 Excited State   4:      Singlet-A      3.4448 eV  359.92 nm  f=0.0038  <S**2>=0.000
     239 -> 247        0.16096
     239 -> 248        0.11130
     239 -> 249       -0.12370
     240 -> 247        0.42287
     240 -> 248        0.25088
     240 -> 249       -0.27337
     240 -> 250        0.13383
     241 -> 247        0.23469
     241 -> 249       -0.11289

 Excited State   5:      Singlet-A      3.4796 eV  356.32 nm  f=0.1342  <S**2>=0.000
     241 -> 247       -0.18174
     242 -> 247        0.45752
     242 -> 249        0.18240
     242 -> 250        0.19829
     242 -> 251       -0.11052
     245 -> 247       -0.13180
     246 -> 248       -0.34119

 The electronic state is 1-A.
 Alpha  occ. eigenvalues --  -46.87937 -19.26458 -19.25864 -19.21014 -19.19166
 Alpha  occ. eigenvalues --  -19.18956 -19.18303 -14.42129 -14.41928 -14.40311
 Alpha  occ. eigenvalues --  -14.38201 -10.40430 -10.39089 -10.35782 -10.34271
 Alpha  occ. eigenvalues --  -10.32941 -10.31367 -10.31139 -10.31127 -10.30796
 Alpha  occ. eigenvalues --  -10.30639 -10.30506 -10.30320 -10.29778 -10.28496
 Alpha  occ. eigenvalues --  -10.28343 -10.28080 -10.28015 -10.27916 -10.27914
 Alpha  occ. eigenvalues --  -10.27897 -10.27858 -10.27698 -10.27625 -10.27585
 Alpha  occ. eigenvalues --  -10.27112 -10.27081 -10.26754 -10.26706 -10.26496
 Alpha  occ. eigenvalues --  -10.26352 -10.26235 -10.26213 -10.26134 -10.25996
 Alpha  occ. eigenvalues --  -10.25966 -10.25874 -10.25847 -10.25796 -10.25738
 Alpha  occ. eigenvalues --  -10.25627 -10.25621 -10.25582 -10.25254 -10.25226
 Alpha  occ. eigenvalues --  -10.25141 -10.24918 -10.24849 -10.24823 -10.24735
 Alpha  occ. eigenvalues --  -10.24730 -10.24687 -10.24662 -10.24381 -10.24031
 Alpha  occ. eigenvalues --  -10.23470  -3.16785  -1.91661  -1.91264  -1.91091
 Alpha  occ. eigenvalues --   -1.17466  -1.17034  -1.08830  -1.08057  -1.07488
 Alpha  occ. eigenvalues --   -1.07313  -1.05300  -1.03677  -1.02894  -1.02167
 Alpha  occ. eigenvalues --   -0.91870  -0.91413  -0.90301  -0.89464  -0.89109
 Alpha  occ. eigenvalues --   -0.88979  -0.88348  -0.87946  -0.87324  -0.87147
 Alpha  occ. eigenvalues --   -0.86659  -0.85684  -0.84630  -0.83843  -0.83539
 Alpha  occ. eigenvalues --   -0.83060  -0.81983  -0.81516  -0.81238  -0.80499
 Alpha  occ. eigenvalues --   -0.80264  -0.78595  -0.77773  -0.77393  -0.76550
 Alpha  occ. eigenvalues --   -0.76117  -0.75451  -0.75155  -0.75129  -0.74295
 Alpha  occ. eigenvalues --   -0.73118  -0.72786  -0.71467  -0.70439  -0.68927
 Alpha  occ. eigenvalues --   -0.68726  -0.68430  -0.67936  -0.66984  -0.65693
 Alpha  occ. eigenvalues --   -0.65458  -0.65289  -0.64765  -0.64357  -0.64284
 Alpha  occ. eigenvalues --   -0.64246  -0.63460  -0.62678  -0.62429  -0.60521
 Alpha  occ. eigenvalues --   -0.60368  -0.59354  -0.59109  -0.58464  -0.57910
 Alpha  occ. eigenvalues --   -0.56720  -0.56489  -0.56325  -0.56231  -0.55670
 Alpha  occ. eigenvalues --   -0.55473  -0.55065  -0.54893  -0.54750  -0.54360
 Alpha  occ. eigenvalues --   -0.53798  -0.53697  -0.53271  -0.53078  -0.52936
 Alpha  occ. eigenvalues --   -0.52718  -0.52583  -0.52514  -0.52445  -0.52019
 Alpha  occ. eigenvalues --   -0.51652  -0.51407  -0.51184  -0.50999  -0.50607
 Alpha  occ. eigenvalues --   -0.50527  -0.50329  -0.50199  -0.50017  -0.49863
 Alpha  occ. eigenvalues --   -0.49495  -0.49465  -0.48977  -0.48896  -0.48636
 Alpha  occ. eigenvalues --   -0.48531  -0.48359  -0.48180  -0.47981  -0.47742
 Alpha  occ. eigenvalues --   -0.47458  -0.47390  -0.47030  -0.46937  -0.46848
 Alpha  occ. eigenvalues --   -0.46510  -0.46248  -0.46126  -0.45976  -0.45937
 Alpha  occ. eigenvalues --   -0.45600  -0.45492  -0.45307  -0.45143  -0.44897
 Alpha  occ. eigenvalues --   -0.44550  -0.44449  -0.44339  -0.44191  -0.43923
 Alpha  occ. eigenvalues --   -0.43790  -0.43418  -0.43279  -0.43011  -0.42872
 Alpha  occ. eigenvalues --   -0.42591  -0.42438  -0.42375  -0.42200  -0.42047
 Alpha  occ. eigenvalues --   -0.41685  -0.41575  -0.41496  -0.41432  -0.41194
 Alpha  occ. eigenvalues --   -0.40965  -0.40938  -0.40741  -0.40558  -0.40285
 Alpha  occ. eigenvalues --   -0.40082  -0.39930  -0.39733  -0.39500  -0.39183
 Alpha  occ. eigenvalues --   -0.38913  -0.38604  -0.38458  -0.38098  -0.37911
 Alpha  occ. eigenvalues --   -0.37821  -0.37161  -0.37068  -0.36733  -0.36470
 Alpha  occ. eigenvalues --   -0.36048  -0.36035  -0.35781  -0.34758  -0.34313
 Alpha  occ. eigenvalues --   -0.33908  -0.33773  -0.32830  -0.31597  -0.31241
 Alpha  occ. eigenvalues --   -0.30817  -0.30430  -0.29436  -0.29155  -0.24049
 Alpha  occ. eigenvalues --   -0.21428
 Alpha virt. eigenvalues --   -0.08961  -0.01912   0.00250   0.02065   0.02838
 Alpha virt. eigenvalues --    0.03800   0.04724   0.05279   0.05488   0.06858
 Alpha virt. eigenvalues --    0.07888   0.08117   0.08570   0.08875   0.08971

 Mulliken charges:
               1
     1  Mg   0.865669
     2  C    0.050847
     3  C   -0.080903
     4  C   -0.050691
     5  C   -0.117979
     6  N   -0.258271
     7  C   -0.066077
     8  C   -0.056441
     9  C   -0.003890
    10  C    0.036116
    11  C    0.110561
    12  C    0.034743
    13  C    0.080569
    14  C    0.158682
    15  O   -0.237616
    16  O   -0.327348
    17  N   -0.441828
    18  C    0.153352
    19  C   -0.138512
    20  C   -0.010355
    21  C    0.153845
    22  C    0.098203
    23  C   -0.000793
    24  O   -0.245682
    25  C    0.051325
    26  N   -0.357593
    27  C    0.058163
    28  C   -0.070579
    29  C    0.035110
    30  C    0.037231
    31  C    0.043923
    32  C    0.018884
    33  C   -0.007118
    34  N   -0.267661
    35  C    0.137936
    36  C   -0.193735
    37  C   -0.018470
    38  C    0.065618
    39  C    0.123861
    40  C    0.106742
    41  O   -0.195049
    42  C   -0.010461
    43  C    0.162977
    44  O   -0.238178
    45  O   -0.298694
    46  C    0.153347
    47  C    0.296452
    48  C   -0.166355
    49  C   -0.203017
    50  C    0.096285
    51  C    0.132958
    52  C    0.013778
    53  C    0.009670
    54  C   -0.102129
    55  C    0.073219
    56  C    0.042377
    57  C    0.024738
    58  C    0.003627
    59  C   -0.116645
    60  C    0.024212
    61  C    0.071990
    62  C    0.000329
    63  C    0.064162
    64  C   -0.176579
    65  C    0.028947
    66  C    0.068979
    67  H   -0.037394
    68  H    0.000148
    69  H   -0.021645
    70  H    0.019069
    71  H   -0.012870
    72  H    0.027356
    73  H   -0.002760
    74  H    0.013075
    75  H    0.007963
    76  H    0.041176
    77  H    0.020504
    78  H    0.039816
    79  H    0.000536
    80  H    0.029396
    81  H    0.035202
    82  H    0.037261
    83  H    0.040159
    84  H    0.032427
    85  H    0.021257
    86  H    0.005367
    87  H    0.021528
    88  H    0.023784
    89  H    0.021258
    90  H    0.009905
    91  H    0.001885
    92  H    0.026046
    93  H    0.020302
    94  H    0.017952
    95  H    0.026961
    96  H    0.021736
    97  H    0.030694
    98  H    0.045238
    99  H    0.047854
   100  H    0.021608
   101  H    0.044974
   102  H    0.023043
   103  H    0.044936
   104  H   -0.000850
   105  H    0.013859
   106  H    0.005446
   107  H    0.026282
   108  H    0.018513
   109  H   -0.016377
   110  H   -0.031272
   111  H    0.005397
   112  H   -0.008569
   113  H    0.000033
   114  H   -0.006478
   115  H   -0.000593
   116  H    0.002407
   117  H    0.005883
   118  H    0.000654
   119  H    0.009950
   120  H   -0.000624
   121  H   -0.006309
   122  H    0.005050
   123  H   -0.013073
   124  H   -0.004648
   125  H    0.015406
   126  H    0.008919
   127  H   -0.004349
   128  H   -0.010482
   129  H   -0.011017
   130  H   -0.010290
   131  H   -0.012646
   132  H   -0.002324
   133  H    0.000401
   134  H   -0.003846
   135  H    0.007462
   136  H    0.011547
   137  H    0.013746
   138  H    0.003369
   139  H    0.007309
   140  H    0.005590
 Sum of Mulliken charges =  -0.00000

 Dipole moment (field-independent basis, Debye):
    X=              5.8379    Y=              3.8297    Z=             -0.7076  Tot=              7.0177
 Quadrupole moment (field-independent basis, Debye-Ang):
   XX=           -380.0686   YY=           -441.0006   ZZ=           -406.1742
   XY=            -31.0816   XZ=             -5.9008   YZ=              5.7208

 Normal termination of Gaussian 16 at Wed May  4 07:05:53 2022.
