 Gaussian 16, Revision A.03,
 Gaussian 16:  ES64L-G16RevA.03 25-Dec-2016

 ---------------------------------
 #p PBE1PBE/Def2SVP td=(nstates=5)
 ---------------------------------

 ------------------------------------------------------
 step_1501_chromophore_15 TDDFT with PBE1PBE functional
 ------------------------------------------------------
 Symbolic Z-matrix:
 Charge =  0 Multiplicity = 1

                         Standard orientation:
 ---------------------------------------------------------------------
 Center     Atomic      Atomic             Coordinates (Angstroms)
 Number     Number       Type             X           Y           Z
 ---------------------------------------------------------------------
      1         12           0       -4.670216    0.910973   -0.153945
      2          6           0       -3.993093   -2.576938    0.447275
      3          6           0       -1.271875    1.270099   -0.316343
      4          6           0       -5.234533    4.016723   -0.030365
      5          6           0       -8.055306    0.093196    0.660177
      6          7           0       -2.831009   -0.440131    0.137508
      7          6           0       -2.832635   -1.834036    0.197563
      8          6           0       -1.420281   -2.447475   -0.169522
      9          6           0       -0.573548   -1.198004    0.081779
     10          6           0       -1.582319   -0.041214   -0.193590
     11          6           0        0.076230   -1.080668    1.484672
     12          6           0       -1.469287   -2.884948   -1.672302
     13          6           0       -0.214498   -3.658735   -2.227405
     14          6           0        0.978317   -3.762744   -1.282571
     15          8           0        1.004504   -4.346235   -0.206256
     16          8           0        2.052576   -3.097201   -1.810862
     17          7           0       -3.439095    2.408285   -0.269566
     18          6           0       -2.076535    2.426977   -0.378629
     19          6           0       -1.563225    3.787309   -0.357214
     20          6           0       -2.700098    4.670735   -0.326038
     21          6           0       -3.861350    3.720891   -0.095947
     22          6           0       -0.081074    4.212637   -0.508134
     23          6           0       -2.776945    6.158406   -0.412173
     24          8           0       -3.894301    6.767545   -0.386289
     25          6           0       -1.489573    6.993855   -0.504390
     26          7           0       -6.435015    1.860295    0.190461
     27          6           0       -6.372104    3.238443    0.169914
     28          6           0       -7.755562    3.841167    0.501445
     29          6           0       -8.668437    2.609454    0.842726
     30          6           0       -7.677135    1.439340    0.637434
     31          6           0       -7.725560    4.943773    1.642538
     32          6           0      -10.074065    2.498756    0.218376
     33          6           0      -11.228511    2.640893    1.231317
     34          7           0       -5.810730   -0.856653    0.314860
     35          6           0       -7.171683   -0.980721    0.471864
     36          6           0       -7.477305   -2.312465    0.595187
     37          6           0       -6.288722   -3.009771    0.583670
     38          6           0       -5.321403   -2.045905    0.458339
     39          6           0       -8.883125   -2.850696    0.760434
     40          6           0       -5.762070   -4.362521    0.679094
     41          8           0       -6.361216   -5.454061    0.795566
     42          6           0       -4.268835   -4.122405    0.779974
     43          6           0       -3.472136   -5.211663    0.119369
     44          8           0       -3.588469   -5.423438   -1.085363
     45          8           0       -2.556954   -5.761624    0.956725
     46          6           0       -1.604273   -6.644167    0.359472
     47          6           0        3.334809   -3.344283   -1.143797
     48          6           0        4.321110   -2.439545   -1.894660
     49          6           0        5.676307   -2.582294   -2.099996
     50          6           0        6.368505   -3.794541   -1.579591
     51          6           0        6.406097   -1.512497   -2.837975
     52          6           0        6.386861   -0.177296   -2.094122
     53          6           0        6.364736    0.970773   -3.084174
     54          6           0        6.706810    2.318740   -2.427401
     55          6           0        5.966474    3.449327   -3.111355
     56          6           0        8.282175    2.458549   -2.411459
     57          6           0        8.798688    2.946238   -1.004547
     58          6           0        9.376966    1.785611   -0.175328
     59          6           0       10.871646    1.675901    0.102404
     60          6           0       11.619349    1.535295   -1.303838
     61          6           0       11.199051    0.407924    0.957240
     62          6           0       11.951175    0.786925    2.199532
     63          6           0       11.830385   -0.285821    3.317868
     64          6           0       10.726579    0.079950    4.314670
     65          6           0       10.995556    1.305197    5.233307
     66          6           0       10.489598   -1.150668    5.218776
     67          1           0       -0.212030    1.505995   -0.431502
     68          1           0       -5.539520    5.064089    0.019380
     69          1           0       -9.119504   -0.095113    0.814356
     70          1           0       -1.174079   -3.293655    0.471733
     71          1           0        0.184274   -1.234789   -0.701039
     72          1           0       -0.497731   -1.624628    2.234569
     73          1           0        0.117880   -0.026909    1.760604
     74          1           0        1.145787   -1.280612    1.545986
     75          1           0       -1.595681   -2.024288   -2.329281
     76          1           0       -2.309782   -3.557049   -1.846318
     77          1           0        0.167727   -3.220675   -3.149144
     78          1           0       -0.600394   -4.616327   -2.578910
     79          1           0        0.599297    3.374548   -0.358976
     80          1           0        0.199500    5.011351    0.178338
     81          1           0        0.229476    4.431118   -1.528999
     82          1           0       -0.936864    6.673901   -1.387532
     83          1           0       -0.905404    6.799785    0.395222
     84          1           0       -1.747810    8.050418   -0.574899
     85          1           0       -8.162628    4.393028   -0.345770
     86          1           0       -8.867668    2.657782    1.913202
     87          1           0       -6.664381    4.974235    1.889454
     88          1           0       -8.305176    4.742127    2.543349
     89          1           0       -7.971261    5.909505    1.201492
     90          1           0      -10.194015    1.567954   -0.335266
     91          1           0      -10.209206    3.302219   -0.505961
     92          1           0      -11.502552    3.681583    1.062409
     93          1           0      -10.868370    2.378692    2.226396
     94          1           0      -12.059855    1.973199    1.000972
     95          1           0       -9.232014   -2.846889   -0.272312
     96          1           0       -9.520066   -2.260540    1.420201
     97          1           0       -8.911716   -3.882137    1.112573
     98          1           0       -3.981444   -4.404175    1.792699
     99          1           0       -1.851953   -7.095432   -0.600610
    100          1           0       -1.461655   -7.486393    1.036402
    101          1           0       -0.630068   -6.155303    0.344883
    102          1           0        3.643886   -4.383259   -1.259008
    103          1           0        3.467961   -3.089370   -0.093056
    104          1           0        3.820142   -1.573791   -2.329719
    105          1           0        7.118517   -4.091455   -2.311489
    106          1           0        5.681011   -4.623494   -1.407081
    107          1           0        6.877122   -3.576292   -0.640719
    108          1           0        5.968996   -1.445294   -3.834504
    109          1           0        7.429186   -1.850254   -2.998658
    110          1           0        7.357508   -0.029294   -1.619123
    111          1           0        5.693869   -0.104060   -1.256803
    112          1           0        5.380197    0.950948   -3.550871
    113          1           0        7.114781    0.661411   -3.813419
    114          1           0        6.264947    2.267484   -1.431407
    115          1           0        6.664483    4.219461   -3.438975
    116          1           0        5.258024    3.893283   -2.411479
    117          1           0        5.409557    3.114972   -3.985672
    118          1           0        8.659728    3.230713   -3.081359
    119          1           0        8.772725    1.498899   -2.576620
    120          1           0        7.994398    3.445708   -0.463642
    121          1           0        9.589938    3.677856   -1.166536
    122          1           0        9.096262    0.777818   -0.482884
    123          1           0        8.851285    1.954404    0.764504
    124          1           0       11.270420    2.559751    0.599997
    125          1           0       12.678180    1.789958   -1.257064
    126          1           0       11.097802    2.059012   -2.105281
    127          1           0       11.529170    0.471139   -1.519018
    128          1           0       11.782007   -0.252056    0.314662
    129          1           0       10.285197   -0.139221    1.187983
    130          1           0       11.658074    1.729142    2.662242
    131          1           0       13.000786    0.889633    1.925081
    132          1           0       12.850130   -0.217152    3.697067
    133          1           0       11.639113   -1.212157    2.775143
    134          1           0        9.755360    0.332314    3.889752
    135          1           0       12.059395    1.318804    5.469325
    136          1           0       10.456642    1.311166    6.180514
    137          1           0       10.672179    2.184511    4.676480
    138          1           0       10.859619   -0.918749    6.216728
    139          1           0       10.999222   -2.022988    4.808432
    140          1           0        9.403517   -1.236624    5.233818
 ---------------------------------------------------------------------

 SCF Done:  E(RPBE1PBE) =  -3005.37243241     A.U. after   16 cycles

 Excitation energies and oscillator strengths:

 Excited State   1:      Singlet-A      1.8471 eV  671.22 nm  f=0.3599  <S**2>=0.000
     245 -> 248       -0.15251
     246 -> 247        0.69338
     246 <- 247       -0.10775
 This state for optimization and/or second-order correction.
 Total Energy, E(TD-HF/TD-DFT) =  -3005.30455141
 Copying the excited state density for this state as the 1-particle RhoCI density.

 Excited State   2:      Singlet-A      2.2119 eV  560.54 nm  f=0.1399  <S**2>=0.000
     245 -> 247        0.65758
     246 -> 248        0.22406
     246 -> 249        0.11081

 Excited State   3:      Singlet-A      2.9198 eV  424.64 nm  f=0.0029  <S**2>=0.000
     242 -> 247        0.45054
     242 -> 250        0.11279
     243 -> 247        0.51274

 Excited State   4:      Singlet-A      2.9609 eV  418.73 nm  f=0.0016  <S**2>=0.000
     242 -> 247        0.50394
     243 -> 247       -0.47100

 Excited State   5:      Singlet-A      2.9930 eV  414.25 nm  f=0.0008  <S**2>=0.000
     241 -> 247        0.64886
     241 -> 248       -0.18832
     241 -> 249        0.14963

 The electronic state is 1-A.
 Alpha  occ. eigenvalues --  -46.91365 -19.27133 -19.26557 -19.21259 -19.19457
 Alpha  occ. eigenvalues --  -19.19106 -19.18634 -14.41650 -14.41464 -14.39926
 Alpha  occ. eigenvalues --  -14.37907 -10.37468 -10.36145 -10.32832 -10.31479
 Alpha  occ. eigenvalues --  -10.30354 -10.29010 -10.28957 -10.28829 -10.28652
 Alpha  occ. eigenvalues --  -10.28218 -10.27966 -10.27787 -10.27335 -10.26381
 Alpha  occ. eigenvalues --  -10.25978 -10.25910 -10.25732 -10.25699 -10.25695
 Alpha  occ. eigenvalues --  -10.25666 -10.25471 -10.25412 -10.25276 -10.25158
 Alpha  occ. eigenvalues --  -10.24764 -10.24754 -10.24395 -10.24080 -10.24024
 Alpha  occ. eigenvalues --  -10.23897 -10.23895 -10.23838 -10.23704 -10.23606
 Alpha  occ. eigenvalues --  -10.23549 -10.23508 -10.23400 -10.23384 -10.23301
 Alpha  occ. eigenvalues --  -10.23189 -10.23129 -10.23100 -10.22777 -10.22762
 Alpha  occ. eigenvalues --  -10.22694 -10.22477 -10.22416 -10.22293 -10.22237
 Alpha  occ. eigenvalues --  -10.22221 -10.22143 -10.22036 -10.21903 -10.21419
 Alpha  occ. eigenvalues --  -10.21293  -3.13782  -1.86600  -1.86182  -1.86013
 Alpha  occ. eigenvalues --   -1.12257  -1.11873  -1.03668  -1.02869  -1.02144
 Alpha  occ. eigenvalues --   -1.02092  -1.00127  -0.98266  -0.97487  -0.96791
 Alpha  occ. eigenvalues --   -0.86276  -0.85531  -0.84385  -0.83622  -0.83346
 Alpha  occ. eigenvalues --   -0.83226  -0.82658  -0.82056  -0.81575  -0.81497
 Alpha  occ. eigenvalues --   -0.81009  -0.79910  -0.78799  -0.78193  -0.77783
 Alpha  occ. eigenvalues --   -0.77275  -0.76214  -0.75682  -0.75582  -0.74683
 Alpha  occ. eigenvalues --   -0.74529  -0.72801  -0.72037  -0.71747  -0.70714
 Alpha  occ. eigenvalues --   -0.70482  -0.69536  -0.69506  -0.69239  -0.68468
 Alpha  occ. eigenvalues --   -0.67546  -0.67143  -0.65911  -0.64734  -0.63312
 Alpha  occ. eigenvalues --   -0.63089  -0.62750  -0.62397  -0.61177  -0.59885
 Alpha  occ. eigenvalues --   -0.59862  -0.59765  -0.59298  -0.58917  -0.58759
 Alpha  occ. eigenvalues --   -0.58396  -0.57590  -0.57279  -0.56611  -0.55046
 Alpha  occ. eigenvalues --   -0.54786  -0.53906  -0.53715  -0.53105  -0.52554
 Alpha  occ. eigenvalues --   -0.51224  -0.50994  -0.50888  -0.50609  -0.50195
 Alpha  occ. eigenvalues --   -0.50021  -0.49551  -0.49441  -0.49179  -0.48729
 Alpha  occ. eigenvalues --   -0.48385  -0.48109  -0.47786  -0.47526  -0.47512
 Alpha  occ. eigenvalues --   -0.47271  -0.47179  -0.46964  -0.46857  -0.46554
 Alpha  occ. eigenvalues --   -0.46191  -0.45906  -0.45809  -0.45574  -0.45223
 Alpha  occ. eigenvalues --   -0.45120  -0.44900  -0.44798  -0.44536  -0.44402
 Alpha  occ. eigenvalues --   -0.44037  -0.43989  -0.43590  -0.43496  -0.43250
 Alpha  occ. eigenvalues --   -0.43148  -0.42920  -0.42874  -0.42653  -0.42419
 Alpha  occ. eigenvalues --   -0.42072  -0.42066  -0.41709  -0.41609  -0.41562
 Alpha  occ. eigenvalues --   -0.41234  -0.40823  -0.40704  -0.40681  -0.40560
 Alpha  occ. eigenvalues --   -0.40372  -0.40203  -0.40043  -0.39866  -0.39629
 Alpha  occ. eigenvalues --   -0.39273  -0.39198  -0.39139  -0.38883  -0.38652
 Alpha  occ. eigenvalues --   -0.38562  -0.38258  -0.38009  -0.37761  -0.37735
 Alpha  occ. eigenvalues --   -0.37451  -0.37252  -0.37175  -0.36987  -0.36827
 Alpha  occ. eigenvalues --   -0.36547  -0.36500  -0.36254  -0.36220  -0.36023
 Alpha  occ. eigenvalues --   -0.35837  -0.35693  -0.35486  -0.35455  -0.35076
 Alpha  occ. eigenvalues --   -0.35050  -0.34705  -0.34645  -0.34404  -0.33958
 Alpha  occ. eigenvalues --   -0.33874  -0.33388  -0.33221  -0.33076  -0.32821
 Alpha  occ. eigenvalues --   -0.32678  -0.32239  -0.31894  -0.31777  -0.31351
 Alpha  occ. eigenvalues --   -0.31053  -0.30919  -0.30669  -0.29618  -0.29548
 Alpha  occ. eigenvalues --   -0.29015  -0.28907  -0.28133  -0.27105  -0.26408
 Alpha  occ. eigenvalues --   -0.25827  -0.25388  -0.25132  -0.24457  -0.21002
 Alpha  occ. eigenvalues --   -0.19025
 Alpha virt. eigenvalues --   -0.11406  -0.05574  -0.03822  -0.02235  -0.00865
 Alpha virt. eigenvalues --   -0.00007   0.00049   0.00797   0.01106   0.03343
 Alpha virt. eigenvalues --    0.03919   0.04229   0.05147   0.05544   0.05639

 Mulliken charges:
               1
     1  Mg   1.019276
     2  C    0.044535
     3  C   -0.083685
     4  C   -0.055791
     5  C   -0.105868
     6  N   -0.348736
     7  C    0.003853
     8  C   -0.142889
     9  C   -0.082878
    10  C    0.073829
    11  C    0.057267
    12  C   -0.006109
    13  C    0.014725
    14  C    0.217149
    15  O   -0.271773
    16  O   -0.358913
    17  N   -0.560411
    18  C    0.177937
    19  C   -0.164061
    20  C   -0.055176
    21  C    0.188233
    22  C    0.040309
    23  C    0.044984
    24  O   -0.281610
    25  C   -0.022637
    26  N   -0.465169
    27  C    0.086396
    28  C   -0.141700
    29  C   -0.037972
    30  C    0.080344
    31  C   -0.015765
    32  C   -0.042861
    33  C   -0.080191
    34  N   -0.403646
    35  C    0.157862
    36  C   -0.216269
    37  C   -0.065575
    38  C    0.118522
    39  C    0.070149
    40  C    0.200290
    41  O   -0.242525
    42  C   -0.103699
    43  C    0.252640
    44  O   -0.272125
    45  O   -0.334950
    46  C    0.098668
    47  C    0.253680
    48  C   -0.170203
    49  C   -0.252097
    50  C    0.031379
    51  C    0.073264
    52  C   -0.060810
    53  C   -0.048511
    54  C   -0.188950
    55  C    0.018009
    56  C   -0.014285
    57  C   -0.038098
    58  C   -0.052553
    59  C   -0.204816
    60  C   -0.036996
    61  C    0.022646
    62  C   -0.062766
    63  C    0.002671
    64  C   -0.267283
    65  C   -0.031754
    66  C    0.007866
    67  H   -0.003755
    68  H    0.032416
    69  H    0.010037
    70  H    0.057872
    71  H    0.027439
    72  H    0.053861
    73  H    0.026142
    74  H    0.040524
    75  H    0.041175
    76  H    0.076696
    77  H    0.052494
    78  H    0.071099
    79  H    0.027583
    80  H    0.056050
    81  H    0.061625
    82  H    0.063912
    83  H    0.066747
    84  H    0.059479
    85  H    0.058366
    86  H    0.045548
    87  H    0.051307
    88  H    0.050250
    89  H    0.048317
    90  H    0.041795
    91  H    0.035399
    92  H    0.053871
    93  H    0.046777
    94  H    0.045934
    95  H    0.056637
    96  H    0.047762
    97  H    0.058724
    98  H    0.082906
    99  H    0.068315
   100  H    0.044557
   101  H    0.070235
   102  H    0.049951
   103  H    0.071288
   104  H    0.029946
   105  H    0.041539
   106  H    0.032418
   107  H    0.054658
   108  H    0.050291
   109  H    0.015710
   110  H    0.015039
   111  H    0.036735
   112  H    0.025046
   113  H    0.034018
   114  H    0.031269
   115  H    0.026744
   116  H    0.029700
   117  H    0.032527
   118  H    0.032422
   119  H    0.041272
   120  H    0.031689
   121  H    0.026873
   122  H    0.039401
   123  H    0.021714
   124  H    0.032042
   125  H    0.043770
   126  H    0.038787
   127  H    0.023159
   128  H    0.021933
   129  H    0.020443
   130  H    0.023862
   131  H    0.021393
   132  H    0.030075
   133  H    0.033074
   134  H    0.034017
   135  H    0.035513
   136  H    0.039571
   137  H    0.040410
   138  H    0.031190
   139  H    0.034596
   140  H    0.033446
 Sum of Mulliken charges =  -0.00000

 Dipole moment (field-independent basis, Debye):
    X=              5.6374    Y=              3.6429    Z=             -0.6663  Tot=              6.7450
 Quadrupole moment (field-independent basis, Debye-Ang):
   XX=           -372.8908   YY=           -438.5440   ZZ=           -403.7810
   XY=            -31.1346   XZ=             -6.1324   YZ=              5.7856

 Normal termination of Gaussian 16 at Wed May  4 07:20:44 2022.
