 Gaussian 16, Revision A.03,
 Gaussian 16:  ES64L-G16RevA.03 25-Dec-2016

 --------------------------------
 #p wB97XD/Def2SVP td=(nstates=5)
 --------------------------------

 -----------------------------------------------------
 step_1501_chromophore_15 TDDFT with wB97XD functional
 -----------------------------------------------------
 Symbolic Z-matrix:
 Charge =  0 Multiplicity = 1

                         Standard orientation:
 ---------------------------------------------------------------------
 Center     Atomic      Atomic             Coordinates (Angstroms)
 Number     Number       Type             X           Y           Z
 ---------------------------------------------------------------------
      1         12           0       -4.670216    0.910973   -0.153945
      2          6           0       -3.993093   -2.576938    0.447275
      3          6           0       -1.271875    1.270099   -0.316343
      4          6           0       -5.234533    4.016723   -0.030365
      5          6           0       -8.055306    0.093196    0.660177
      6          7           0       -2.831009   -0.440131    0.137508
      7          6           0       -2.832635   -1.834036    0.197563
      8          6           0       -1.420281   -2.447475   -0.169522
      9          6           0       -0.573548   -1.198004    0.081779
     10          6           0       -1.582319   -0.041214   -0.193590
     11          6           0        0.076230   -1.080668    1.484672
     12          6           0       -1.469287   -2.884948   -1.672302
     13          6           0       -0.214498   -3.658735   -2.227405
     14          6           0        0.978317   -3.762744   -1.282571
     15          8           0        1.004504   -4.346235   -0.206256
     16          8           0        2.052576   -3.097201   -1.810862
     17          7           0       -3.439095    2.408285   -0.269566
     18          6           0       -2.076535    2.426977   -0.378629
     19          6           0       -1.563225    3.787309   -0.357214
     20          6           0       -2.700098    4.670735   -0.326038
     21          6           0       -3.861350    3.720891   -0.095947
     22          6           0       -0.081074    4.212637   -0.508134
     23          6           0       -2.776945    6.158406   -0.412173
     24          8           0       -3.894301    6.767545   -0.386289
     25          6           0       -1.489573    6.993855   -0.504390
     26          7           0       -6.435015    1.860295    0.190461
     27          6           0       -6.372104    3.238443    0.169914
     28          6           0       -7.755562    3.841167    0.501445
     29          6           0       -8.668437    2.609454    0.842726
     30          6           0       -7.677135    1.439340    0.637434
     31          6           0       -7.725560    4.943773    1.642538
     32          6           0      -10.074065    2.498756    0.218376
     33          6           0      -11.228511    2.640893    1.231317
     34          7           0       -5.810730   -0.856653    0.314860
     35          6           0       -7.171683   -0.980721    0.471864
     36          6           0       -7.477305   -2.312465    0.595187
     37          6           0       -6.288722   -3.009771    0.583670
     38          6           0       -5.321403   -2.045905    0.458339
     39          6           0       -8.883125   -2.850696    0.760434
     40          6           0       -5.762070   -4.362521    0.679094
     41          8           0       -6.361216   -5.454061    0.795566
     42          6           0       -4.268835   -4.122405    0.779974
     43          6           0       -3.472136   -5.211663    0.119369
     44          8           0       -3.588469   -5.423438   -1.085363
     45          8           0       -2.556954   -5.761624    0.956725
     46          6           0       -1.604273   -6.644167    0.359472
     47          6           0        3.334809   -3.344283   -1.143797
     48          6           0        4.321110   -2.439545   -1.894660
     49          6           0        5.676307   -2.582294   -2.099996
     50          6           0        6.368505   -3.794541   -1.579591
     51          6           0        6.406097   -1.512497   -2.837975
     52          6           0        6.386861   -0.177296   -2.094122
     53          6           0        6.364736    0.970773   -3.084174
     54          6           0        6.706810    2.318740   -2.427401
     55          6           0        5.966474    3.449327   -3.111355
     56          6           0        8.282175    2.458549   -2.411459
     57          6           0        8.798688    2.946238   -1.004547
     58          6           0        9.376966    1.785611   -0.175328
     59          6           0       10.871646    1.675901    0.102404
     60          6           0       11.619349    1.535295   -1.303838
     61          6           0       11.199051    0.407924    0.957240
     62          6           0       11.951175    0.786925    2.199532
     63          6           0       11.830385   -0.285821    3.317868
     64          6           0       10.726579    0.079950    4.314670
     65          6           0       10.995556    1.305197    5.233307
     66          6           0       10.489598   -1.150668    5.218776
     67          1           0       -0.212030    1.505995   -0.431502
     68          1           0       -5.539520    5.064089    0.019380
     69          1           0       -9.119504   -0.095113    0.814356
     70          1           0       -1.174079   -3.293655    0.471733
     71          1           0        0.184274   -1.234789   -0.701039
     72          1           0       -0.497731   -1.624628    2.234569
     73          1           0        0.117880   -0.026909    1.760604
     74          1           0        1.145787   -1.280612    1.545986
     75          1           0       -1.595681   -2.024288   -2.329281
     76          1           0       -2.309782   -3.557049   -1.846318
     77          1           0        0.167727   -3.220675   -3.149144
     78          1           0       -0.600394   -4.616327   -2.578910
     79          1           0        0.599297    3.374548   -0.358976
     80          1           0        0.199500    5.011351    0.178338
     81          1           0        0.229476    4.431118   -1.528999
     82          1           0       -0.936864    6.673901   -1.387532
     83          1           0       -0.905404    6.799785    0.395222
     84          1           0       -1.747810    8.050418   -0.574899
     85          1           0       -8.162628    4.393028   -0.345770
     86          1           0       -8.867668    2.657782    1.913202
     87          1           0       -6.664381    4.974235    1.889454
     88          1           0       -8.305176    4.742127    2.543349
     89          1           0       -7.971261    5.909505    1.201492
     90          1           0      -10.194015    1.567954   -0.335266
     91          1           0      -10.209206    3.302219   -0.505961
     92          1           0      -11.502552    3.681583    1.062409
     93          1           0      -10.868370    2.378692    2.226396
     94          1           0      -12.059855    1.973199    1.000972
     95          1           0       -9.232014   -2.846889   -0.272312
     96          1           0       -9.520066   -2.260540    1.420201
     97          1           0       -8.911716   -3.882137    1.112573
     98          1           0       -3.981444   -4.404175    1.792699
     99          1           0       -1.851953   -7.095432   -0.600610
    100          1           0       -1.461655   -7.486393    1.036402
    101          1           0       -0.630068   -6.155303    0.344883
    102          1           0        3.643886   -4.383259   -1.259008
    103          1           0        3.467961   -3.089370   -0.093056
    104          1           0        3.820142   -1.573791   -2.329719
    105          1           0        7.118517   -4.091455   -2.311489
    106          1           0        5.681011   -4.623494   -1.407081
    107          1           0        6.877122   -3.576292   -0.640719
    108          1           0        5.968996   -1.445294   -3.834504
    109          1           0        7.429186   -1.850254   -2.998658
    110          1           0        7.357508   -0.029294   -1.619123
    111          1           0        5.693869   -0.104060   -1.256803
    112          1           0        5.380197    0.950948   -3.550871
    113          1           0        7.114781    0.661411   -3.813419
    114          1           0        6.264947    2.267484   -1.431407
    115          1           0        6.664483    4.219461   -3.438975
    116          1           0        5.258024    3.893283   -2.411479
    117          1           0        5.409557    3.114972   -3.985672
    118          1           0        8.659728    3.230713   -3.081359
    119          1           0        8.772725    1.498899   -2.576620
    120          1           0        7.994398    3.445708   -0.463642
    121          1           0        9.589938    3.677856   -1.166536
    122          1           0        9.096262    0.777818   -0.482884
    123          1           0        8.851285    1.954404    0.764504
    124          1           0       11.270420    2.559751    0.599997
    125          1           0       12.678180    1.789958   -1.257064
    126          1           0       11.097802    2.059012   -2.105281
    127          1           0       11.529170    0.471139   -1.519018
    128          1           0       11.782007   -0.252056    0.314662
    129          1           0       10.285197   -0.139221    1.187983
    130          1           0       11.658074    1.729142    2.662242
    131          1           0       13.000786    0.889633    1.925081
    132          1           0       12.850130   -0.217152    3.697067
    133          1           0       11.639113   -1.212157    2.775143
    134          1           0        9.755360    0.332314    3.889752
    135          1           0       12.059395    1.318804    5.469325
    136          1           0       10.456642    1.311166    6.180514
    137          1           0       10.672179    2.184511    4.676480
    138          1           0       10.859619   -0.918749    6.216728
    139          1           0       10.999222   -2.022988    4.808432
    140          1           0        9.403517   -1.236624    5.233818
 ---------------------------------------------------------------------

 SCF Done:  E(RwB97XD) =  -3007.88312196     A.U. after   19 cycles

 Excitation energies and oscillator strengths:

 Excited State   1:      Singlet-A      1.6347 eV  758.45 nm  f=0.3732  <S**2>=0.000
     245 -> 248        0.16959
     246 -> 247        0.68425
     245 <- 248        0.10783
 This state for optimization and/or second-order correction.
 Total Energy, E(TD-HF/TD-DFT) =  -3007.82304805
 Copying the excited state density for this state as the 1-particle RhoCI density.

 Excited State   2:      Singlet-A      2.1481 eV  577.18 nm  f=0.1431  <S**2>=0.000
     245 -> 247        0.64629
     246 -> 248       -0.26083

 Excited State   3:      Singlet-A      3.3047 eV  375.18 nm  f=0.0030  <S**2>=0.000
     243 -> 247        0.67912

 Excited State   4:      Singlet-A      3.4564 eV  358.71 nm  f=0.0018  <S**2>=0.000
     240 -> 247        0.35385
     240 -> 248        0.23357
     240 -> 249       -0.27454
     240 -> 250       -0.12904
     241 -> 247        0.33855
     241 -> 248        0.16312
     241 -> 249       -0.19814

 Excited State   5:      Singlet-A      3.5209 eV  352.14 nm  f=0.1955  <S**2>=0.000
     241 -> 247       -0.12241
     242 -> 247        0.42703
     242 -> 249        0.19544
     242 -> 250       -0.23757
     245 -> 247       -0.15572
     246 -> 248       -0.39005

 The electronic state is 1-A.
 Alpha  occ. eigenvalues --  -46.94301 -19.31674 -19.31086 -19.25926 -19.24131
 Alpha  occ. eigenvalues --  -19.24033 -19.23365 -14.46749 -14.46555 -14.44945
 Alpha  occ. eigenvalues --  -14.42792 -10.44238 -10.42946 -10.39794 -10.38292
 Alpha  occ. eigenvalues --  -10.36837 -10.35457 -10.35191 -10.35177 -10.34802
 Alpha  occ. eigenvalues --  -10.34697 -10.34353 -10.34258 -10.33985 -10.32655
 Alpha  occ. eigenvalues --  -10.32486 -10.32067 -10.32065 -10.31987 -10.31961
 Alpha  occ. eigenvalues --  -10.31901 -10.31900 -10.31662 -10.31628 -10.31534
 Alpha  occ. eigenvalues --  -10.31110 -10.31081 -10.30774 -10.30595 -10.30535
 Alpha  occ. eigenvalues --  -10.30282 -10.30277 -10.30208 -10.30060 -10.30004
 Alpha  occ. eigenvalues --  -10.29906 -10.29836 -10.29760 -10.29717 -10.29677
 Alpha  occ. eigenvalues --  -10.29558 -10.29495 -10.29442 -10.29158 -10.29130
 Alpha  occ. eigenvalues --  -10.29087 -10.28842 -10.28794 -10.28674 -10.28651
 Alpha  occ. eigenvalues --  -10.28613 -10.28584 -10.28492 -10.28283 -10.27835
 Alpha  occ. eigenvalues --  -10.27481  -3.20560  -1.94131  -1.93714  -1.93539
 Alpha  occ. eigenvalues --   -1.19623  -1.19227  -1.11002  -1.10250  -1.09723
 Alpha  occ. eigenvalues --   -1.09528  -1.07360  -1.05715  -1.04909  -1.04205
 Alpha  occ. eigenvalues --   -0.93847  -0.93210  -0.92062  -0.91278  -0.90972
 Alpha  occ. eigenvalues --   -0.90846  -0.90247  -0.89724  -0.89292  -0.89085
 Alpha  occ. eigenvalues --   -0.88617  -0.87553  -0.86463  -0.85779  -0.85409
 Alpha  occ. eigenvalues --   -0.84921  -0.83905  -0.83433  -0.83187  -0.82358
 Alpha  occ. eigenvalues --   -0.82192  -0.80567  -0.79663  -0.79327  -0.78398
 Alpha  occ. eigenvalues --   -0.78055  -0.77239  -0.77088  -0.76952  -0.76135
 Alpha  occ. eigenvalues --   -0.75079  -0.74732  -0.73446  -0.72361  -0.70851
 Alpha  occ. eigenvalues --   -0.70680  -0.70367  -0.69954  -0.68843  -0.67531
 Alpha  occ. eigenvalues --   -0.67387  -0.67254  -0.66757  -0.66301  -0.66278
 Alpha  occ. eigenvalues --   -0.66082  -0.65274  -0.64655  -0.64263  -0.62539
 Alpha  occ. eigenvalues --   -0.62304  -0.61311  -0.61102  -0.60457  -0.59903
 Alpha  occ. eigenvalues --   -0.58673  -0.58430  -0.58300  -0.58108  -0.57615
 Alpha  occ. eigenvalues --   -0.57428  -0.56983  -0.56862  -0.56631  -0.56207
 Alpha  occ. eigenvalues --   -0.55713  -0.55571  -0.55191  -0.54935  -0.54836
 Alpha  occ. eigenvalues --   -0.54650  -0.54518  -0.54450  -0.54341  -0.53943
 Alpha  occ. eigenvalues --   -0.53585  -0.53298  -0.53138  -0.52930  -0.52503
 Alpha  occ. eigenvalues --   -0.52456  -0.52258  -0.52112  -0.51922  -0.51792
 Alpha  occ. eigenvalues --   -0.51445  -0.51357  -0.50905  -0.50862  -0.50585
 Alpha  occ. eigenvalues --   -0.50443  -0.50234  -0.50137  -0.49891  -0.49676
 Alpha  occ. eigenvalues --   -0.49396  -0.49308  -0.48937  -0.48835  -0.48793
 Alpha  occ. eigenvalues --   -0.48437  -0.48085  -0.47974  -0.47869  -0.47821
 Alpha  occ. eigenvalues --   -0.47540  -0.47405  -0.47224  -0.47033  -0.46792
 Alpha  occ. eigenvalues --   -0.46422  -0.46389  -0.46261  -0.46117  -0.45800
 Alpha  occ. eigenvalues --   -0.45722  -0.45367  -0.45149  -0.44881  -0.44840
 Alpha  occ. eigenvalues --   -0.44504  -0.44339  -0.44284  -0.44113  -0.43933
 Alpha  occ. eigenvalues --   -0.43629  -0.43513  -0.43415  -0.43355  -0.43159
 Alpha  occ. eigenvalues --   -0.42880  -0.42810  -0.42597  -0.42537  -0.42131
 Alpha  occ. eigenvalues --   -0.41966  -0.41792  -0.41634  -0.41393  -0.41026
 Alpha  occ. eigenvalues --   -0.40842  -0.40445  -0.40305  -0.40061  -0.39794
 Alpha  occ. eigenvalues --   -0.39721  -0.39328  -0.38913  -0.38660  -0.38324
 Alpha  occ. eigenvalues --   -0.38033  -0.37901  -0.37623  -0.36659  -0.36337
 Alpha  occ. eigenvalues --   -0.35844  -0.35742  -0.34987  -0.33769  -0.33253
 Alpha  occ. eigenvalues --   -0.32959  -0.32425  -0.31591  -0.31205  -0.25977
 Alpha  occ. eigenvalues --   -0.23248
 Alpha virt. eigenvalues --   -0.07312   0.00035   0.02256   0.04255   0.05776
 Alpha virt. eigenvalues --    0.06162   0.06849   0.07506   0.07810   0.09760
 Alpha virt. eigenvalues --    0.10346   0.11041   0.11853   0.12253   0.12386

 Mulliken charges:
               1
     1  Mg   1.006705
     2  C    0.035123
     3  C   -0.093863
     4  C   -0.067094
     5  C   -0.121513
     6  N   -0.319580
     7  C   -0.025035
     8  C   -0.106246
     9  C   -0.056012
    10  C    0.059627
    11  C    0.065084
    12  C    0.001880
    13  C    0.025428
    14  C    0.205069
    15  O   -0.266745
    16  O   -0.356233
    17  N   -0.529491
    18  C    0.171157
    19  C   -0.155731
    20  C   -0.050694
    21  C    0.179679
    22  C    0.052394
    23  C    0.041302
    24  O   -0.275256
    25  C   -0.008700
    26  N   -0.433064
    27  C    0.078236
    28  C   -0.120187
    29  C   -0.009446
    30  C    0.064360
    31  C   -0.002514
    32  C   -0.030169
    33  C   -0.062465
    34  N   -0.360379
    35  C    0.149977
    36  C   -0.208190
    37  C   -0.064096
    38  C    0.103547
    39  C    0.079161
    40  C    0.180451
    41  O   -0.231815
    42  C   -0.068232
    43  C    0.226772
    44  O   -0.266447
    45  O   -0.331771
    46  C    0.116468
    47  C    0.267225
    48  C   -0.181981
    49  C   -0.233911
    50  C    0.046365
    51  C    0.086981
    52  C   -0.033788
    53  C   -0.026050
    54  C   -0.160119
    55  C    0.027585
    56  C    0.002578
    57  C   -0.022045
    58  C   -0.029154
    59  C   -0.176730
    60  C   -0.020356
    61  C    0.033702
    62  C   -0.042108
    63  C    0.017713
    64  C   -0.237678
    65  C   -0.021087
    66  C    0.019496
    67  H   -0.012627
    68  H    0.025900
    69  H    0.002661
    70  H    0.042785
    71  H    0.014678
    72  H    0.049214
    73  H    0.018279
    74  H    0.036228
    75  H    0.033302
    76  H    0.065714
    77  H    0.047678
    78  H    0.066854
    79  H    0.023841
    80  H    0.050800
    81  H    0.057822
    82  H    0.058060
    83  H    0.060729
    84  H    0.059082
    85  H    0.048083
    86  H    0.028669
    87  H    0.042039
    88  H    0.045672
    89  H    0.043563
    90  H    0.033288
    91  H    0.027258
    92  H    0.047374
    93  H    0.040186
    94  H    0.040910
    95  H    0.050555
    96  H    0.042489
    97  H    0.055505
    98  H    0.075495
    99  H    0.064730
   100  H    0.040634
   101  H    0.062023
   102  H    0.043198
   103  H    0.066783
   104  H    0.025394
   105  H    0.035826
   106  H    0.026142
   107  H    0.049058
   108  H    0.042469
   109  H    0.009204
   110  H   -0.006713
   111  H    0.027892
   112  H    0.014429
   113  H    0.022800
   114  H    0.017776
   115  H    0.020617
   116  H    0.024536
   117  H    0.026820
   118  H    0.025423
   119  H    0.026668
   120  H    0.023727
   121  H    0.018598
   122  H    0.021394
   123  H    0.012173
   124  H    0.021012
   125  H    0.038977
   126  H    0.029145
   127  H    0.014348
   128  H    0.013298
   129  H    0.010334
   130  H    0.009788
   131  H    0.013675
   132  H    0.022664
   133  H    0.023671
   134  H    0.022417
   135  H    0.028579
   136  H    0.034291
   137  H    0.034311
   138  H    0.024683
   139  H    0.028854
   140  H    0.028184
 Sum of Mulliken charges =  -0.00000

 Dipole moment (field-independent basis, Debye):
    X=              5.9272    Y=              3.9367    Z=             -0.7251  Tot=              7.1523
 Quadrupole moment (field-independent basis, Debye-Ang):
   XX=           -375.2844   YY=           -436.7393   ZZ=           -403.4034
   XY=            -31.3904   XZ=             -5.9181   YZ=              5.5563

 Normal termination of Gaussian 16 at Wed May  4 07:49:34 2022.
