 Gaussian 16, Revision A.03,
 Gaussian 16:  ES64L-G16RevA.03 25-Dec-2016

 --------------------
 #p ZINDO=(nstates=5)
 --------------------

 ------------------------------
 step_1501_chromophore_15 ZINDO
 ------------------------------
 Symbolic Z-matrix:
 Charge =  0 Multiplicity = 1

                         Standard orientation:
 ---------------------------------------------------------------------
 Center     Atomic      Atomic             Coordinates (Angstroms)
 Number     Number       Type             X           Y           Z
 ---------------------------------------------------------------------
      1         12           0       -4.670216    0.910973   -0.153945
      2          6           0       -3.993093   -2.576938    0.447275
      3          6           0       -1.271875    1.270099   -0.316343
      4          6           0       -5.234533    4.016723   -0.030365
      5          6           0       -8.055306    0.093196    0.660177
      6          7           0       -2.831009   -0.440131    0.137508
      7          6           0       -2.832635   -1.834036    0.197563
      8          6           0       -1.420281   -2.447475   -0.169522
      9          6           0       -0.573548   -1.198004    0.081779
     10          6           0       -1.582319   -0.041214   -0.193590
     11          6           0        0.076230   -1.080668    1.484672
     12          6           0       -1.469287   -2.884948   -1.672302
     13          6           0       -0.214498   -3.658735   -2.227405
     14          6           0        0.978317   -3.762744   -1.282571
     15          8           0        1.004504   -4.346235   -0.206256
     16          8           0        2.052576   -3.097201   -1.810862
     17          7           0       -3.439095    2.408285   -0.269566
     18          6           0       -2.076535    2.426977   -0.378629
     19          6           0       -1.563225    3.787309   -0.357214
     20          6           0       -2.700098    4.670735   -0.326038
     21          6           0       -3.861350    3.720891   -0.095947
     22          6           0       -0.081074    4.212637   -0.508134
     23          6           0       -2.776945    6.158406   -0.412173
     24          8           0       -3.894301    6.767545   -0.386289
     25          6           0       -1.489573    6.993855   -0.504390
     26          7           0       -6.435015    1.860295    0.190461
     27          6           0       -6.372104    3.238443    0.169914
     28          6           0       -7.755562    3.841167    0.501445
     29          6           0       -8.668437    2.609454    0.842726
     30          6           0       -7.677135    1.439340    0.637434
     31          6           0       -7.725560    4.943773    1.642538
     32          6           0      -10.074065    2.498756    0.218376
     33          6           0      -11.228511    2.640893    1.231317
     34          7           0       -5.810730   -0.856653    0.314860
     35          6           0       -7.171683   -0.980721    0.471864
     36          6           0       -7.477305   -2.312465    0.595187
     37          6           0       -6.288722   -3.009771    0.583670
     38          6           0       -5.321403   -2.045905    0.458339
     39          6           0       -8.883125   -2.850696    0.760434
     40          6           0       -5.762070   -4.362521    0.679094
     41          8           0       -6.361216   -5.454061    0.795566
     42          6           0       -4.268835   -4.122405    0.779974
     43          6           0       -3.472136   -5.211663    0.119369
     44          8           0       -3.588469   -5.423438   -1.085363
     45          8           0       -2.556954   -5.761624    0.956725
     46          6           0       -1.604273   -6.644167    0.359472
     47          6           0        3.334809   -3.344283   -1.143797
     48          6           0        4.321110   -2.439545   -1.894660
     49          6           0        5.676307   -2.582294   -2.099996
     50          6           0        6.368505   -3.794541   -1.579591
     51          6           0        6.406097   -1.512497   -2.837975
     52          6           0        6.386861   -0.177296   -2.094122
     53          6           0        6.364736    0.970773   -3.084174
     54          6           0        6.706810    2.318740   -2.427401
     55          6           0        5.966474    3.449327   -3.111355
     56          6           0        8.282175    2.458549   -2.411459
     57          6           0        8.798688    2.946238   -1.004547
     58          6           0        9.376966    1.785611   -0.175328
     59          6           0       10.871646    1.675901    0.102404
     60          6           0       11.619349    1.535295   -1.303838
     61          6           0       11.199051    0.407924    0.957240
     62          6           0       11.951175    0.786925    2.199532
     63          6           0       11.830385   -0.285821    3.317868
     64          6           0       10.726579    0.079950    4.314670
     65          6           0       10.995556    1.305197    5.233307
     66          6           0       10.489598   -1.150668    5.218776
     67          1           0       -0.212030    1.505995   -0.431502
     68          1           0       -5.539520    5.064089    0.019380
     69          1           0       -9.119504   -0.095113    0.814356
     70          1           0       -1.174079   -3.293655    0.471733
     71          1           0        0.184274   -1.234789   -0.701039
     72          1           0       -0.497731   -1.624628    2.234569
     73          1           0        0.117880   -0.026909    1.760604
     74          1           0        1.145787   -1.280612    1.545986
     75          1           0       -1.595681   -2.024288   -2.329281
     76          1           0       -2.309782   -3.557049   -1.846318
     77          1           0        0.167727   -3.220675   -3.149144
     78          1           0       -0.600394   -4.616327   -2.578910
     79          1           0        0.599297    3.374548   -0.358976
     80          1           0        0.199500    5.011351    0.178338
     81          1           0        0.229476    4.431118   -1.528999
     82          1           0       -0.936864    6.673901   -1.387532
     83          1           0       -0.905404    6.799785    0.395222
     84          1           0       -1.747810    8.050418   -0.574899
     85          1           0       -8.162628    4.393028   -0.345770
     86          1           0       -8.867668    2.657782    1.913202
     87          1           0       -6.664381    4.974235    1.889454
     88          1           0       -8.305176    4.742127    2.543349
     89          1           0       -7.971261    5.909505    1.201492
     90          1           0      -10.194015    1.567954   -0.335266
     91          1           0      -10.209206    3.302219   -0.505961
     92          1           0      -11.502552    3.681583    1.062409
     93          1           0      -10.868370    2.378692    2.226396
     94          1           0      -12.059855    1.973199    1.000972
     95          1           0       -9.232014   -2.846889   -0.272312
     96          1           0       -9.520066   -2.260540    1.420201
     97          1           0       -8.911716   -3.882137    1.112573
     98          1           0       -3.981444   -4.404175    1.792699
     99          1           0       -1.851953   -7.095432   -0.600610
    100          1           0       -1.461655   -7.486393    1.036402
    101          1           0       -0.630068   -6.155303    0.344883
    102          1           0        3.643886   -4.383259   -1.259008
    103          1           0        3.467961   -3.089370   -0.093056
    104          1           0        3.820142   -1.573791   -2.329719
    105          1           0        7.118517   -4.091455   -2.311489
    106          1           0        5.681011   -4.623494   -1.407081
    107          1           0        6.877122   -3.576292   -0.640719
    108          1           0        5.968996   -1.445294   -3.834504
    109          1           0        7.429186   -1.850254   -2.998658
    110          1           0        7.357508   -0.029294   -1.619123
    111          1           0        5.693869   -0.104060   -1.256803
    112          1           0        5.380197    0.950948   -3.550871
    113          1           0        7.114781    0.661411   -3.813419
    114          1           0        6.264947    2.267484   -1.431407
    115          1           0        6.664483    4.219461   -3.438975
    116          1           0        5.258024    3.893283   -2.411479
    117          1           0        5.409557    3.114972   -3.985672
    118          1           0        8.659728    3.230713   -3.081359
    119          1           0        8.772725    1.498899   -2.576620
    120          1           0        7.994398    3.445708   -0.463642
    121          1           0        9.589938    3.677856   -1.166536
    122          1           0        9.096262    0.777818   -0.482884
    123          1           0        8.851285    1.954404    0.764504
    124          1           0       11.270420    2.559751    0.599997
    125          1           0       12.678180    1.789958   -1.257064
    126          1           0       11.097802    2.059012   -2.105281
    127          1           0       11.529170    0.471139   -1.519018
    128          1           0       11.782007   -0.252056    0.314662
    129          1           0       10.285197   -0.139221    1.187983
    130          1           0       11.658074    1.729142    2.662242
    131          1           0       13.000786    0.889633    1.925081
    132          1           0       12.850130   -0.217152    3.697067
    133          1           0       11.639113   -1.212157    2.775143
    134          1           0        9.755360    0.332314    3.889752
    135          1           0       12.059395    1.318804    5.469325
    136          1           0       10.456642    1.311166    6.180514
    137          1           0       10.672179    2.184511    4.676480
    138          1           0       10.859619   -0.918749    6.216728
    139          1           0       10.999222   -2.022988    4.808432
    140          1           0        9.403517   -1.236624    5.233818
 ---------------------------------------------------------------------

 SCF Done:  E(RZINDO/S) =  -474.409936231     A.U. after   19 cycles

 Excitation energies and oscillator strengths:

 Excited State   1:      Singlet-A      1.2280 eV 1009.62 nm  f=0.6098  <S**2>=0.000
     175 ->178        -0.17204
     176 ->177         0.66401
 This state for optimization and/or second-order correction.
 Total Energy, E(CIS/TDA) =  -474.364807188
 Copying the excited state density for this state as the 1-particle RhoCI density.

 Excited State   2:      Singlet-A      1.9196 eV  645.87 nm  f=0.0797  <S**2>=0.000
     175 ->177         0.56494
     176 ->178         0.38522
     176 ->179        -0.10788

 Excited State   3:      Singlet-A      2.9004 eV  427.48 nm  f=0.1011  <S**2>=0.000
     168 ->177         0.27436
     168 ->178        -0.25723
     168 ->179        -0.33033
     168 ->180         0.19475
     168 ->186        -0.18226
     168 ->187        -0.10706
     171 ->177        -0.11246
     175 ->177         0.13645
     176 ->178        -0.25480
     176 ->179        -0.16415

 Excited State   4:      Singlet-A      2.9223 eV  424.26 nm  f=0.3925  <S**2>=0.000
     168 ->177         0.16492
     168 ->178        -0.14733
     168 ->179        -0.19811
     168 ->180         0.11365
     168 ->186        -0.10804
     175 ->177        -0.24871
     176 ->178         0.45549
     176 ->179         0.27010

 Excited State   5:      Singlet-A      3.0094 eV  412.00 nm  f=0.0019  <S**2>=0.000
     169 ->177        -0.12184
     169 ->179        -0.11869
     169 ->180        -0.15634
     170 ->177         0.29306
     170 ->179         0.25721
     170 ->180         0.37033
     170 ->186         0.17161
     170 ->187        -0.12788
     173 ->177         0.11609

 The electronic state is 1-A.
 Alpha  occ. eigenvalues --   -1.87772  -1.81332  -1.79343  -1.73494  -1.73116
 Alpha  occ. eigenvalues --   -1.70369  -1.67226  -1.63172  -1.57969  -1.56405
 Alpha  occ. eigenvalues --   -1.55397  -1.52326  -1.49033  -1.47971  -1.46265
 Alpha  occ. eigenvalues --   -1.44903  -1.41878  -1.40442  -1.40184  -1.38150
 Alpha  occ. eigenvalues --   -1.35627  -1.34801  -1.33748  -1.32923  -1.28220
 Alpha  occ. eigenvalues --   -1.28066  -1.25365  -1.22087  -1.20860  -1.18652
 Alpha  occ. eigenvalues --   -1.17581  -1.15556  -1.15230  -1.14991  -1.14118
 Alpha  occ. eigenvalues --   -1.12151  -1.11084  -1.09798  -1.04309  -1.03949
 Alpha  occ. eigenvalues --   -1.02407  -1.00489  -0.98218  -0.97867  -0.96566
 Alpha  occ. eigenvalues --   -0.95425  -0.95095  -0.94141  -0.93136  -0.92449
 Alpha  occ. eigenvalues --   -0.91175  -0.90353  -0.89820  -0.88464  -0.86331
 Alpha  occ. eigenvalues --   -0.86325  -0.86019  -0.83584  -0.83142  -0.81079
 Alpha  occ. eigenvalues --   -0.80048  -0.78930  -0.77361  -0.76863  -0.76308
 Alpha  occ. eigenvalues --   -0.75747  -0.75305  -0.74220  -0.73552  -0.73302
 Alpha  occ. eigenvalues --   -0.72619  -0.72292  -0.71351  -0.71029  -0.70420
 Alpha  occ. eigenvalues --   -0.69872  -0.69787  -0.68968  -0.68170  -0.67778
 Alpha  occ. eigenvalues --   -0.67378  -0.66673  -0.66409  -0.66256  -0.66088
 Alpha  occ. eigenvalues --   -0.65109  -0.64938  -0.64810  -0.63860  -0.63325
 Alpha  occ. eigenvalues --   -0.62956  -0.62892  -0.62513  -0.62148  -0.61745
 Alpha  occ. eigenvalues --   -0.61586  -0.61510  -0.60760  -0.60438  -0.59506
 Alpha  occ. eigenvalues --   -0.59428  -0.59167  -0.59010  -0.58753  -0.58157
 Alpha  occ. eigenvalues --   -0.58019  -0.57626  -0.57235  -0.56904  -0.56245
 Alpha  occ. eigenvalues --   -0.56103  -0.55623  -0.55428  -0.54947  -0.54299
 Alpha  occ. eigenvalues --   -0.53979  -0.53466  -0.53206  -0.52983  -0.52759
 Alpha  occ. eigenvalues --   -0.52339  -0.52058  -0.51956  -0.51596  -0.51425
 Alpha  occ. eigenvalues --   -0.51169  -0.50479  -0.50254  -0.50242  -0.49919
 Alpha  occ. eigenvalues --   -0.49768  -0.49510  -0.49329  -0.49269  -0.49014
 Alpha  occ. eigenvalues --   -0.48796  -0.48566  -0.48335  -0.48034  -0.47786
 Alpha  occ. eigenvalues --   -0.47512  -0.47358  -0.46967  -0.46846  -0.46526
 Alpha  occ. eigenvalues --   -0.46416  -0.46344  -0.46158  -0.45654  -0.45494
 Alpha  occ. eigenvalues --   -0.44894  -0.44809  -0.44639  -0.44212  -0.44021
 Alpha  occ. eigenvalues --   -0.43796  -0.43476  -0.43231  -0.42840  -0.42492
 Alpha  occ. eigenvalues --   -0.41595  -0.41483  -0.40504  -0.39367  -0.38996
 Alpha  occ. eigenvalues --   -0.37674  -0.37027  -0.36058  -0.34866  -0.34730
 Alpha  occ. eigenvalues --   -0.33654  -0.32765  -0.32491  -0.31169  -0.26804
 Alpha  occ. eigenvalues --   -0.22112
 Alpha virt. eigenvalues --   -0.08927  -0.02199  -0.00699   0.01217   0.01647
 Alpha virt. eigenvalues --    0.02147   0.02547   0.02736   0.04460   0.04746
 Alpha virt. eigenvalues --    0.05939   0.06796   0.07023   0.07780   0.08585

 Mulliken charges:
               1
     1  Mg   0.433763
     2  C   -0.058532
     3  C   -0.072376
     4  C   -0.048127
     5  C   -0.048848
     6  N   -0.302003
     7  C    0.119436
     8  C    0.007946
     9  C    0.015909
    10  C    0.139909
    11  C   -0.047777
    12  C   -0.019439
    13  C   -0.001862
    14  C    0.474063
    15  O   -0.527700
    16  O   -0.262973
    17  N   -0.310824
    18  C    0.125377
    19  C    0.003993
    20  C   -0.041105
    21  C    0.125192
    22  C   -0.048246
    23  C    0.325593
    24  O   -0.541627
    25  C   -0.026951
    26  N   -0.261185
    27  C    0.136888
    28  C    0.001509
    29  C   -0.001403
    30  C    0.096709
    31  C   -0.061986
    32  C   -0.028116
    33  C   -0.062240
    34  N   -0.322704
    35  C    0.085777
    36  C    0.042442
    37  C   -0.061068
    38  C    0.143468
    39  C   -0.047012
    40  C    0.336062
    41  O   -0.530024
    42  C    0.049268
    43  C    0.485192
    44  O   -0.527873
    45  O   -0.250502
    46  C    0.072878
    47  C    0.104669
    48  C   -0.113693
    49  C   -0.009542
    50  C   -0.039217
    51  C   -0.010595
    52  C   -0.034429
    53  C   -0.034006
    54  C   -0.009512
    55  C   -0.055061
    56  C   -0.039283
    57  C   -0.040331
    58  C   -0.032589
    59  C   -0.016565
    60  C   -0.068704
    61  C   -0.031001
    62  C   -0.042962
    63  C   -0.036357
    64  C   -0.012618
    65  C   -0.056805
    66  C   -0.066599
    67  H    0.013835
    68  H    0.041479
    69  H    0.034513
    70  H    0.047761
    71  H    0.020797
    72  H    0.031325
    73  H    0.012630
    74  H    0.026582
    75  H    0.024768
    76  H    0.040840
    77  H    0.026791
    78  H    0.048967
    79  H    0.018197
    80  H    0.033498
    81  H    0.033721
    82  H    0.037258
    83  H    0.039554
    84  H    0.040345
    85  H    0.033611
    86  H    0.028024
    87  H    0.023771
    88  H    0.028690
    89  H    0.024613
    90  H    0.021677
    91  H    0.016940
    92  H    0.026781
    93  H    0.025928
    94  H    0.020011
    95  H    0.032983
    96  H    0.026884
    97  H    0.031977
    98  H    0.054805
    99  H    0.053703
   100  H    0.024214
   101  H    0.044116
   102  H    0.047103
   103  H    0.058867
   104  H    0.024021
   105  H    0.021624
   106  H    0.025823
   107  H    0.030444
   108  H    0.028164
   109  H    0.015399
   110  H    0.009157
   111  H    0.029114
   112  H    0.014506
   113  H    0.019567
   114  H    0.023087
   115  H    0.016561
   116  H    0.014707
   117  H    0.019275
   118  H    0.023393
   119  H    0.027743
   120  H    0.020304
   121  H    0.015374
   122  H    0.022331
   123  H    0.000513
   124  H    0.023391
   125  H    0.021543
   126  H    0.020914
   127  H    0.014702
   128  H    0.020883
   129  H    0.017932
   130  H    0.022027
   131  H    0.010012
   132  H    0.026036
   133  H    0.024054
   134  H    0.022088
   135  H    0.019271
   136  H    0.020373
   137  H    0.013735
   138  H    0.020604
   139  H    0.021941
   140  H    0.018155
 Sum of Mulliken charges =  -0.00000

 Dipole moment (field-independent basis, Debye):
    X=              7.7102    Y=              5.0337    Z=             -0.4264  Tot=              9.2177
 N-N= 4.416179850756D+03 E-N= 0.000000000000D+00  KE=-9.506760829254D+03
 Leave Link  601 at Wed May  4 08:02:44 2022, MaxMem=  6710886400 cpu:               0.8 elap:               0.1
 (Enter /sw/apps/gaussian-16.0/g16/l9999.exe)
 1\1\GINC-BP1-COMPUTE100\SP\RZINDO CIS\STO-3G\C55H74Mg1N4O6\OF15641\04-
 May-2022\0\\#p ZINDO=(nstates=5)\\step_1501_chromophore_15 ZINDO\\0,1\
 Mg,0,46.491,34.852,27.537\C,0,44.657,33.013,30.035\C,0,46.747,37.303,2
 9.91\C,0,47.51,36.692,25.18\C,0,45.461,32.263,25.295\N,0,45.714,35.196
 ,29.675\C,0,45.151,34.233,30.513\C,0,45.259,34.636,32.04\C,0,45.473,36
 .139,31.849\C,0,46.158,36.211,30.45\C,0,44.204,37.027,31.921\C,0,46.5,
 33.893,32.64\C,0,46.726,34.029,34.193\C,0,45.799,34.997,34.921\O,0,44.

 Normal termination of Gaussian 16 at Wed May  4 08:02:44 2022.
