 Gaussian 16, Revision A.03,
 Gaussian 16:  ES64L-G16RevA.03 25-Dec-2016

 ------------------------------
 #p blyp/Def2SVP td=(nstates=5)
 ------------------------------

 -------------------------------------------------
 step_401_chromophore_5 TDDFT with blyp functional
 -------------------------------------------------
 Symbolic Z-matrix:
 Charge =  0 Multiplicity = 1

                         Standard orientation:
 ---------------------------------------------------------------------
 Center     Atomic      Atomic             Coordinates (Angstroms)
 Number     Number       Type             X           Y           Z
 ---------------------------------------------------------------------
      1         12           0        5.311265    0.491146   -0.372854
      2          6           0        3.643130   -2.746867   -0.263046
      3          6           0        3.138569    1.271149   -2.919978
      4          6           0        6.283049    3.730717    0.166505
      5          6           0        6.990888   -0.467033    2.603941
      6          7           0        3.758765   -0.739151   -1.588431
      7          6           0        3.183558   -1.950215   -1.317378
      8          6           0        1.997896   -2.195936   -2.246199
      9          6           0        1.995077   -1.052519   -3.282295
     10          6           0        3.024536   -0.075279   -2.529807
     11          6           0        2.556362   -1.410030   -4.671265
     12          6           0        0.649712   -2.204637   -1.457026
     13          6           0       -0.321986   -3.246389   -1.843528
     14          6           0       -1.725251   -2.860432   -2.159605
     15          8           0       -2.154550   -2.610709   -3.264721
     16          8           0       -2.453900   -2.804509   -1.000745
     17          7           0        4.864597    2.224114   -1.296529
     18          6           0        3.938170    2.306123   -2.312602
     19          6           0        3.956659    3.700444   -2.766818
     20          6           0        4.857152    4.467285   -1.957602
     21          6           0        5.398317    3.502140   -0.985980
     22          6           0        3.292756    4.130035   -4.052038
     23          6           0        5.254871    5.913750   -2.031205
     24          8           0        4.776704    6.669669   -2.795777
     25          6           0        6.293051    6.540492   -1.247670
     26          7           0        6.494363    1.554432    1.230340
     27          6           0        6.783371    2.861950    1.187655
     28          6           0        7.681596    3.230587    2.422281
     29          6           0        8.248929    1.861222    2.930490
     30          6           0        7.194756    0.905204    2.247542
     31          6           0        8.914852    4.248114    2.069802
     32          6           0        8.420569    1.757141    4.456131
     33          6           0        9.456531    0.747282    4.905126
     34          7           0        5.457443   -1.218491    0.869176
     35          6           0        6.206226   -1.428413    1.993119
     36          6           0        5.988826   -2.811719    2.421541
     37          6           0        4.924338   -3.336093    1.581582
     38          6           0        4.688323   -2.325632    0.674842
     39          6           0        6.565254   -3.562198    3.564601
     40          6           0        4.046662   -4.486428    1.373181
     41          8           0        4.021092   -5.542295    2.014890
     42          6           0        3.092306   -4.066669    0.185578
     43          6           0        3.194005   -5.142519   -0.867806
     44          8           0        2.193864   -5.557868   -1.466098
     45          8           0        4.427030   -5.637916   -0.981551
     46          6           0        4.773474   -6.565509   -2.048318
     47          6           0       -3.843997   -2.238602   -1.150623
     48          6           0       -3.954975   -1.087575   -0.272258
     49          6           0       -4.832257   -0.500947    0.589717
     50          6           0       -6.215333   -1.095656    0.771071
     51          6           0       -4.542800    0.813037    1.296731
     52          6           0       -5.216641    1.984889    0.648723
     53          6           0       -6.265025    2.777161    1.468018
     54          6           0       -7.587423    2.821144    0.694321
     55          6           0       -7.612977    3.858642   -0.415919
     56          6           0       -8.717775    3.049186    1.638978
     57          6           0       -9.925019    2.097858    1.247221
     58          6           0       -9.880153    0.692756    1.927504
     59          6           0      -10.802610   -0.377552    1.235465
     60          6           0       -9.953620   -1.494733    0.587172
     61          6           0      -11.852279   -0.960726    2.172373
     62          6           0      -13.139398   -0.127570    2.180984
     63          6           0      -14.148701   -0.384817    0.946413
     64          6           0      -14.262747    0.726384   -0.040779
     65          6           0      -15.649877    1.432823    0.061398
     66          6           0      -13.843335    0.408341   -1.507487
     67          1           0        2.512360    1.588214   -3.756309
     68          1           0        6.711011    4.734957    0.198562
     69          1           0        7.620007   -0.758099    3.448313
     70          1           0        2.191761   -3.178074   -2.679609
     71          1           0        1.037600   -0.550624   -3.419986
     72          1           0        2.004368   -0.881463   -5.447594
     73          1           0        2.397556   -2.471304   -4.862203
     74          1           0        3.610541   -1.138263   -4.732124
     75          1           0        0.149521   -1.246035   -1.599707
     76          1           0        0.867440   -2.223727   -0.388357
     77          1           0       -0.380922   -3.884485   -0.961049
     78          1           0        0.039502   -3.809410   -2.703455
     79          1           0        2.929402    5.153479   -4.144478
     80          1           0        2.445357    3.479615   -4.268970
     81          1           0        4.030675    4.096450   -4.853837
     82          1           0        7.156447    5.911834   -1.464105
     83          1           0        6.053153    6.637503   -0.188879
     84          1           0        6.529329    7.518344   -1.667287
     85          1           0        6.931295    3.613185    3.114099
     86          1           0        9.200694    1.624736    2.454694
     87          1           0        9.923269    3.851874    2.196301
     88          1           0        8.843673    5.080330    2.768898
     89          1           0        8.804879    4.693884    1.081070
     90          1           0        7.421786    1.616895    4.867995
     91          1           0        8.744629    2.716128    4.862110
     92          1           0        8.961334    0.143201    5.664297
     93          1           0       10.279076    1.229269    5.434084
     94          1           0        9.802366    0.067067    4.127184
     95          1           0        5.876887   -4.212863    4.103819
     96          1           0        6.999231   -2.862807    4.278603
     97          1           0        7.428817   -4.093426    3.161459
     98          1           0        2.066950   -3.958107    0.538123
     99          1           0        4.388705   -6.243052   -3.016205
    100          1           0        4.519032   -7.572061   -1.716749
    101          1           0        5.848580   -6.726132   -1.974612
    102          1           0       -4.604469   -3.016070   -1.083536
    103          1           0       -3.932876   -1.755135   -2.123864
    104          1           0       -3.006656   -0.550960   -0.301567
    105          1           0       -6.330761   -1.410396    1.807625
    106          1           0       -6.314232   -1.963912    0.120716
    107          1           0       -6.856393   -0.336557    0.320675
    108          1           0       -3.465814    0.967802    1.366239
    109          1           0       -4.933993    0.525947    2.272698
    110          1           0       -5.648223    1.738373   -0.321146
    111          1           0       -4.387956    2.641658    0.386185
    112          1           0       -6.008559    3.814595    1.683151
    113          1           0       -6.398696    2.197418    2.381523
    114          1           0       -7.686587    1.787401    0.360081
    115          1           0       -6.883825    4.660192   -0.291363
    116          1           0       -8.594973    4.272750   -0.642076
    117          1           0       -7.293282    3.288694   -1.288067
    118          1           0       -9.178859    4.035675    1.581755
    119          1           0       -8.491678    2.932521    2.698985
    120          1           0       -9.945389    2.119806    0.156952
    121          1           0      -10.853108    2.529706    1.622313
    122          1           0      -10.110807    0.819884    2.985566
    123          1           0       -8.852614    0.333400    1.879338
    124          1           0      -11.313394    0.106724    0.404354
    125          1           0       -9.286259   -0.972242   -0.097875
    126          1           0      -10.692098   -2.173745    0.162730
    127          1           0       -9.416799   -2.100342    1.317500
    128          1           0      -11.588007   -1.239825    3.192428
    129          1           0      -12.069863   -1.888124    1.643760
    130          1           0      -12.794228    0.905599    2.162292
    131          1           0      -13.612920   -0.369419    3.133010
    132          1           0      -15.082215   -0.641562    1.446910
    133          1           0      -13.754398   -1.281655    0.469984
    134          1           0      -13.546721    1.489476    0.265339
    135          1           0      -16.012195    1.487267   -0.964400
    136          1           0      -15.508934    2.464253    0.384014
    137          1           0      -16.431959    0.892534    0.595058
    138          1           0      -13.695225    1.379465   -1.980012
    139          1           0      -14.707126   -0.029306   -2.007432
    140          1           0      -12.935060   -0.178949   -1.646208
 ---------------------------------------------------------------------

 SCF Done:  E(RB-LYP) =  -3007.37354590     A.U. after   22 cycles

 Excitation energies and oscillator strengths:

 Excited State   1:      Singlet-A      1.6387 eV  756.59 nm  f=0.0076  <S**2>=0.000
     244 -> 247        0.69099
     246 -> 247        0.12993
 This state for optimization and/or second-order correction.
 Total Energy, E(TD-HF/TD-DFT) =  -3007.31332367
 Copying the excited state density for this state as the 1-particle RhoCI density.

 Excited State   2:      Singlet-A      1.8159 eV  682.77 nm  f=0.2684  <S**2>=0.000
     244 -> 247       -0.12637
     245 -> 248        0.19862
     246 -> 247        0.67437
     246 <- 247       -0.14595

 Excited State   3:      Singlet-A      1.8853 eV  657.64 nm  f=0.0042  <S**2>=0.000
     243 -> 247        0.68195
     245 -> 247        0.17842

 Excited State   4:      Singlet-A      2.0223 eV  613.08 nm  f=0.0481  <S**2>=0.000
     242 -> 247        0.50609
     243 -> 247        0.13770
     245 -> 247       -0.43329
     246 -> 248        0.16150

 Excited State   5:      Singlet-A      2.0432 eV  606.82 nm  f=0.0460  <S**2>=0.000
     242 -> 247        0.49247
     243 -> 247       -0.12095
     245 -> 247        0.44629
     246 -> 248       -0.18190

 The electronic state is 1-A.
 Alpha  occ. eigenvalues --  -46.28261 -18.83100 -18.81453 -18.76548 -18.76136
 Alpha  occ. eigenvalues --  -18.75823 -18.74656 -14.03522 -14.03413 -14.01857
 Alpha  occ. eigenvalues --  -14.01346 -10.04470 -10.02977  -9.99877  -9.98845
 Alpha  occ. eigenvalues --   -9.98842  -9.97404  -9.97226  -9.97201  -9.97093
 Alpha  occ. eigenvalues --   -9.96893  -9.96618  -9.96407  -9.95766  -9.95356
 Alpha  occ. eigenvalues --   -9.94991  -9.94604  -9.94335  -9.94135  -9.94087
 Alpha  occ. eigenvalues --   -9.94033  -9.93866  -9.93781  -9.93660  -9.93509
 Alpha  occ. eigenvalues --   -9.93349  -9.93343  -9.93200  -9.92818  -9.92694
 Alpha  occ. eigenvalues --   -9.92457  -9.92399  -9.92152  -9.92086  -9.91864
 Alpha  occ. eigenvalues --   -9.91859  -9.91808  -9.91591  -9.91566  -9.91369
 Alpha  occ. eigenvalues --   -9.91367  -9.91290  -9.91228  -9.91112  -9.91057
 Alpha  occ. eigenvalues --   -9.91010  -9.91001  -9.90910  -9.90857  -9.90821
 Alpha  occ. eigenvalues --   -9.90784  -9.90676  -9.90658  -9.90631  -9.90287
 Alpha  occ. eigenvalues --   -9.90252  -2.92707  -1.73138  -1.72615  -1.72397
 Alpha  occ. eigenvalues --   -0.99040  -0.97011  -0.94026  -0.90548  -0.89731
 Alpha  occ. eigenvalues --   -0.89356  -0.86374  -0.85633  -0.85329  -0.84115
 Alpha  occ. eigenvalues --   -0.75836  -0.74168  -0.73230  -0.72802  -0.72712
 Alpha  occ. eigenvalues --   -0.72271  -0.71121  -0.70758  -0.70403  -0.69662
 Alpha  occ. eigenvalues --   -0.69444  -0.69281  -0.68403  -0.67850  -0.67467
 Alpha  occ. eigenvalues --   -0.66642  -0.66365  -0.65468  -0.65277  -0.64776
 Alpha  occ. eigenvalues --   -0.64030  -0.62402  -0.62213  -0.61963  -0.61222
 Alpha  occ. eigenvalues --   -0.60661  -0.59941  -0.59680  -0.59270  -0.59067
 Alpha  occ. eigenvalues --   -0.57670  -0.57225  -0.56743  -0.55398  -0.55346
 Alpha  occ. eigenvalues --   -0.53933  -0.53625  -0.52865  -0.52390  -0.51909
 Alpha  occ. eigenvalues --   -0.51435  -0.51146  -0.50652  -0.50306  -0.49880
 Alpha  occ. eigenvalues --   -0.49444  -0.49083  -0.48936  -0.48624  -0.46109
 Alpha  occ. eigenvalues --   -0.46029  -0.45788  -0.45356  -0.45067  -0.44738
 Alpha  occ. eigenvalues --   -0.44033  -0.43654  -0.43264  -0.43184  -0.43013
 Alpha  occ. eigenvalues --   -0.42296  -0.42015  -0.41772  -0.41244  -0.41104
 Alpha  occ. eigenvalues --   -0.40928  -0.40714  -0.40568  -0.40322  -0.40018
 Alpha  occ. eigenvalues --   -0.39706  -0.39495  -0.39382  -0.39213  -0.39111
 Alpha  occ. eigenvalues --   -0.38964  -0.38828  -0.38789  -0.38480  -0.38293
 Alpha  occ. eigenvalues --   -0.38178  -0.37857  -0.37709  -0.37511  -0.37427
 Alpha  occ. eigenvalues --   -0.37227  -0.37121  -0.36948  -0.36581  -0.36310
 Alpha  occ. eigenvalues --   -0.36304  -0.36174  -0.35937  -0.35884  -0.35699
 Alpha  occ. eigenvalues --   -0.35530  -0.35199  -0.35132  -0.34967  -0.34589
 Alpha  occ. eigenvalues --   -0.34496  -0.34414  -0.34250  -0.34035  -0.33924
 Alpha  occ. eigenvalues --   -0.33808  -0.33617  -0.33459  -0.33337  -0.33260
 Alpha  occ. eigenvalues --   -0.33154  -0.32920  -0.32781  -0.32340  -0.32138
 Alpha  occ. eigenvalues --   -0.31935  -0.31867  -0.31757  -0.31441  -0.31277
 Alpha  occ. eigenvalues --   -0.31148  -0.30989  -0.30895  -0.30833  -0.30810
 Alpha  occ. eigenvalues --   -0.30695  -0.30621  -0.30522  -0.29891  -0.29789
 Alpha  occ. eigenvalues --   -0.29743  -0.29321  -0.29230  -0.29048  -0.29032
 Alpha  occ. eigenvalues --   -0.28927  -0.28510  -0.28073  -0.27582  -0.27554
 Alpha  occ. eigenvalues --   -0.27325  -0.27169  -0.26938  -0.26853  -0.26656
 Alpha  occ. eigenvalues --   -0.26398  -0.26253  -0.25563  -0.25340  -0.25117
 Alpha  occ. eigenvalues --   -0.25063  -0.24620  -0.24390  -0.24059  -0.23647
 Alpha  occ. eigenvalues --   -0.23468  -0.22413  -0.21725  -0.21351  -0.20597
 Alpha  occ. eigenvalues --   -0.20171  -0.19313  -0.18725  -0.17830  -0.17445
 Alpha  occ. eigenvalues --   -0.16147
 Alpha virt. eigenvalues --   -0.11848  -0.07112  -0.06018  -0.04518  -0.02952
 Alpha virt. eigenvalues --   -0.02651  -0.02173  -0.01564  -0.00819   0.00089
 Alpha virt. eigenvalues --    0.01133   0.01855   0.02275   0.02297   0.02985

 Mulliken charges:
               1
     1  Mg   0.697224
     2  C   -0.086787
     3  C   -0.040442
     4  C   -0.023444
     5  C   -0.079358
     6  N   -0.185137
     7  C   -0.087854
     8  C    0.039930
     9  C   -0.009210
    10  C    0.000150
    11  C    0.134035
    12  C    0.115264
    13  C    0.213470
    14  C    0.025679
    15  O   -0.182350
    16  O   -0.286430
    17  N   -0.362733
    18  C    0.159568
    19  C   -0.147275
    20  C    0.075092
    21  C    0.088471
    22  C    0.156709
    23  C   -0.143192
    24  O   -0.120622
    25  C    0.174891
    26  N   -0.189038
    27  C   -0.016714
    28  C    0.032942
    29  C    0.017727
    30  C   -0.028509
    31  C    0.102304
    32  C    0.087732
    33  C    0.082001
    34  N   -0.244056
    35  C    0.176945
    36  C   -0.197339
    37  C    0.045305
    38  C    0.124664
    39  C    0.188955
    40  C   -0.036456
    41  O   -0.139479
    42  C    0.102131
    43  C    0.103669
    44  O   -0.201504
    45  O   -0.241633
    46  C    0.233053
    47  C    0.351152
    48  C   -0.078093
    49  C   -0.264003
    50  C    0.152458
    51  C    0.187253
    52  C    0.083172
    53  C    0.112099
    54  C   -0.094613
    55  C    0.145712
    56  C    0.122921
    57  C    0.004920
    58  C    0.128609
    59  C   -0.090303
    60  C    0.097843
    61  C    0.113208
    62  C    0.045682
    63  C    0.133528
    64  C   -0.097844
    65  C    0.110665
    66  C    0.096036
    67  H   -0.060222
    68  H   -0.096942
    69  H   -0.075223
    70  H   -0.014327
    71  H   -0.015508
    72  H   -0.007652
    73  H   -0.006008
    74  H   -0.000952
    75  H   -0.024982
    76  H   -0.025160
    77  H   -0.010242
    78  H   -0.003815
    79  H   -0.001767
    80  H   -0.011541
    81  H    0.006008
    82  H   -0.003285
    83  H    0.022753
    84  H   -0.015314
    85  H   -0.007346
    86  H   -0.014288
    87  H   -0.000014
    88  H   -0.011826
    89  H    0.002544
    90  H   -0.020515
    91  H   -0.024957
    92  H   -0.010820
    93  H   -0.007669
    94  H    0.008170
    95  H    0.019899
    96  H   -0.030164
    97  H    0.000379
    98  H    0.007357
    99  H    0.034204
   100  H    0.013257
   101  H    0.006501
   102  H   -0.004353
   103  H    0.004481
   104  H   -0.056472
   105  H    0.014364
   106  H   -0.033653
   107  H    0.009145
   108  H   -0.030921
   109  H   -0.031170
   110  H   -0.019440
   111  H   -0.040329
   112  H   -0.029595
   113  H   -0.035208
   114  H   -0.037146
   115  H   -0.012896
   116  H   -0.009714
   117  H   -0.024898
   118  H   -0.049297
   119  H   -0.049358
   120  H   -0.025842
   121  H   -0.032692
   122  H   -0.037389
   123  H   -0.046477
   124  H   -0.028113
   125  H   -0.004632
   126  H   -0.017755
   127  H   -0.013054
   128  H   -0.033696
   129  H   -0.061805
   130  H   -0.026958
   131  H   -0.041009
   132  H   -0.031698
   133  H   -0.044196
   134  H   -0.030482
   135  H   -0.039123
   136  H   -0.011411
   137  H   -0.008378
   138  H   -0.020503
   139  H   -0.015171
   140  H   -0.002437
 Sum of Mulliken charges =  -0.00000

 Dipole moment (field-independent basis, Debye):
    X=              4.2138    Y=              2.0386    Z=              1.7716  Tot=              5.0051
 Quadrupole moment (field-independent basis, Debye-Ang):
   XX=           -341.6065   YY=           -439.6835   ZZ=           -402.8209
   XY=             -3.0576   XZ=              5.9506   YZ=             26.2377

 Normal termination of Gaussian 16 at Fri Apr 29 18:50:55 2022.
