 Gaussian 16, Revision A.03,
 Gaussian 16:  ES64L-G16RevA.03 25-Dec-2016

 -----------------------------------
 #p cam-b3lyp/Def2SVP td=(nstates=5)
 -----------------------------------

 ------------------------------------------------------
 step_401_chromophore_5 TDDFT with cam-b3lyp functional
 ------------------------------------------------------
 Symbolic Z-matrix:
 Charge =  0 Multiplicity = 1

                         Standard orientation:
 ---------------------------------------------------------------------
 Center     Atomic      Atomic             Coordinates (Angstroms)
 Number     Number       Type             X           Y           Z
 ---------------------------------------------------------------------
      1         12           0        5.311265    0.491146   -0.372854
      2          6           0        3.643130   -2.746867   -0.263046
      3          6           0        3.138569    1.271149   -2.919978
      4          6           0        6.283049    3.730717    0.166505
      5          6           0        6.990888   -0.467033    2.603941
      6          7           0        3.758765   -0.739151   -1.588431
      7          6           0        3.183558   -1.950215   -1.317378
      8          6           0        1.997896   -2.195936   -2.246199
      9          6           0        1.995077   -1.052519   -3.282295
     10          6           0        3.024536   -0.075279   -2.529807
     11          6           0        2.556362   -1.410030   -4.671265
     12          6           0        0.649712   -2.204637   -1.457026
     13          6           0       -0.321986   -3.246389   -1.843528
     14          6           0       -1.725251   -2.860432   -2.159605
     15          8           0       -2.154550   -2.610709   -3.264721
     16          8           0       -2.453900   -2.804509   -1.000745
     17          7           0        4.864597    2.224114   -1.296529
     18          6           0        3.938170    2.306123   -2.312602
     19          6           0        3.956659    3.700444   -2.766818
     20          6           0        4.857152    4.467285   -1.957602
     21          6           0        5.398317    3.502140   -0.985980
     22          6           0        3.292756    4.130035   -4.052038
     23          6           0        5.254871    5.913750   -2.031205
     24          8           0        4.776704    6.669669   -2.795777
     25          6           0        6.293051    6.540492   -1.247670
     26          7           0        6.494363    1.554432    1.230340
     27          6           0        6.783371    2.861950    1.187655
     28          6           0        7.681596    3.230587    2.422281
     29          6           0        8.248929    1.861222    2.930490
     30          6           0        7.194756    0.905204    2.247542
     31          6           0        8.914852    4.248114    2.069802
     32          6           0        8.420569    1.757141    4.456131
     33          6           0        9.456531    0.747282    4.905126
     34          7           0        5.457443   -1.218491    0.869176
     35          6           0        6.206226   -1.428413    1.993119
     36          6           0        5.988826   -2.811719    2.421541
     37          6           0        4.924338   -3.336093    1.581582
     38          6           0        4.688323   -2.325632    0.674842
     39          6           0        6.565254   -3.562198    3.564601
     40          6           0        4.046662   -4.486428    1.373181
     41          8           0        4.021092   -5.542295    2.014890
     42          6           0        3.092306   -4.066669    0.185578
     43          6           0        3.194005   -5.142519   -0.867806
     44          8           0        2.193864   -5.557868   -1.466098
     45          8           0        4.427030   -5.637916   -0.981551
     46          6           0        4.773474   -6.565509   -2.048318
     47          6           0       -3.843997   -2.238602   -1.150623
     48          6           0       -3.954975   -1.087575   -0.272258
     49          6           0       -4.832257   -0.500947    0.589717
     50          6           0       -6.215333   -1.095656    0.771071
     51          6           0       -4.542800    0.813037    1.296731
     52          6           0       -5.216641    1.984889    0.648723
     53          6           0       -6.265025    2.777161    1.468018
     54          6           0       -7.587423    2.821144    0.694321
     55          6           0       -7.612977    3.858642   -0.415919
     56          6           0       -8.717775    3.049186    1.638978
     57          6           0       -9.925019    2.097858    1.247221
     58          6           0       -9.880153    0.692756    1.927504
     59          6           0      -10.802610   -0.377552    1.235465
     60          6           0       -9.953620   -1.494733    0.587172
     61          6           0      -11.852279   -0.960726    2.172373
     62          6           0      -13.139398   -0.127570    2.180984
     63          6           0      -14.148701   -0.384817    0.946413
     64          6           0      -14.262747    0.726384   -0.040779
     65          6           0      -15.649877    1.432823    0.061398
     66          6           0      -13.843335    0.408341   -1.507487
     67          1           0        2.512360    1.588214   -3.756309
     68          1           0        6.711011    4.734957    0.198562
     69          1           0        7.620007   -0.758099    3.448313
     70          1           0        2.191761   -3.178074   -2.679609
     71          1           0        1.037600   -0.550624   -3.419986
     72          1           0        2.004368   -0.881463   -5.447594
     73          1           0        2.397556   -2.471304   -4.862203
     74          1           0        3.610541   -1.138263   -4.732124
     75          1           0        0.149521   -1.246035   -1.599707
     76          1           0        0.867440   -2.223727   -0.388357
     77          1           0       -0.380922   -3.884485   -0.961049
     78          1           0        0.039502   -3.809410   -2.703455
     79          1           0        2.929402    5.153479   -4.144478
     80          1           0        2.445357    3.479615   -4.268970
     81          1           0        4.030675    4.096450   -4.853837
     82          1           0        7.156447    5.911834   -1.464105
     83          1           0        6.053153    6.637503   -0.188879
     84          1           0        6.529329    7.518344   -1.667287
     85          1           0        6.931295    3.613185    3.114099
     86          1           0        9.200694    1.624736    2.454694
     87          1           0        9.923269    3.851874    2.196301
     88          1           0        8.843673    5.080330    2.768898
     89          1           0        8.804879    4.693884    1.081070
     90          1           0        7.421786    1.616895    4.867995
     91          1           0        8.744629    2.716128    4.862110
     92          1           0        8.961334    0.143201    5.664297
     93          1           0       10.279076    1.229269    5.434084
     94          1           0        9.802366    0.067067    4.127184
     95          1           0        5.876887   -4.212863    4.103819
     96          1           0        6.999231   -2.862807    4.278603
     97          1           0        7.428817   -4.093426    3.161459
     98          1           0        2.066950   -3.958107    0.538123
     99          1           0        4.388705   -6.243052   -3.016205
    100          1           0        4.519032   -7.572061   -1.716749
    101          1           0        5.848580   -6.726132   -1.974612
    102          1           0       -4.604469   -3.016070   -1.083536
    103          1           0       -3.932876   -1.755135   -2.123864
    104          1           0       -3.006656   -0.550960   -0.301567
    105          1           0       -6.330761   -1.410396    1.807625
    106          1           0       -6.314232   -1.963912    0.120716
    107          1           0       -6.856393   -0.336557    0.320675
    108          1           0       -3.465814    0.967802    1.366239
    109          1           0       -4.933993    0.525947    2.272698
    110          1           0       -5.648223    1.738373   -0.321146
    111          1           0       -4.387956    2.641658    0.386185
    112          1           0       -6.008559    3.814595    1.683151
    113          1           0       -6.398696    2.197418    2.381523
    114          1           0       -7.686587    1.787401    0.360081
    115          1           0       -6.883825    4.660192   -0.291363
    116          1           0       -8.594973    4.272750   -0.642076
    117          1           0       -7.293282    3.288694   -1.288067
    118          1           0       -9.178859    4.035675    1.581755
    119          1           0       -8.491678    2.932521    2.698985
    120          1           0       -9.945389    2.119806    0.156952
    121          1           0      -10.853108    2.529706    1.622313
    122          1           0      -10.110807    0.819884    2.985566
    123          1           0       -8.852614    0.333400    1.879338
    124          1           0      -11.313394    0.106724    0.404354
    125          1           0       -9.286259   -0.972242   -0.097875
    126          1           0      -10.692098   -2.173745    0.162730
    127          1           0       -9.416799   -2.100342    1.317500
    128          1           0      -11.588007   -1.239825    3.192428
    129          1           0      -12.069863   -1.888124    1.643760
    130          1           0      -12.794228    0.905599    2.162292
    131          1           0      -13.612920   -0.369419    3.133010
    132          1           0      -15.082215   -0.641562    1.446910
    133          1           0      -13.754398   -1.281655    0.469984
    134          1           0      -13.546721    1.489476    0.265339
    135          1           0      -16.012195    1.487267   -0.964400
    136          1           0      -15.508934    2.464253    0.384014
    137          1           0      -16.431959    0.892534    0.595058
    138          1           0      -13.695225    1.379465   -1.980012
    139          1           0      -14.707126   -0.029306   -2.007432
    140          1           0      -12.935060   -0.178949   -1.646208
 ---------------------------------------------------------------------

 SCF Done:  E(RCAM-B3LYP) =  -3007.16854489     A.U. after   19 cycles

 Excitation energies and oscillator strengths:

 Excited State   1:      Singlet-A      1.6953 eV  731.35 nm  f=0.3492  <S**2>=0.000
     245 -> 248        0.18464
     246 -> 247        0.68421
     245 <- 248        0.11104
 This state for optimization and/or second-order correction.
 Total Energy, E(TD-HF/TD-DFT) =  -3007.10624469
 Copying the excited state density for this state as the 1-particle RhoCI density.

 Excited State   2:      Singlet-A      2.2204 eV  558.40 nm  f=0.1363  <S**2>=0.000
     245 -> 247        0.64267
     246 -> 248       -0.28397

 Excited State   3:      Singlet-A      3.2813 eV  377.85 nm  f=0.0081  <S**2>=0.000
     239 -> 247       -0.12227
     242 -> 247        0.22717
     243 -> 247        0.64350

 Excited State   4:      Singlet-A      3.3922 eV  365.50 nm  f=0.0001  <S**2>=0.000
     242 -> 247        0.63063
     243 -> 247       -0.23709
     246 -> 248       -0.12812

 Excited State   5:      Singlet-A      3.5081 eV  353.42 nm  f=0.0028  <S**2>=0.000
     241 -> 247        0.58493
     241 -> 248       -0.13724
     241 -> 249        0.18649
     241 -> 251       -0.24903

 The electronic state is 1-A.
 Alpha  occ. eigenvalues --  -46.89908 -19.25933 -19.24323 -19.19518 -19.19045
 Alpha  occ. eigenvalues --  -19.18865 -19.17990 -14.42441 -14.42311 -14.40523
 Alpha  occ. eigenvalues --  -14.39628 -10.39777 -10.38161 -10.35123 -10.33938
 Alpha  occ. eigenvalues --  -10.32712 -10.32054 -10.31880 -10.31636 -10.31526
 Alpha  occ. eigenvalues --  -10.31444 -10.31143 -10.31042 -10.29719 -10.29498
 Alpha  occ. eigenvalues --  -10.29227 -10.28944 -10.28640 -10.28593 -10.28260
 Alpha  occ. eigenvalues --  -10.28224 -10.28166 -10.28121 -10.27651 -10.27648
 Alpha  occ. eigenvalues --  -10.27548 -10.27459 -10.27250 -10.26932 -10.26588
 Alpha  occ. eigenvalues --  -10.26525 -10.26087 -10.25868 -10.25813 -10.25633
 Alpha  occ. eigenvalues --  -10.25572 -10.25510 -10.25425 -10.25371 -10.25252
 Alpha  occ. eigenvalues --  -10.25120 -10.24952 -10.24873 -10.24868 -10.24831
 Alpha  occ. eigenvalues --  -10.24696 -10.24680 -10.24634 -10.24614 -10.24577
 Alpha  occ. eigenvalues --  -10.24480 -10.24329 -10.24278 -10.24267 -10.23943
 Alpha  occ. eigenvalues --  -10.23902  -3.18249  -1.93159  -1.92706  -1.92538
 Alpha  occ. eigenvalues --   -1.17447  -1.15453  -1.12696  -1.08767  -1.07611
 Alpha  occ. eigenvalues --   -1.07167  -1.04000  -1.03316  -1.02872  -1.01803
 Alpha  occ. eigenvalues --   -0.92890  -0.91100  -0.90037  -0.89626  -0.89422
 Alpha  occ. eigenvalues --   -0.89029  -0.87851  -0.87345  -0.86948  -0.86112
 Alpha  occ. eigenvalues --   -0.86089  -0.85774  -0.84684  -0.83969  -0.83713
 Alpha  occ. eigenvalues --   -0.82688  -0.82483  -0.81377  -0.81218  -0.80673
 Alpha  occ. eigenvalues --   -0.79856  -0.78027  -0.77882  -0.77531  -0.76726
 Alpha  occ. eigenvalues --   -0.76066  -0.75274  -0.74975  -0.74570  -0.74347
 Alpha  occ. eigenvalues --   -0.72677  -0.72189  -0.71681  -0.70226  -0.69986
 Alpha  occ. eigenvalues --   -0.68554  -0.68202  -0.67463  -0.66845  -0.66035
 Alpha  occ. eigenvalues --   -0.65567  -0.65022  -0.64838  -0.64398  -0.63517
 Alpha  occ. eigenvalues --   -0.63415  -0.62899  -0.62795  -0.62555  -0.59688
 Alpha  occ. eigenvalues --   -0.59597  -0.59380  -0.58936  -0.58493  -0.58195
 Alpha  occ. eigenvalues --   -0.57429  -0.57035  -0.56497  -0.56440  -0.56050
 Alpha  occ. eigenvalues --   -0.55420  -0.55166  -0.54728  -0.54218  -0.53889
 Alpha  occ. eigenvalues --   -0.53825  -0.53562  -0.53505  -0.53028  -0.52806
 Alpha  occ. eigenvalues --   -0.52608  -0.52088  -0.51986  -0.51809  -0.51637
 Alpha  occ. eigenvalues --   -0.51535  -0.51249  -0.51199  -0.51175  -0.50696
 Alpha  occ. eigenvalues --   -0.50556  -0.50191  -0.50142  -0.49861  -0.49793
 Alpha  occ. eigenvalues --   -0.49656  -0.49416  -0.49380  -0.49034  -0.48933
 Alpha  occ. eigenvalues --   -0.48600  -0.48423  -0.48377  -0.47983  -0.47812
 Alpha  occ. eigenvalues --   -0.47681  -0.47505  -0.47099  -0.46907  -0.46593
 Alpha  occ. eigenvalues --   -0.46470  -0.46351  -0.46235  -0.45720  -0.45671
 Alpha  occ. eigenvalues --   -0.45615  -0.45473  -0.45209  -0.45140  -0.44992
 Alpha  occ. eigenvalues --   -0.44847  -0.44742  -0.44371  -0.43788  -0.43632
 Alpha  occ. eigenvalues --   -0.43473  -0.43418  -0.43325  -0.43025  -0.42891
 Alpha  occ. eigenvalues --   -0.42788  -0.42659  -0.42502  -0.42329  -0.42160
 Alpha  occ. eigenvalues --   -0.42086  -0.42058  -0.41891  -0.41767  -0.41082
 Alpha  occ. eigenvalues --   -0.41047  -0.40809  -0.40514  -0.40301  -0.40126
 Alpha  occ. eigenvalues --   -0.40071  -0.39544  -0.39017  -0.38635  -0.38467
 Alpha  occ. eigenvalues --   -0.38220  -0.38185  -0.37858  -0.37689  -0.37682
 Alpha  occ. eigenvalues --   -0.37151  -0.37084  -0.36651  -0.36536  -0.36476
 Alpha  occ. eigenvalues --   -0.35700  -0.35169  -0.34882  -0.34724  -0.34265
 Alpha  occ. eigenvalues --   -0.33799  -0.33460  -0.33415  -0.31229  -0.30592
 Alpha  occ. eigenvalues --   -0.30366  -0.30154  -0.29229  -0.28992  -0.24154
 Alpha  occ. eigenvalues --   -0.21524
 Alpha virt. eigenvalues --   -0.09068  -0.02052   0.00601   0.02131   0.02488
 Alpha virt. eigenvalues --    0.05172   0.05387   0.05859   0.06060   0.06633
 Alpha virt. eigenvalues --    0.08249   0.08426   0.08601   0.09178   0.09233

 Mulliken charges:
               1
     1  Mg   0.825391
     2  C   -0.115378
     3  C   -0.060355
     4  C   -0.046798
     5  C   -0.082077
     6  N   -0.255564
     7  C   -0.040093
     8  C   -0.016391
     9  C   -0.056183
    10  C    0.019107
    11  C    0.077309
    12  C    0.063498
    13  C    0.136085
    14  C    0.112077
    15  O   -0.225673
    16  O   -0.350459
    17  N   -0.452387
    18  C    0.173912
    19  C   -0.150281
    20  C    0.000078
    21  C    0.122517
    22  C    0.101351
    23  C   -0.057218
    24  O   -0.160155
    25  C    0.079192
    26  N   -0.256632
    27  C    0.011406
    28  C   -0.025122
    29  C   -0.033570
    30  C   -0.008563
    31  C    0.047040
    32  C    0.033344
    33  C    0.012830
    34  N   -0.333917
    35  C    0.172971
    36  C   -0.188433
    37  C   -0.036947
    38  C    0.163942
    39  C    0.133329
    40  C    0.065832
    41  O   -0.178938
    42  C    0.022859
    43  C    0.195728
    44  O   -0.242926
    45  O   -0.305700
    46  C    0.192585
    47  C    0.310394
    48  C   -0.099672
    49  C   -0.274979
    50  C    0.096072
    51  C    0.126660
    52  C    0.022599
    53  C    0.061837
    54  C   -0.150134
    55  C    0.084876
    56  C    0.065582
    57  C   -0.041826
    58  C    0.077819
    59  C   -0.142627
    60  C    0.047360
    61  C    0.056023
    62  C   -0.001597
    63  C    0.074940
    64  C   -0.159212
    65  C    0.051188
    66  C    0.040627
    67  H   -0.024604
    68  H   -0.059613
    69  H   -0.039960
    70  H    0.019217
    71  H    0.019557
    72  H    0.016989
    73  H    0.018672
    74  H    0.024850
    75  H    0.004600
    76  H    0.007268
    77  H    0.025057
    78  H    0.029110
    79  H    0.030315
    80  H    0.012518
    81  H    0.033711
    82  H    0.023291
    83  H    0.050159
    84  H    0.023394
    85  H    0.026985
    86  H    0.018711
    87  H    0.025186
    88  H    0.012879
    89  H    0.023799
    90  H    0.009493
    91  H    0.004458
    92  H    0.013475
    93  H    0.018511
    94  H    0.029874
    95  H    0.046425
    96  H   -0.006587
    97  H    0.026961
    98  H    0.047385
    99  H    0.056063
   100  H    0.036392
   101  H    0.031125
   102  H    0.024402
   103  H    0.041326
   104  H   -0.025789
   105  H    0.037046
   106  H   -0.008087
   107  H    0.024211
   108  H    0.002187
   109  H   -0.002180
   110  H    0.008561
   111  H   -0.008431
   112  H   -0.000848
   113  H   -0.006514
   114  H   -0.010568
   115  H    0.011881
   116  H    0.014671
   117  H   -0.000648
   118  H   -0.017179
   119  H   -0.018149
   120  H   -0.001132
   121  H   -0.005731
   122  H   -0.007660
   123  H   -0.022355
   124  H   -0.001391
   125  H    0.015731
   126  H    0.005170
   127  H    0.009472
   128  H   -0.003293
   129  H   -0.032230
   130  H   -0.004517
   131  H   -0.009874
   132  H   -0.001610
   133  H   -0.015791
   134  H   -0.001041
   135  H   -0.013741
   136  H    0.012984
   137  H    0.015575
   138  H    0.004065
   139  H    0.008153
   140  H    0.019104
 Sum of Mulliken charges =  -0.00000

 Dipole moment (field-independent basis, Debye):
    X=              4.3823    Y=              2.7785    Z=              1.5877  Tot=              5.4264
 Quadrupole moment (field-independent basis, Debye-Ang):
   XX=           -337.9458   YY=           -437.8302   ZZ=           -401.4188
   XY=              1.3172   XZ=              5.5410   YZ=             26.5742

 Normal termination of Gaussian 16 at Fri Apr 29 17:48:43 2022.
