 Gaussian 16, Revision A.03,
 Gaussian 16:  ES64L-G16RevA.03 25-Dec-2016

 ---------------------------------
 #p PBE1PBE/Def2SVP td=(nstates=5)
 ---------------------------------

 ----------------------------------------------------
 step_401_chromophore_5 TDDFT with PBE1PBE functional
 ----------------------------------------------------
 Symbolic Z-matrix:
 Charge =  0 Multiplicity = 1

                         Standard orientation:
 ---------------------------------------------------------------------
 Center     Atomic      Atomic             Coordinates (Angstroms)
 Number     Number       Type             X           Y           Z
 ---------------------------------------------------------------------
      1         12           0        5.311265    0.491146   -0.372854
      2          6           0        3.643130   -2.746867   -0.263046
      3          6           0        3.138569    1.271149   -2.919978
      4          6           0        6.283049    3.730717    0.166505
      5          6           0        6.990888   -0.467033    2.603941
      6          7           0        3.758765   -0.739151   -1.588431
      7          6           0        3.183558   -1.950215   -1.317378
      8          6           0        1.997896   -2.195936   -2.246199
      9          6           0        1.995077   -1.052519   -3.282295
     10          6           0        3.024536   -0.075279   -2.529807
     11          6           0        2.556362   -1.410030   -4.671265
     12          6           0        0.649712   -2.204637   -1.457026
     13          6           0       -0.321986   -3.246389   -1.843528
     14          6           0       -1.725251   -2.860432   -2.159605
     15          8           0       -2.154550   -2.610709   -3.264721
     16          8           0       -2.453900   -2.804509   -1.000745
     17          7           0        4.864597    2.224114   -1.296529
     18          6           0        3.938170    2.306123   -2.312602
     19          6           0        3.956659    3.700444   -2.766818
     20          6           0        4.857152    4.467285   -1.957602
     21          6           0        5.398317    3.502140   -0.985980
     22          6           0        3.292756    4.130035   -4.052038
     23          6           0        5.254871    5.913750   -2.031205
     24          8           0        4.776704    6.669669   -2.795777
     25          6           0        6.293051    6.540492   -1.247670
     26          7           0        6.494363    1.554432    1.230340
     27          6           0        6.783371    2.861950    1.187655
     28          6           0        7.681596    3.230587    2.422281
     29          6           0        8.248929    1.861222    2.930490
     30          6           0        7.194756    0.905204    2.247542
     31          6           0        8.914852    4.248114    2.069802
     32          6           0        8.420569    1.757141    4.456131
     33          6           0        9.456531    0.747282    4.905126
     34          7           0        5.457443   -1.218491    0.869176
     35          6           0        6.206226   -1.428413    1.993119
     36          6           0        5.988826   -2.811719    2.421541
     37          6           0        4.924338   -3.336093    1.581582
     38          6           0        4.688323   -2.325632    0.674842
     39          6           0        6.565254   -3.562198    3.564601
     40          6           0        4.046662   -4.486428    1.373181
     41          8           0        4.021092   -5.542295    2.014890
     42          6           0        3.092306   -4.066669    0.185578
     43          6           0        3.194005   -5.142519   -0.867806
     44          8           0        2.193864   -5.557868   -1.466098
     45          8           0        4.427030   -5.637916   -0.981551
     46          6           0        4.773474   -6.565509   -2.048318
     47          6           0       -3.843997   -2.238602   -1.150623
     48          6           0       -3.954975   -1.087575   -0.272258
     49          6           0       -4.832257   -0.500947    0.589717
     50          6           0       -6.215333   -1.095656    0.771071
     51          6           0       -4.542800    0.813037    1.296731
     52          6           0       -5.216641    1.984889    0.648723
     53          6           0       -6.265025    2.777161    1.468018
     54          6           0       -7.587423    2.821144    0.694321
     55          6           0       -7.612977    3.858642   -0.415919
     56          6           0       -8.717775    3.049186    1.638978
     57          6           0       -9.925019    2.097858    1.247221
     58          6           0       -9.880153    0.692756    1.927504
     59          6           0      -10.802610   -0.377552    1.235465
     60          6           0       -9.953620   -1.494733    0.587172
     61          6           0      -11.852279   -0.960726    2.172373
     62          6           0      -13.139398   -0.127570    2.180984
     63          6           0      -14.148701   -0.384817    0.946413
     64          6           0      -14.262747    0.726384   -0.040779
     65          6           0      -15.649877    1.432823    0.061398
     66          6           0      -13.843335    0.408341   -1.507487
     67          1           0        2.512360    1.588214   -3.756309
     68          1           0        6.711011    4.734957    0.198562
     69          1           0        7.620007   -0.758099    3.448313
     70          1           0        2.191761   -3.178074   -2.679609
     71          1           0        1.037600   -0.550624   -3.419986
     72          1           0        2.004368   -0.881463   -5.447594
     73          1           0        2.397556   -2.471304   -4.862203
     74          1           0        3.610541   -1.138263   -4.732124
     75          1           0        0.149521   -1.246035   -1.599707
     76          1           0        0.867440   -2.223727   -0.388357
     77          1           0       -0.380922   -3.884485   -0.961049
     78          1           0        0.039502   -3.809410   -2.703455
     79          1           0        2.929402    5.153479   -4.144478
     80          1           0        2.445357    3.479615   -4.268970
     81          1           0        4.030675    4.096450   -4.853837
     82          1           0        7.156447    5.911834   -1.464105
     83          1           0        6.053153    6.637503   -0.188879
     84          1           0        6.529329    7.518344   -1.667287
     85          1           0        6.931295    3.613185    3.114099
     86          1           0        9.200694    1.624736    2.454694
     87          1           0        9.923269    3.851874    2.196301
     88          1           0        8.843673    5.080330    2.768898
     89          1           0        8.804879    4.693884    1.081070
     90          1           0        7.421786    1.616895    4.867995
     91          1           0        8.744629    2.716128    4.862110
     92          1           0        8.961334    0.143201    5.664297
     93          1           0       10.279076    1.229269    5.434084
     94          1           0        9.802366    0.067067    4.127184
     95          1           0        5.876887   -4.212863    4.103819
     96          1           0        6.999231   -2.862807    4.278603
     97          1           0        7.428817   -4.093426    3.161459
     98          1           0        2.066950   -3.958107    0.538123
     99          1           0        4.388705   -6.243052   -3.016205
    100          1           0        4.519032   -7.572061   -1.716749
    101          1           0        5.848580   -6.726132   -1.974612
    102          1           0       -4.604469   -3.016070   -1.083536
    103          1           0       -3.932876   -1.755135   -2.123864
    104          1           0       -3.006656   -0.550960   -0.301567
    105          1           0       -6.330761   -1.410396    1.807625
    106          1           0       -6.314232   -1.963912    0.120716
    107          1           0       -6.856393   -0.336557    0.320675
    108          1           0       -3.465814    0.967802    1.366239
    109          1           0       -4.933993    0.525947    2.272698
    110          1           0       -5.648223    1.738373   -0.321146
    111          1           0       -4.387956    2.641658    0.386185
    112          1           0       -6.008559    3.814595    1.683151
    113          1           0       -6.398696    2.197418    2.381523
    114          1           0       -7.686587    1.787401    0.360081
    115          1           0       -6.883825    4.660192   -0.291363
    116          1           0       -8.594973    4.272750   -0.642076
    117          1           0       -7.293282    3.288694   -1.288067
    118          1           0       -9.178859    4.035675    1.581755
    119          1           0       -8.491678    2.932521    2.698985
    120          1           0       -9.945389    2.119806    0.156952
    121          1           0      -10.853108    2.529706    1.622313
    122          1           0      -10.110807    0.819884    2.985566
    123          1           0       -8.852614    0.333400    1.879338
    124          1           0      -11.313394    0.106724    0.404354
    125          1           0       -9.286259   -0.972242   -0.097875
    126          1           0      -10.692098   -2.173745    0.162730
    127          1           0       -9.416799   -2.100342    1.317500
    128          1           0      -11.588007   -1.239825    3.192428
    129          1           0      -12.069863   -1.888124    1.643760
    130          1           0      -12.794228    0.905599    2.162292
    131          1           0      -13.612920   -0.369419    3.133010
    132          1           0      -15.082215   -0.641562    1.446910
    133          1           0      -13.754398   -1.281655    0.469984
    134          1           0      -13.546721    1.489476    0.265339
    135          1           0      -16.012195    1.487267   -0.964400
    136          1           0      -15.508934    2.464253    0.384014
    137          1           0      -16.431959    0.892534    0.595058
    138          1           0      -13.695225    1.379465   -1.980012
    139          1           0      -14.707126   -0.029306   -2.007432
    140          1           0      -12.935060   -0.178949   -1.646208
 ---------------------------------------------------------------------

 SCF Done:  E(RPBE1PBE) =  -3005.35818656     A.U. after   15 cycles

 Excitation energies and oscillator strengths:

 Excited State   1:      Singlet-A      1.8553 eV  668.27 nm  f=0.3367  <S**2>=0.000
     245 -> 248        0.17925
     246 -> 247        0.69044
     246 <- 247       -0.10547
 This state for optimization and/or second-order correction.
 Total Energy, E(TD-HF/TD-DFT) =  -3005.29000538
 Copying the excited state density for this state as the 1-particle RhoCI density.

 Excited State   2:      Singlet-A      2.2359 eV  554.53 nm  f=0.1323  <S**2>=0.000
     245 -> 247        0.65241
     246 -> 248       -0.26224

 Excited State   3:      Singlet-A      2.8502 eV  435.00 nm  f=0.0002  <S**2>=0.000
     243 -> 247        0.67901
     243 -> 250        0.11539

 Excited State   4:      Singlet-A      2.9323 eV  422.83 nm  f=0.0061  <S**2>=0.000
     242 -> 247        0.68012

 Excited State   5:      Singlet-A      2.9876 eV  415.00 nm  f=0.0002  <S**2>=0.000
     241 -> 247        0.66882
     241 -> 249       -0.16894

 The electronic state is 1-A.
 Alpha  occ. eigenvalues --  -46.93295 -19.26596 -19.25057 -19.19830 -19.19374
 Alpha  occ. eigenvalues --  -19.19249 -19.18049 -14.41882 -14.41879 -14.40098
 Alpha  occ. eigenvalues --  -14.39380 -10.36858 -10.35218 -10.32426 -10.30926
 Alpha  occ. eigenvalues --  -10.29942 -10.29626 -10.29506 -10.29370 -10.29253
 Alpha  occ. eigenvalues --  -10.28921 -10.28843 -10.28619 -10.27623 -10.27309
 Alpha  occ. eigenvalues --  -10.27041 -10.26456 -10.26452 -10.26339 -10.26222
 Alpha  occ. eigenvalues --  -10.26039 -10.25900 -10.25787 -10.25500 -10.25319
 Alpha  occ. eigenvalues --  -10.25138 -10.24991 -10.24720 -10.24561 -10.24253
 Alpha  occ. eigenvalues --  -10.24169 -10.23550 -10.23308 -10.23165 -10.23149
 Alpha  occ. eigenvalues --  -10.23040 -10.22939 -10.22906 -10.22885 -10.22792
 Alpha  occ. eigenvalues --  -10.22663 -10.22634 -10.22622 -10.22412 -10.22398
 Alpha  occ. eigenvalues --  -10.22389 -10.22236 -10.22123 -10.22030 -10.22013
 Alpha  occ. eigenvalues --  -10.21999 -10.21874 -10.21665 -10.21660 -10.21504
 Alpha  occ. eigenvalues --  -10.21449  -3.15222  -1.88070  -1.87596  -1.87433
 Alpha  occ. eigenvalues --   -1.12268  -1.10290  -1.07351  -1.03641  -1.02476
 Alpha  occ. eigenvalues --   -1.02080  -0.98688  -0.97909  -0.97565  -0.96324
 Alpha  occ. eigenvalues --   -0.87334  -0.85199  -0.84263  -0.83741  -0.83680
 Alpha  occ. eigenvalues --   -0.83146  -0.82104  -0.81454  -0.81277  -0.80445
 Alpha  occ. eigenvalues --   -0.80263  -0.80076  -0.78900  -0.78249  -0.77926
 Alpha  occ. eigenvalues --   -0.76918  -0.76630  -0.75665  -0.75509  -0.74921
 Alpha  occ. eigenvalues --   -0.73982  -0.72366  -0.72183  -0.71848  -0.71012
 Alpha  occ. eigenvalues --   -0.70192  -0.69366  -0.69329  -0.68699  -0.68496
 Alpha  occ. eigenvalues --   -0.67076  -0.66586  -0.66092  -0.64510  -0.64373
 Alpha  occ. eigenvalues --   -0.63052  -0.62449  -0.61864  -0.61049  -0.60436
 Alpha  occ. eigenvalues --   -0.59992  -0.59591  -0.59044  -0.58979  -0.58104
 Alpha  occ. eigenvalues --   -0.57561  -0.57343  -0.57008  -0.56730  -0.54234
 Alpha  occ. eigenvalues --   -0.53986  -0.53902  -0.53459  -0.53079  -0.52825
 Alpha  occ. eigenvalues --   -0.51912  -0.51485  -0.50985  -0.50916  -0.50418
 Alpha  occ. eigenvalues --   -0.50059  -0.49744  -0.49201  -0.48840  -0.48364
 Alpha  occ. eigenvalues --   -0.48291  -0.47993  -0.47903  -0.47676  -0.47405
 Alpha  occ. eigenvalues --   -0.47079  -0.46722  -0.46507  -0.46445  -0.46180
 Alpha  occ. eigenvalues --   -0.46124  -0.45841  -0.45747  -0.45669  -0.45283
 Alpha  occ. eigenvalues --   -0.45117  -0.44776  -0.44698  -0.44390  -0.44319
 Alpha  occ. eigenvalues --   -0.44257  -0.44034  -0.43911  -0.43639  -0.43595
 Alpha  occ. eigenvalues --   -0.43250  -0.43083  -0.42957  -0.42633  -0.42439
 Alpha  occ. eigenvalues --   -0.42327  -0.42135  -0.41819  -0.41481  -0.41294
 Alpha  occ. eigenvalues --   -0.41136  -0.41027  -0.40956  -0.40529  -0.40354
 Alpha  occ. eigenvalues --   -0.40256  -0.40164  -0.39918  -0.39864  -0.39712
 Alpha  occ. eigenvalues --   -0.39591  -0.39384  -0.39045  -0.38605  -0.38353
 Alpha  occ. eigenvalues --   -0.38239  -0.38207  -0.37989  -0.37781  -0.37713
 Alpha  occ. eigenvalues --   -0.37551  -0.37494  -0.37311  -0.37202  -0.36959
 Alpha  occ. eigenvalues --   -0.36821  -0.36804  -0.36745  -0.36580  -0.35976
 Alpha  occ. eigenvalues --   -0.35824  -0.35681  -0.35418  -0.35237  -0.34867
 Alpha  occ. eigenvalues --   -0.34819  -0.34327  -0.33747  -0.33599  -0.33242
 Alpha  occ. eigenvalues --   -0.33148  -0.33010  -0.32727  -0.32695  -0.32436
 Alpha  occ. eigenvalues --   -0.32164  -0.31957  -0.31667  -0.31542  -0.31500
 Alpha  occ. eigenvalues --   -0.30554  -0.30018  -0.29824  -0.29797  -0.29345
 Alpha  occ. eigenvalues --   -0.28922  -0.28773  -0.28281  -0.26881  -0.25642
 Alpha  occ. eigenvalues --   -0.25583  -0.25029  -0.24919  -0.24322  -0.21131
 Alpha  occ. eigenvalues --   -0.19129
 Alpha virt. eigenvalues --   -0.11494  -0.05519  -0.03695  -0.01930  -0.00616
 Alpha virt. eigenvalues --    0.00481   0.00824   0.01426   0.02229   0.02796
 Alpha virt. eigenvalues --    0.03975   0.05037   0.05153   0.05169   0.05932

 Mulliken charges:
               1
     1  Mg   0.966585
     2  C   -0.116983
     3  C   -0.046003
     4  C   -0.054516
     5  C   -0.082962
     6  N   -0.353780
     7  C    0.041003
     8  C   -0.094988
     9  C   -0.125823
    10  C    0.045777
    11  C    0.023333
    12  C    0.016975
    13  C    0.056930
    14  C    0.184160
    15  O   -0.260394
    16  O   -0.377616
    17  N   -0.568593
    18  C    0.197872
    19  C   -0.173846
    20  C   -0.061895
    21  C    0.160271
    22  C    0.045495
    23  C    0.003251
    24  O   -0.198633
    25  C   -0.007464
    26  N   -0.356373
    27  C    0.060650
    28  C   -0.108628
    29  C   -0.109730
    30  C    0.041374
    31  C   -0.010616
    32  C   -0.024718
    33  C   -0.061759
    34  N   -0.463712
    35  C    0.192576
    36  C   -0.208222
    37  C   -0.078342
    38  C    0.210526
    39  C    0.077033
    40  C    0.163859
    41  O   -0.223841
    42  C   -0.097822
    43  C    0.292764
    44  O   -0.279590
    45  O   -0.339573
    46  C    0.139823
    47  C    0.260160
    48  C   -0.108979
    49  C   -0.318718
    50  C    0.027556
    51  C    0.063524
    52  C   -0.039273
    53  C    0.009853
    54  C   -0.255592
    55  C    0.030306
    56  C    0.018474
    57  C   -0.113845
    58  C    0.026842
    59  C   -0.231360
    60  C   -0.019509
    61  C   -0.000456
    62  C   -0.069186
    63  C    0.023737
    64  C   -0.252375
    65  C   -0.007847
    66  C   -0.025161
    67  H    0.006764
    68  H   -0.022960
    69  H   -0.002299
    70  H    0.057198
    71  H    0.053305
    72  H    0.044190
    73  H    0.045863
    74  H    0.052435
    75  H    0.038180
    76  H    0.040278
    77  H    0.058449
    78  H    0.060553
    79  H    0.057078
    80  H    0.038371
    81  H    0.061385
    82  H    0.051554
    83  H    0.075753
    84  H    0.052079
    85  H    0.063821
    86  H    0.056826
    87  H    0.051105
    88  H    0.040587
    89  H    0.050572
    90  H    0.041531
    91  H    0.038916
    92  H    0.041325
    93  H    0.046983
    94  H    0.055108
    95  H    0.072760
    96  H    0.022403
    97  H    0.056806
    98  H    0.084910
    99  H    0.076082
   100  H    0.057783
   101  H    0.052654
   102  H    0.050205
   103  H    0.070656
   104  H    0.005898
   105  H    0.062656
   106  H    0.021389
   107  H    0.056230
   108  H    0.033574
   109  H    0.030642
   110  H    0.041150
   111  H    0.025740
   112  H    0.031443
   113  H    0.026409
   114  H    0.035959
   115  H    0.038642
   116  H    0.041264
   117  H    0.026934
   118  H    0.016524
   119  H    0.013640
   120  H    0.031062
   121  H    0.028515
   122  H    0.024388
   123  H    0.015483
   124  H    0.044004
   125  H    0.045313
   126  H    0.033327
   127  H    0.037803
   128  H    0.027879
   129  H    0.002103
   130  H    0.032167
   131  H    0.023009
   132  H    0.030523
   133  H    0.017178
   134  H    0.037103
   135  H    0.014370
   136  H    0.040222
   137  H    0.041691
   138  H    0.032802
   139  H    0.036530
   140  H    0.045240
 Sum of Mulliken charges =  -0.00000

 Dipole moment (field-independent basis, Debye):
    X=              4.4903    Y=              2.5086    Z=              1.7463  Tot=              5.4319
 Quadrupole moment (field-independent basis, Debye-Ang):
   XX=           -333.2111   YY=           -435.2231   ZZ=           -397.4546
   XY=             -0.0338   XZ=              7.6317   YZ=             26.7304

 Normal termination of Gaussian 16 at Fri Apr 29 18:07:48 2022.
