 Gaussian 16, Revision A.03,
 Gaussian 16:  ES64L-G16RevA.03 25-Dec-2016

 --------------------------------
 #p wB97XD/Def2SVP td=(nstates=5)
 --------------------------------

 ---------------------------------------------------
 step_401_chromophore_5 TDDFT with wB97XD functional
 ---------------------------------------------------
 Symbolic Z-matrix:
 Charge =  0 Multiplicity = 1

                         Standard orientation:
 ---------------------------------------------------------------------
 Center     Atomic      Atomic             Coordinates (Angstroms)
 Number     Number       Type             X           Y           Z
 ---------------------------------------------------------------------
      1         12           0        5.311265    0.491146   -0.372854
      2          6           0        3.643130   -2.746867   -0.263046
      3          6           0        3.138569    1.271149   -2.919978
      4          6           0        6.283049    3.730717    0.166505
      5          6           0        6.990888   -0.467033    2.603941
      6          7           0        3.758765   -0.739151   -1.588431
      7          6           0        3.183558   -1.950215   -1.317378
      8          6           0        1.997896   -2.195936   -2.246199
      9          6           0        1.995077   -1.052519   -3.282295
     10          6           0        3.024536   -0.075279   -2.529807
     11          6           0        2.556362   -1.410030   -4.671265
     12          6           0        0.649712   -2.204637   -1.457026
     13          6           0       -0.321986   -3.246389   -1.843528
     14          6           0       -1.725251   -2.860432   -2.159605
     15          8           0       -2.154550   -2.610709   -3.264721
     16          8           0       -2.453900   -2.804509   -1.000745
     17          7           0        4.864597    2.224114   -1.296529
     18          6           0        3.938170    2.306123   -2.312602
     19          6           0        3.956659    3.700444   -2.766818
     20          6           0        4.857152    4.467285   -1.957602
     21          6           0        5.398317    3.502140   -0.985980
     22          6           0        3.292756    4.130035   -4.052038
     23          6           0        5.254871    5.913750   -2.031205
     24          8           0        4.776704    6.669669   -2.795777
     25          6           0        6.293051    6.540492   -1.247670
     26          7           0        6.494363    1.554432    1.230340
     27          6           0        6.783371    2.861950    1.187655
     28          6           0        7.681596    3.230587    2.422281
     29          6           0        8.248929    1.861222    2.930490
     30          6           0        7.194756    0.905204    2.247542
     31          6           0        8.914852    4.248114    2.069802
     32          6           0        8.420569    1.757141    4.456131
     33          6           0        9.456531    0.747282    4.905126
     34          7           0        5.457443   -1.218491    0.869176
     35          6           0        6.206226   -1.428413    1.993119
     36          6           0        5.988826   -2.811719    2.421541
     37          6           0        4.924338   -3.336093    1.581582
     38          6           0        4.688323   -2.325632    0.674842
     39          6           0        6.565254   -3.562198    3.564601
     40          6           0        4.046662   -4.486428    1.373181
     41          8           0        4.021092   -5.542295    2.014890
     42          6           0        3.092306   -4.066669    0.185578
     43          6           0        3.194005   -5.142519   -0.867806
     44          8           0        2.193864   -5.557868   -1.466098
     45          8           0        4.427030   -5.637916   -0.981551
     46          6           0        4.773474   -6.565509   -2.048318
     47          6           0       -3.843997   -2.238602   -1.150623
     48          6           0       -3.954975   -1.087575   -0.272258
     49          6           0       -4.832257   -0.500947    0.589717
     50          6           0       -6.215333   -1.095656    0.771071
     51          6           0       -4.542800    0.813037    1.296731
     52          6           0       -5.216641    1.984889    0.648723
     53          6           0       -6.265025    2.777161    1.468018
     54          6           0       -7.587423    2.821144    0.694321
     55          6           0       -7.612977    3.858642   -0.415919
     56          6           0       -8.717775    3.049186    1.638978
     57          6           0       -9.925019    2.097858    1.247221
     58          6           0       -9.880153    0.692756    1.927504
     59          6           0      -10.802610   -0.377552    1.235465
     60          6           0       -9.953620   -1.494733    0.587172
     61          6           0      -11.852279   -0.960726    2.172373
     62          6           0      -13.139398   -0.127570    2.180984
     63          6           0      -14.148701   -0.384817    0.946413
     64          6           0      -14.262747    0.726384   -0.040779
     65          6           0      -15.649877    1.432823    0.061398
     66          6           0      -13.843335    0.408341   -1.507487
     67          1           0        2.512360    1.588214   -3.756309
     68          1           0        6.711011    4.734957    0.198562
     69          1           0        7.620007   -0.758099    3.448313
     70          1           0        2.191761   -3.178074   -2.679609
     71          1           0        1.037600   -0.550624   -3.419986
     72          1           0        2.004368   -0.881463   -5.447594
     73          1           0        2.397556   -2.471304   -4.862203
     74          1           0        3.610541   -1.138263   -4.732124
     75          1           0        0.149521   -1.246035   -1.599707
     76          1           0        0.867440   -2.223727   -0.388357
     77          1           0       -0.380922   -3.884485   -0.961049
     78          1           0        0.039502   -3.809410   -2.703455
     79          1           0        2.929402    5.153479   -4.144478
     80          1           0        2.445357    3.479615   -4.268970
     81          1           0        4.030675    4.096450   -4.853837
     82          1           0        7.156447    5.911834   -1.464105
     83          1           0        6.053153    6.637503   -0.188879
     84          1           0        6.529329    7.518344   -1.667287
     85          1           0        6.931295    3.613185    3.114099
     86          1           0        9.200694    1.624736    2.454694
     87          1           0        9.923269    3.851874    2.196301
     88          1           0        8.843673    5.080330    2.768898
     89          1           0        8.804879    4.693884    1.081070
     90          1           0        7.421786    1.616895    4.867995
     91          1           0        8.744629    2.716128    4.862110
     92          1           0        8.961334    0.143201    5.664297
     93          1           0       10.279076    1.229269    5.434084
     94          1           0        9.802366    0.067067    4.127184
     95          1           0        5.876887   -4.212863    4.103819
     96          1           0        6.999231   -2.862807    4.278603
     97          1           0        7.428817   -4.093426    3.161459
     98          1           0        2.066950   -3.958107    0.538123
     99          1           0        4.388705   -6.243052   -3.016205
    100          1           0        4.519032   -7.572061   -1.716749
    101          1           0        5.848580   -6.726132   -1.974612
    102          1           0       -4.604469   -3.016070   -1.083536
    103          1           0       -3.932876   -1.755135   -2.123864
    104          1           0       -3.006656   -0.550960   -0.301567
    105          1           0       -6.330761   -1.410396    1.807625
    106          1           0       -6.314232   -1.963912    0.120716
    107          1           0       -6.856393   -0.336557    0.320675
    108          1           0       -3.465814    0.967802    1.366239
    109          1           0       -4.933993    0.525947    2.272698
    110          1           0       -5.648223    1.738373   -0.321146
    111          1           0       -4.387956    2.641658    0.386185
    112          1           0       -6.008559    3.814595    1.683151
    113          1           0       -6.398696    2.197418    2.381523
    114          1           0       -7.686587    1.787401    0.360081
    115          1           0       -6.883825    4.660192   -0.291363
    116          1           0       -8.594973    4.272750   -0.642076
    117          1           0       -7.293282    3.288694   -1.288067
    118          1           0       -9.178859    4.035675    1.581755
    119          1           0       -8.491678    2.932521    2.698985
    120          1           0       -9.945389    2.119806    0.156952
    121          1           0      -10.853108    2.529706    1.622313
    122          1           0      -10.110807    0.819884    2.985566
    123          1           0       -8.852614    0.333400    1.879338
    124          1           0      -11.313394    0.106724    0.404354
    125          1           0       -9.286259   -0.972242   -0.097875
    126          1           0      -10.692098   -2.173745    0.162730
    127          1           0       -9.416799   -2.100342    1.317500
    128          1           0      -11.588007   -1.239825    3.192428
    129          1           0      -12.069863   -1.888124    1.643760
    130          1           0      -12.794228    0.905599    2.162292
    131          1           0      -13.612920   -0.369419    3.133010
    132          1           0      -15.082215   -0.641562    1.446910
    133          1           0      -13.754398   -1.281655    0.469984
    134          1           0      -13.546721    1.489476    0.265339
    135          1           0      -16.012195    1.487267   -0.964400
    136          1           0      -15.508934    2.464253    0.384014
    137          1           0      -16.431959    0.892534    0.595058
    138          1           0      -13.695225    1.379465   -1.980012
    139          1           0      -14.707126   -0.029306   -2.007432
    140          1           0      -12.935060   -0.178949   -1.646208
 ---------------------------------------------------------------------

 SCF Done:  E(RwB97XD) =  -3007.87014653     A.U. after   19 cycles

 Excitation energies and oscillator strengths:

 Excited State   1:      Singlet-A      1.6385 eV  756.71 nm  f=0.3483  <S**2>=0.000
     245 -> 248        0.18995
     246 -> 247        0.68238
     245 <- 248        0.12071
 This state for optimization and/or second-order correction.
 Total Energy, E(TD-HF/TD-DFT) =  -3007.80993402
 Copying the excited state density for this state as the 1-particle RhoCI density.

 Excited State   2:      Singlet-A      2.1673 eV  572.07 nm  f=0.1320  <S**2>=0.000
     245 -> 247        0.64002
     246 -> 248       -0.28730

 Excited State   3:      Singlet-A      3.3160 eV  373.89 nm  f=0.0063  <S**2>=0.000
     239 -> 247       -0.13519
     241 -> 247       -0.26066
     242 -> 247        0.19072
     243 -> 247        0.59439

 Excited State   4:      Singlet-A      3.4161 eV  362.94 nm  f=0.0011  <S**2>=0.000
     241 -> 247        0.45358
     242 -> 247       -0.36299
     243 -> 247        0.32700
     246 -> 248        0.16187

 Excited State   5:      Singlet-A      3.5220 eV  352.03 nm  f=0.0009  <S**2>=0.000
     241 -> 247        0.38769
     241 -> 249        0.11016
     241 -> 250       -0.12036
     242 -> 247        0.42293
     242 -> 248       -0.13223
     242 -> 249        0.18672
     242 -> 250       -0.25438

 The electronic state is 1-A.
 Alpha  occ. eigenvalues --  -46.96245 -19.31122 -19.29577 -19.24464 -19.23998
 Alpha  occ. eigenvalues --  -19.23905 -19.23004 -14.47061 -14.46903 -14.45170
 Alpha  occ. eigenvalues --  -14.44204 -10.43617 -10.41966 -10.39138 -10.37877
 Alpha  occ. eigenvalues --  -10.36408 -10.36207 -10.35944 -10.35730 -10.35457
 Alpha  occ. eigenvalues --  -10.35411 -10.35268 -10.35052 -10.33685 -10.33571
 Alpha  occ. eigenvalues --  -10.33209 -10.33150 -10.32664 -10.32642 -10.32374
 Alpha  occ. eigenvalues --  -10.32368 -10.32267 -10.32185 -10.31731 -10.31721
 Alpha  occ. eigenvalues --  -10.31605 -10.31586 -10.31157 -10.30860 -10.30597
 Alpha  occ. eigenvalues --  -10.30487 -10.29920 -10.29768 -10.29730 -10.29472
 Alpha  occ. eigenvalues --  -10.29431 -10.29427 -10.29313 -10.29263 -10.29194
 Alpha  occ. eigenvalues --  -10.29093 -10.28922 -10.28795 -10.28789 -10.28756
 Alpha  occ. eigenvalues --  -10.28711 -10.28614 -10.28511 -10.28460 -10.28434
 Alpha  occ. eigenvalues --  -10.28383 -10.28241 -10.28122 -10.28078 -10.27866
 Alpha  occ. eigenvalues --  -10.27813  -3.22062  -1.95654  -1.95182  -1.95010
 Alpha  occ. eigenvalues --   -1.19613  -1.17631  -1.14926  -1.10987  -1.09787
 Alpha  occ. eigenvalues --   -1.09380  -1.05993  -1.05322  -1.04897  -1.03884
 Alpha  occ. eigenvalues --   -0.94848  -0.92872  -0.91872  -0.91407  -0.91269
 Alpha  occ. eigenvalues --   -0.90811  -0.89807  -0.89114  -0.88875  -0.88110
 Alpha  occ. eigenvalues --   -0.88013  -0.87667  -0.86562  -0.85866  -0.85596
 Alpha  occ. eigenvalues --   -0.84607  -0.84315  -0.83317  -0.83147  -0.82559
 Alpha  occ. eigenvalues --   -0.81667  -0.79963  -0.79840  -0.79460  -0.78651
 Alpha  occ. eigenvalues --   -0.77889  -0.77063  -0.76940  -0.76390  -0.76168
 Alpha  occ. eigenvalues --   -0.74626  -0.74147  -0.73669  -0.72131  -0.71910
 Alpha  occ. eigenvalues --   -0.70559  -0.70081  -0.69500  -0.68699  -0.67955
 Alpha  occ. eigenvalues --   -0.67518  -0.67019  -0.66690  -0.66422  -0.65484
 Alpha  occ. eigenvalues --   -0.65221  -0.64786  -0.64686  -0.64380  -0.61672
 Alpha  occ. eigenvalues --   -0.61487  -0.61344  -0.60949  -0.60446  -0.60190
 Alpha  occ. eigenvalues --   -0.59371  -0.58929  -0.58458  -0.58313  -0.57919
 Alpha  occ. eigenvalues --   -0.57405  -0.57128  -0.56634  -0.56164  -0.55804
 Alpha  occ. eigenvalues --   -0.55733  -0.55513  -0.55401  -0.54996  -0.54764
 Alpha  occ. eigenvalues --   -0.54484  -0.54032  -0.53855  -0.53759  -0.53529
 Alpha  occ. eigenvalues --   -0.53473  -0.53153  -0.53083  -0.53060  -0.52590
 Alpha  occ. eigenvalues --   -0.52446  -0.52094  -0.52042  -0.51826  -0.51727
 Alpha  occ. eigenvalues --   -0.51595  -0.51340  -0.51325  -0.50926  -0.50865
 Alpha  occ. eigenvalues --   -0.50510  -0.50337  -0.50245  -0.49907  -0.49697
 Alpha  occ. eigenvalues --   -0.49573  -0.49448  -0.49021  -0.48774  -0.48522
 Alpha  occ. eigenvalues --   -0.48376  -0.48273  -0.48176  -0.47636  -0.47540
 Alpha  occ. eigenvalues --   -0.47441  -0.47385  -0.47175  -0.47066  -0.46880
 Alpha  occ. eigenvalues --   -0.46749  -0.46598  -0.46250  -0.45726  -0.45514
 Alpha  occ. eigenvalues --   -0.45419  -0.45373  -0.45188  -0.45033  -0.44818
 Alpha  occ. eigenvalues --   -0.44749  -0.44612  -0.44435  -0.44298  -0.44020
 Alpha  occ. eigenvalues --   -0.43989  -0.43943  -0.43801  -0.43703  -0.42966
 Alpha  occ. eigenvalues --   -0.42915  -0.42713  -0.42406  -0.42212  -0.41963
 Alpha  occ. eigenvalues --   -0.41908  -0.41378  -0.40841  -0.40546  -0.40309
 Alpha  occ. eigenvalues --   -0.40126  -0.40059  -0.39749  -0.39678  -0.39497
 Alpha  occ. eigenvalues --   -0.39168  -0.38994  -0.38641  -0.38522  -0.38424
 Alpha  occ. eigenvalues --   -0.37531  -0.36999  -0.36718  -0.36706  -0.36249
 Alpha  occ. eigenvalues --   -0.35689  -0.35636  -0.35344  -0.33454  -0.32545
 Alpha  occ. eigenvalues --   -0.32435  -0.32254  -0.31392  -0.31017  -0.26070
 Alpha  occ. eigenvalues --   -0.23333
 Alpha virt. eigenvalues --   -0.07428  -0.00157   0.02667   0.04572   0.05283
 Alpha virt. eigenvalues --    0.07351   0.07608   0.08233   0.08831   0.09003
 Alpha virt. eigenvalues --    0.10712   0.11702   0.11919   0.11937   0.12594

 Mulliken charges:
               1
     1  Mg   0.959258
     2  C   -0.125400
     3  C   -0.068740
     4  C   -0.057171
     5  C   -0.086556
     6  N   -0.322325
     7  C    0.007562
     8  C   -0.064161
     9  C   -0.102834
    10  C    0.038320
    11  C    0.031059
    12  C    0.027997
    13  C    0.072161
    14  C    0.172946
    15  O   -0.258365
    16  O   -0.378216
    17  N   -0.538310
    18  C    0.191541
    19  C   -0.166247
    20  C   -0.050111
    21  C    0.151353
    22  C    0.056116
    23  C   -0.001787
    24  O   -0.193657
    25  C    0.011547
    26  N   -0.323787
    27  C    0.043013
    28  C   -0.082910
    29  C   -0.079920
    30  C    0.017727
    31  C    0.001819
    32  C   -0.011593
    33  C   -0.048045
    34  N   -0.424276
    35  C    0.183178
    36  C   -0.203565
    37  C   -0.077716
    38  C    0.193793
    39  C    0.088555
    40  C    0.144358
    41  O   -0.214953
    42  C   -0.053372
    43  C    0.266339
    44  O   -0.273033
    45  O   -0.337938
    46  C    0.152876
    47  C    0.277619
    48  C   -0.118951
    49  C   -0.298885
    50  C    0.049215
    51  C    0.080562
    52  C   -0.023243
    53  C    0.023690
    54  C   -0.202250
    55  C    0.036246
    56  C    0.026590
    57  C   -0.086362
    58  C    0.041749
    59  C   -0.194277
    60  C    0.001711
    61  C    0.015270
    62  C   -0.044099
    63  C    0.034504
    64  C   -0.221283
    65  C    0.003992
    66  C   -0.009850
    67  H    0.000611
    68  H   -0.040741
    69  H   -0.016316
    70  H    0.040654
    71  H    0.045521
    72  H    0.039460
    73  H    0.040927
    74  H    0.046236
    75  H    0.028083
    76  H    0.031749
    77  H    0.052845
    78  H    0.055661
    79  H    0.054893
    80  H    0.033649
    81  H    0.057254
    82  H    0.042948
    83  H    0.071639
    84  H    0.051440
    85  H    0.054649
    86  H    0.043705
    87  H    0.046663
    88  H    0.034836
    89  H    0.043561
    90  H    0.033625
    91  H    0.030306
    92  H    0.035666
    93  H    0.042711
    94  H    0.049443
    95  H    0.069619
    96  H    0.014979
    97  H    0.050757
    98  H    0.077333
    99  H    0.073474
   100  H    0.053866
   101  H    0.049247
   102  H    0.047145
   103  H    0.064975
   104  H   -0.000992
   105  H    0.058400
   106  H    0.014778
   107  H    0.038846
   108  H    0.028573
   109  H    0.020977
   110  H    0.028079
   111  H    0.019405
   112  H    0.023541
   113  H    0.014369
   114  H    0.005053
   115  H    0.033458
   116  H    0.036079
   117  H    0.021133
   118  H    0.008467
   119  H    0.005805
   120  H    0.019959
   121  H    0.018924
   122  H    0.017255
   123  H   -0.004394
   124  H    0.019519
   125  H    0.036102
   126  H    0.025742
   127  H    0.030860
   128  H    0.022364
   129  H   -0.011466
   130  H    0.014522
   131  H    0.017023
   132  H    0.022975
   133  H    0.005718
   134  H    0.022038
   135  H    0.007138
   136  H    0.035504
   137  H    0.036274
   138  H    0.026476
   139  H    0.029475
   140  H    0.040469
 Sum of Mulliken charges =  -0.00000

 Dipole moment (field-independent basis, Debye):
    X=              4.4586    Y=              2.9235    Z=              1.5207  Tot=              5.5442
 Quadrupole moment (field-independent basis, Debye-Ang):
   XX=           -332.9311   YY=           -433.8338   ZZ=           -397.4021
   XY=              2.0220   XZ=              5.9068   YZ=             26.3547

 Normal termination of Gaussian 16 at Fri Apr 29 18:37:25 2022.
