 Gaussian 16, Revision A.03,
 Gaussian 16:  ES64L-G16RevA.03 25-Dec-2016

 --------------------
 #p ZINDO=(nstates=5)
 --------------------

 ----------------------------
 step_401_chromophore_5 ZINDO
 ----------------------------
 Symbolic Z-matrix:
 Charge =  0 Multiplicity = 1

                         Standard orientation:
 ---------------------------------------------------------------------
 Center     Atomic      Atomic             Coordinates (Angstroms)
 Number     Number       Type             X           Y           Z
 ---------------------------------------------------------------------
      1         12           0        5.311265    0.491146   -0.372854
      2          6           0        3.643130   -2.746867   -0.263046
      3          6           0        3.138569    1.271149   -2.919978
      4          6           0        6.283049    3.730717    0.166505
      5          6           0        6.990888   -0.467033    2.603941
      6          7           0        3.758765   -0.739151   -1.588431
      7          6           0        3.183558   -1.950215   -1.317378
      8          6           0        1.997896   -2.195936   -2.246199
      9          6           0        1.995077   -1.052519   -3.282295
     10          6           0        3.024536   -0.075279   -2.529807
     11          6           0        2.556362   -1.410030   -4.671265
     12          6           0        0.649712   -2.204637   -1.457026
     13          6           0       -0.321986   -3.246389   -1.843528
     14          6           0       -1.725251   -2.860432   -2.159605
     15          8           0       -2.154550   -2.610709   -3.264721
     16          8           0       -2.453900   -2.804509   -1.000745
     17          7           0        4.864597    2.224114   -1.296529
     18          6           0        3.938170    2.306123   -2.312602
     19          6           0        3.956659    3.700444   -2.766818
     20          6           0        4.857152    4.467285   -1.957602
     21          6           0        5.398317    3.502140   -0.985980
     22          6           0        3.292756    4.130035   -4.052038
     23          6           0        5.254871    5.913750   -2.031205
     24          8           0        4.776704    6.669669   -2.795777
     25          6           0        6.293051    6.540492   -1.247670
     26          7           0        6.494363    1.554432    1.230340
     27          6           0        6.783371    2.861950    1.187655
     28          6           0        7.681596    3.230587    2.422281
     29          6           0        8.248929    1.861222    2.930490
     30          6           0        7.194756    0.905204    2.247542
     31          6           0        8.914852    4.248114    2.069802
     32          6           0        8.420569    1.757141    4.456131
     33          6           0        9.456531    0.747282    4.905126
     34          7           0        5.457443   -1.218491    0.869176
     35          6           0        6.206226   -1.428413    1.993119
     36          6           0        5.988826   -2.811719    2.421541
     37          6           0        4.924338   -3.336093    1.581582
     38          6           0        4.688323   -2.325632    0.674842
     39          6           0        6.565254   -3.562198    3.564601
     40          6           0        4.046662   -4.486428    1.373181
     41          8           0        4.021092   -5.542295    2.014890
     42          6           0        3.092306   -4.066669    0.185578
     43          6           0        3.194005   -5.142519   -0.867806
     44          8           0        2.193864   -5.557868   -1.466098
     45          8           0        4.427030   -5.637916   -0.981551
     46          6           0        4.773474   -6.565509   -2.048318
     47          6           0       -3.843997   -2.238602   -1.150623
     48          6           0       -3.954975   -1.087575   -0.272258
     49          6           0       -4.832257   -0.500947    0.589717
     50          6           0       -6.215333   -1.095656    0.771071
     51          6           0       -4.542800    0.813037    1.296731
     52          6           0       -5.216641    1.984889    0.648723
     53          6           0       -6.265025    2.777161    1.468018
     54          6           0       -7.587423    2.821144    0.694321
     55          6           0       -7.612977    3.858642   -0.415919
     56          6           0       -8.717775    3.049186    1.638978
     57          6           0       -9.925019    2.097858    1.247221
     58          6           0       -9.880153    0.692756    1.927504
     59          6           0      -10.802610   -0.377552    1.235465
     60          6           0       -9.953620   -1.494733    0.587172
     61          6           0      -11.852279   -0.960726    2.172373
     62          6           0      -13.139398   -0.127570    2.180984
     63          6           0      -14.148701   -0.384817    0.946413
     64          6           0      -14.262747    0.726384   -0.040779
     65          6           0      -15.649877    1.432823    0.061398
     66          6           0      -13.843335    0.408341   -1.507487
     67          1           0        2.512360    1.588214   -3.756309
     68          1           0        6.711011    4.734957    0.198562
     69          1           0        7.620007   -0.758099    3.448313
     70          1           0        2.191761   -3.178074   -2.679609
     71          1           0        1.037600   -0.550624   -3.419986
     72          1           0        2.004368   -0.881463   -5.447594
     73          1           0        2.397556   -2.471304   -4.862203
     74          1           0        3.610541   -1.138263   -4.732124
     75          1           0        0.149521   -1.246035   -1.599707
     76          1           0        0.867440   -2.223727   -0.388357
     77          1           0       -0.380922   -3.884485   -0.961049
     78          1           0        0.039502   -3.809410   -2.703455
     79          1           0        2.929402    5.153479   -4.144478
     80          1           0        2.445357    3.479615   -4.268970
     81          1           0        4.030675    4.096450   -4.853837
     82          1           0        7.156447    5.911834   -1.464105
     83          1           0        6.053153    6.637503   -0.188879
     84          1           0        6.529329    7.518344   -1.667287
     85          1           0        6.931295    3.613185    3.114099
     86          1           0        9.200694    1.624736    2.454694
     87          1           0        9.923269    3.851874    2.196301
     88          1           0        8.843673    5.080330    2.768898
     89          1           0        8.804879    4.693884    1.081070
     90          1           0        7.421786    1.616895    4.867995
     91          1           0        8.744629    2.716128    4.862110
     92          1           0        8.961334    0.143201    5.664297
     93          1           0       10.279076    1.229269    5.434084
     94          1           0        9.802366    0.067067    4.127184
     95          1           0        5.876887   -4.212863    4.103819
     96          1           0        6.999231   -2.862807    4.278603
     97          1           0        7.428817   -4.093426    3.161459
     98          1           0        2.066950   -3.958107    0.538123
     99          1           0        4.388705   -6.243052   -3.016205
    100          1           0        4.519032   -7.572061   -1.716749
    101          1           0        5.848580   -6.726132   -1.974612
    102          1           0       -4.604469   -3.016070   -1.083536
    103          1           0       -3.932876   -1.755135   -2.123864
    104          1           0       -3.006656   -0.550960   -0.301567
    105          1           0       -6.330761   -1.410396    1.807625
    106          1           0       -6.314232   -1.963912    0.120716
    107          1           0       -6.856393   -0.336557    0.320675
    108          1           0       -3.465814    0.967802    1.366239
    109          1           0       -4.933993    0.525947    2.272698
    110          1           0       -5.648223    1.738373   -0.321146
    111          1           0       -4.387956    2.641658    0.386185
    112          1           0       -6.008559    3.814595    1.683151
    113          1           0       -6.398696    2.197418    2.381523
    114          1           0       -7.686587    1.787401    0.360081
    115          1           0       -6.883825    4.660192   -0.291363
    116          1           0       -8.594973    4.272750   -0.642076
    117          1           0       -7.293282    3.288694   -1.288067
    118          1           0       -9.178859    4.035675    1.581755
    119          1           0       -8.491678    2.932521    2.698985
    120          1           0       -9.945389    2.119806    0.156952
    121          1           0      -10.853108    2.529706    1.622313
    122          1           0      -10.110807    0.819884    2.985566
    123          1           0       -8.852614    0.333400    1.879338
    124          1           0      -11.313394    0.106724    0.404354
    125          1           0       -9.286259   -0.972242   -0.097875
    126          1           0      -10.692098   -2.173745    0.162730
    127          1           0       -9.416799   -2.100342    1.317500
    128          1           0      -11.588007   -1.239825    3.192428
    129          1           0      -12.069863   -1.888124    1.643760
    130          1           0      -12.794228    0.905599    2.162292
    131          1           0      -13.612920   -0.369419    3.133010
    132          1           0      -15.082215   -0.641562    1.446910
    133          1           0      -13.754398   -1.281655    0.469984
    134          1           0      -13.546721    1.489476    0.265339
    135          1           0      -16.012195    1.487267   -0.964400
    136          1           0      -15.508934    2.464253    0.384014
    137          1           0      -16.431959    0.892534    0.595058
    138          1           0      -13.695225    1.379465   -1.980012
    139          1           0      -14.707126   -0.029306   -2.007432
    140          1           0      -12.935060   -0.178949   -1.646208
 ---------------------------------------------------------------------

 SCF Done:  E(RZINDO/S) =  -474.297780747     A.U. after   19 cycles

 Excitation energies and oscillator strengths:

 Excited State   1:      Singlet-A      1.2592 eV  984.64 nm  f=0.5691  <S**2>=0.000
     175 ->178         0.18661
     176 ->177         0.66431
 This state for optimization and/or second-order correction.
 Total Energy, E(CIS/TDA) =  -474.251506740
 Copying the excited state density for this state as the 1-particle RhoCI density.

 Excited State   2:      Singlet-A      1.9332 eV  641.36 nm  f=0.0551  <S**2>=0.000
     175 ->177         0.55365
     176 ->178        -0.41370

 Excited State   3:      Singlet-A      2.7809 eV  445.84 nm  f=0.0003  <S**2>=0.000
     170 ->177         0.30796
     170 ->178        -0.16004
     170 ->179        -0.27934
     170 ->180        -0.22092
     170 ->181         0.29597
     170 ->185         0.23330
     170 ->187         0.15001
     170 ->194         0.16984

 Excited State   4:      Singlet-A      3.0467 eV  406.95 nm  f=1.3929  <S**2>=0.000
     171 ->177         0.12098
     173 ->177        -0.11803
     175 ->177         0.38832
     176 ->178         0.52684
     176 ->179         0.11656

 Excited State   5:      Singlet-A      3.1056 eV  399.23 nm  f=0.0038  <S**2>=0.000
     169 ->177         0.27803
     169 ->179         0.41137
     169 ->180        -0.14683
     169 ->181         0.23597
     169 ->183        -0.10049
     169 ->185        -0.18774
     169 ->187         0.12881
     176 ->179         0.10067

 The electronic state is 1-A.
 Alpha  occ. eigenvalues --   -1.82712  -1.78678  -1.77702  -1.73242  -1.72782
 Alpha  occ. eigenvalues --   -1.69917  -1.67807  -1.65489  -1.63033  -1.56739
 Alpha  occ. eigenvalues --   -1.54677  -1.51823  -1.49747  -1.48134  -1.47284
 Alpha  occ. eigenvalues --   -1.45483  -1.44237  -1.38605  -1.38432  -1.37455
 Alpha  occ. eigenvalues --   -1.35639  -1.33324  -1.32411  -1.31345  -1.28598
 Alpha  occ. eigenvalues --   -1.27845  -1.26850  -1.22373  -1.21306  -1.17071
 Alpha  occ. eigenvalues --   -1.16240  -1.15737  -1.14682  -1.14594  -1.12865
 Alpha  occ. eigenvalues --   -1.11574  -1.11410  -1.10570  -1.06198  -1.03852
 Alpha  occ. eigenvalues --   -1.02597  -1.01016  -0.98924  -0.97819  -0.97327
 Alpha  occ. eigenvalues --   -0.94852  -0.94601  -0.94179  -0.92313  -0.91882
 Alpha  occ. eigenvalues --   -0.91449  -0.90690  -0.89364  -0.89133  -0.86775
 Alpha  occ. eigenvalues --   -0.86412  -0.84061  -0.84032  -0.82404  -0.80419
 Alpha  occ. eigenvalues --   -0.79728  -0.78920  -0.77583  -0.77110  -0.76339
 Alpha  occ. eigenvalues --   -0.75999  -0.75500  -0.74805  -0.74390  -0.72988
 Alpha  occ. eigenvalues --   -0.72612  -0.72371  -0.71794  -0.71542  -0.70761
 Alpha  occ. eigenvalues --   -0.70207  -0.69201  -0.69041  -0.68425  -0.68304
 Alpha  occ. eigenvalues --   -0.67827  -0.67037  -0.66836  -0.66525  -0.66236
 Alpha  occ. eigenvalues --   -0.66111  -0.65777  -0.64838  -0.63778  -0.63519
 Alpha  occ. eigenvalues --   -0.63352  -0.62742  -0.62429  -0.62028  -0.61832
 Alpha  occ. eigenvalues --   -0.61497  -0.61279  -0.61149  -0.61127  -0.60236
 Alpha  occ. eigenvalues --   -0.60072  -0.59295  -0.58712  -0.58394  -0.58274
 Alpha  occ. eigenvalues --   -0.57914  -0.57515  -0.57215  -0.56911  -0.56109
 Alpha  occ. eigenvalues --   -0.55835  -0.55769  -0.55450  -0.54851  -0.54508
 Alpha  occ. eigenvalues --   -0.54267  -0.54179  -0.53800  -0.53265  -0.52920
 Alpha  occ. eigenvalues --   -0.52554  -0.52223  -0.52197  -0.51883  -0.51611
 Alpha  occ. eigenvalues --   -0.51099  -0.51047  -0.50769  -0.50669  -0.50441
 Alpha  occ. eigenvalues --   -0.50142  -0.49984  -0.49311  -0.49101  -0.48389
 Alpha  occ. eigenvalues --   -0.48199  -0.48052  -0.47978  -0.47565  -0.47454
 Alpha  occ. eigenvalues --   -0.47091  -0.47010  -0.46877  -0.46686  -0.46293
 Alpha  occ. eigenvalues --   -0.46172  -0.46016  -0.45840  -0.45759  -0.45402
 Alpha  occ. eigenvalues --   -0.45042  -0.44874  -0.44497  -0.44438  -0.43727
 Alpha  occ. eigenvalues --   -0.43435  -0.43079  -0.43024  -0.42717  -0.41905
 Alpha  occ. eigenvalues --   -0.41853  -0.41319  -0.41032  -0.39269  -0.38546
 Alpha  occ. eigenvalues --   -0.38079  -0.37554  -0.35287  -0.34842  -0.34559
 Alpha  occ. eigenvalues --   -0.33744  -0.32876  -0.31724  -0.30841  -0.26928
 Alpha  occ. eigenvalues --   -0.22228
 Alpha virt. eigenvalues --   -0.08952  -0.02453  -0.00374   0.01310   0.01374
 Alpha virt. eigenvalues --    0.02219   0.02512   0.02766   0.04644   0.05610
 Alpha virt. eigenvalues --    0.05876   0.06254   0.06795   0.07472   0.07727

 Mulliken charges:
               1
     1  Mg   0.433520
     2  C   -0.060000
     3  C   -0.092973
     4  C   -0.092330
     5  C   -0.045282
     6  N   -0.300006
     7  C    0.116582
     8  C    0.013184
     9  C    0.001632
    10  C    0.153889
    11  C   -0.048256
    12  C   -0.010940
    13  C    0.011866
    14  C    0.477140
    15  O   -0.523663
    16  O   -0.273447
    17  N   -0.323890
    18  C    0.135578
    19  C    0.044684
    20  C   -0.042580
    21  C    0.112140
    22  C   -0.039760
    23  C    0.339244
    24  O   -0.512215
    25  C   -0.019443
    26  N   -0.265221
    27  C    0.143670
    28  C    0.003372
    29  C    0.004364
    30  C    0.067844
    31  C   -0.060821
    32  C   -0.023356
    33  C   -0.054725
    34  N   -0.322481
    35  C    0.086640
    36  C    0.019426
    37  C   -0.076301
    38  C    0.112420
    39  C   -0.035798
    40  C    0.330149
    41  O   -0.528027
    42  C    0.061721
    43  C    0.492994
    44  O   -0.550444
    45  O   -0.249230
    46  C    0.072640
    47  C    0.114182
    48  C   -0.089102
    49  C   -0.024817
    50  C   -0.052329
    51  C   -0.011526
    52  C   -0.028108
    53  C   -0.036872
    54  C   -0.002002
    55  C   -0.050849
    56  C   -0.039805
    57  C   -0.046500
    58  C   -0.036914
    59  C   -0.012943
    60  C   -0.062593
    61  C   -0.036955
    62  C   -0.048612
    63  C   -0.030613
    64  C   -0.004964
    65  C   -0.061594
    66  C   -0.055765
    67  H    0.036389
    68  H    0.028435
    69  H    0.026927
    70  H    0.041831
    71  H    0.039892
    72  H    0.020229
    73  H    0.024614
    74  H    0.027164
    75  H    0.019881
    76  H    0.023247
    77  H    0.037180
    78  H    0.044266
    79  H    0.037971
    80  H    0.022704
    81  H    0.035968
    82  H    0.030908
    83  H    0.041732
    84  H    0.035122
    85  H    0.045660
    86  H    0.034295
    87  H    0.031154
    88  H    0.013602
    89  H    0.024787
    90  H    0.024046
    91  H    0.012923
    92  H    0.013607
    93  H    0.021707
    94  H    0.027563
    95  H    0.043412
    96  H    0.011833
    97  H    0.034331
    98  H    0.064347
    99  H    0.057206
   100  H    0.046056
   101  H    0.032485
   102  H    0.048998
   103  H    0.058331
   104  H    0.006851
   105  H    0.037882
   106  H    0.015065
   107  H    0.036593
   108  H    0.023638
   109  H    0.024427
   110  H    0.024038
   111  H    0.008602
   112  H    0.024809
   113  H    0.017800
   114  H    0.023202
   115  H    0.024029
   116  H    0.023427
   117  H    0.009210
   118  H    0.010338
   119  H    0.015114
   120  H    0.024425
   121  H    0.008962
   122  H    0.021148
   123  H    0.013370
   124  H    0.022724
   125  H    0.022896
   126  H    0.018549
   127  H    0.019770
   128  H    0.026596
   129  H    0.008050
   130  H    0.021269
   131  H    0.013925
   132  H    0.019440
   133  H    0.016961
   134  H    0.013510
   135  H    0.009905
   136  H    0.022455
   137  H    0.027801
   138  H    0.012055
   139  H    0.019438
   140  H    0.026094
 Sum of Mulliken charges =  -0.00000

 Dipole moment (field-independent basis, Debye):
    X=              4.7835    Y=              5.6102    Z=              1.1889  Tot=              7.4679
 N-N= 4.335157460104D+03 E-N= 0.000000000000D+00  KE=-9.344530960678D+03
 Leave Link  601 at Fri Apr 29 18:51:02 2022, MaxMem=  6710886400 cpu:               0.8 elap:               0.0
 (Enter /sw/apps/gaussian-16.0/g16/l9999.exe)
 1\1\GINC-BP1-COMPUTE102\SP\RZINDO CIS\STO-3G\C55H74Mg1N4O6\OF15641\29-
 Apr-2022\0\\#p ZINDO=(nstates=5)\\step_401_chromophore_5 ZINDO\\0,1\Mg
 ,0,23.939,-7.078,44.997\C,0,26.319,-4.594,43.795\C,0,21.581,-5.376,43.
 164\C,0,22.003,-9.872,45.416\C,0,26.719,-8.856,46.305\N,0,23.957,-5.06
 3,43.839\C,0,25.008,-4.305,43.401\C,0,24.524,-3.24,42.421\C,0,22.982,-
 3.296,42.423\C,0,22.817,-4.705,43.177\C,0,22.276,-2.197,43.239\C,0,25.
 066,-3.505,40.98\C,0,25.533,-2.32,40.234\C,0,25.021,-2.07,38.858\O,0,2

 Normal termination of Gaussian 16 at Fri Apr 29 18:51:02 2022.
