 Gaussian 16, Revision A.03,
 Gaussian 16:  ES64L-G16RevA.03 25-Dec-2016

 ------------------------------
 #p blyp/Def2SVP td=(nstates=5)
 ------------------------------

 ---------------------------------------------------
 step_1551_chromophore_11 TDDFT with blyp functional
 ---------------------------------------------------
 Symbolic Z-matrix:
 Charge =  0 Multiplicity = 1

                         Standard orientation:
 ---------------------------------------------------------------------
 Center     Atomic      Atomic             Coordinates (Angstroms)
 Number     Number       Type             X           Y           Z
 ---------------------------------------------------------------------
      1         12           0       -4.407375    1.537897    0.573347
      2          6           0       -5.855066   -1.777678   -0.018630
      3          6           0       -2.293754    0.005473    2.750857
      4          6           0       -2.672143    4.348765    0.658703
      5          6           0       -6.761652    2.894755   -1.702065
      6          7           0       -3.923425   -0.716811    1.081097
      7          6           0       -4.686240   -1.821513    0.771123
      8          6           0       -4.128322   -3.059024    1.495921
      9          6           0       -3.212374   -2.406490    2.615314
     10          6           0       -3.084617   -0.971560    2.091098
     11          6           0       -3.734462   -2.561298    4.056064
     12          6           0       -3.447940   -4.107094    0.578863
     13          6           0       -2.179404   -3.581613   -0.103711
     14          6           0       -0.840037   -4.302155    0.142075
     15          8           0       -0.541066   -5.431410   -0.314960
     16          8           0       -0.068067   -3.683392    1.073035
     17          7           0       -2.745621    2.139490    1.620135
     18          6           0       -2.033702    1.331904    2.504404
     19          6           0       -1.037436    2.221108    3.185919
     20          6           0       -1.047649    3.450836    2.537970
     21          6           0       -2.161257    3.368918    1.546026
     22          6           0       -0.156055    1.738998    4.247702
     23          6           0       -0.111845    4.669893    2.730865
     24          8           0        0.772216    4.618626    3.584332
     25          6           0       -0.064318    5.900189    1.906988
     26          7           0       -4.468102    3.277733   -0.627154
     27          6           0       -3.794233    4.390664   -0.198154
     28          6           0       -4.299510    5.646176   -0.845842
     29          6           0       -5.626268    5.125293   -1.514096
     30          6           0       -5.617271    3.640749   -1.289228
     31          6           0       -4.533151    6.778772    0.162886
     32          6           0       -5.804457    5.456013   -3.021503
     33          6           0       -7.105955    6.296436   -3.382963
     34          7           0       -5.997251    0.809245   -0.583640
     35          6           0       -6.864374    1.467090   -1.438667
     36          6           0       -7.881820    0.560332   -1.793986
     37          6           0       -7.557182   -0.746801   -1.267863
     38          6           0       -6.362332   -0.583382   -0.559863
     39          6           0       -8.993963    0.896603   -2.722404
     40          6           0       -7.911328   -2.186302   -1.254342
     41          8           0       -8.914946   -2.699598   -1.780328
     42          6           0       -6.849881   -2.936435   -0.273336
     43          6           0       -6.409987   -4.166520   -1.070836
     44          8           0       -5.897948   -4.105401   -2.187779
     45          8           0       -6.679535   -5.313741   -0.282936
     46          6           0       -6.278385   -6.630958   -0.798278
     47          6           0        1.235241   -4.300571    1.177483
     48          6           0        2.127167   -3.806204    0.114244
     49          6           0        3.403403   -4.111492   -0.198736
     50          6           0        4.227068   -5.085776    0.524146
     51          6           0        4.104243   -3.311681   -1.331225
     52          6           0        4.423468   -1.823146   -0.979896
     53          6           0        5.979763   -1.496712   -0.910664
     54          6           0        6.401643   -0.336098   -1.941269
     55          6           0        6.957576   -0.890237   -3.249130
     56          6           0        7.444753    0.571501   -1.140987
     57          6           0        8.835681   -0.067771   -0.935147
     58          6           0        9.451578    0.402896    0.371444
     59          6           0       10.967802   -0.045649    0.487656
     60          6           0       11.274197   -0.496274    1.905889
     61          6           0       11.929258    1.136501    0.182912
     62          6           0       13.300270    0.433183    0.004888
     63          6           0       13.987665    0.815341   -1.315471
     64          6           0       15.523677    1.113136   -1.058568
     65          6           0       15.823668    2.621978   -0.913102
     66          6           0       16.456226    0.527842   -2.129694
     67          1           0       -1.714767   -0.527423    3.508002
     68          1           0       -2.168374    5.316852    0.616771
     69          1           0       -7.634987    3.328115   -2.193206
     70          1           0       -4.949641   -3.641712    1.913758
     71          1           0       -2.236013   -2.889367    2.668314
     72          1           0       -4.049148   -1.570051    4.382269
     73          1           0       -2.841434   -2.815693    4.626230
     74          1           0       -4.563009   -3.266678    4.116049
     75          1           0       -4.133416   -4.512745   -0.165240
     76          1           0       -3.091625   -4.893510    1.244417
     77          1           0       -2.079249   -2.519342    0.117876
     78          1           0       -2.287336   -3.555369   -1.187775
     79          1           0        0.832869    1.584501    3.815849
     80          1           0       -0.480372    0.774805    4.641438
     81          1           0       -0.109864    2.457512    5.065027
     82          1           0        0.610054    6.629504    2.356406
     83          1           0       -1.048127    6.340108    2.069699
     84          1           0        0.102914    5.657296    0.857320
     85          1           0       -3.624744    5.934440   -1.651232
     86          1           0       -6.485435    5.535342   -0.983461
     87          1           0       -5.538223    7.184548    0.042714
     88          1           0       -3.750739    7.505723   -0.052201
     89          1           0       -4.563094    6.318400    1.149635
     90          1           0       -5.841940    4.517820   -3.575679
     91          1           0       -4.935287    6.031182   -3.338050
     92          1           0       -6.773421    7.069483   -4.075293
     93          1           0       -7.430832    6.717080   -2.430993
     94          1           0       -7.902604    5.642048   -3.736364
     95          1           0       -8.914054    1.718798   -3.434270
     96          1           0       -9.884943    1.195772   -2.169777
     97          1           0       -9.210645   -0.031690   -3.248270
     98          1           0       -7.448642   -3.213027    0.594950
     99          1           0       -5.612463   -7.160670   -0.118032
    100          1           0       -5.739504   -6.617533   -1.745443
    101          1           0       -7.185406   -7.225451   -0.914292
    102          1           0        1.237388   -5.384887    1.065501
    103          1           0        1.713858   -4.148289    2.145234
    104          1           0        1.677490   -3.067170   -0.547893
    105          1           0        4.482619   -5.697928   -0.340962
    106          1           0        3.635662   -5.719498    1.183937
    107          1           0        5.033386   -4.548751    1.023531
    108          1           0        3.463402   -3.212156   -2.207257
    109          1           0        4.991191   -3.852001   -1.661357
    110          1           0        3.878060   -1.579830   -0.068036
    111          1           0        4.001571   -1.222223   -1.784621
    112          1           0        6.544080   -2.375831   -1.221478
    113          1           0        6.131507   -1.232207    0.135202
    114          1           0        5.508497    0.278406   -2.052874
    115          1           0        7.776417   -0.190610   -3.414959
    116          1           0        6.077727   -0.886933   -3.893211
    117          1           0        7.328967   -1.896021   -3.058283
    118          1           0        7.060191    1.149888   -0.300260
    119          1           0        7.618505    1.359309   -1.874782
    120          1           0        9.511343    0.153011   -1.761214
    121          1           0        8.756448   -1.154119   -0.893226
    122          1           0        8.850565   -0.013029    1.180307
    123          1           0        9.319895    1.484603    0.371272
    124          1           0       11.113354   -0.887546   -0.190000
    125          1           0       12.098529   -0.006564    2.424863
    126          1           0       11.577896   -1.534775    1.767288
    127          1           0       10.365328   -0.511585    2.508108
    128          1           0       11.992867    1.725794    1.098102
    129          1           0       11.508502    1.718066   -0.636644
    130          1           0       13.333227   -0.631405    0.236741
    131          1           0       13.919256    0.950167    0.737992
    132          1           0       13.561506    1.782774   -1.582789
    133          1           0       13.815268    0.104573   -2.123353
    134          1           0       15.824965    0.730745   -0.083257
    135          1           0       16.834661    2.919054   -1.192070
    136          1           0       15.751944    2.755659    0.166178
    137          1           0       15.140727    3.362358   -1.328331
    138          1           0       17.375437    0.518940   -1.543651
    139          1           0       16.386192    0.951189   -3.132312
    140          1           0       16.213263   -0.518747   -2.313424
 ---------------------------------------------------------------------

 SCF Done:  E(RB-LYP) =  -3007.34905384     A.U. after   21 cycles

 Excitation energies and oscillator strengths:

 Excited State   1:      Singlet-A      1.7890 eV  693.03 nm  f=0.2756  <S**2>=0.000
     245 -> 248        0.19794
     246 -> 247        0.68518
     246 <- 247       -0.14366
 This state for optimization and/or second-order correction.
 Total Energy, E(TD-HF/TD-DFT) =  -3007.28330848
 Copying the excited state density for this state as the 1-particle RhoCI density.

 Excited State   2:      Singlet-A      1.8659 eV  664.46 nm  f=0.0011  <S**2>=0.000
     244 -> 247        0.69741

 Excited State   3:      Singlet-A      1.9113 eV  648.69 nm  f=0.0127  <S**2>=0.000
     242 -> 247        0.56446
     244 -> 247        0.10204
     245 -> 247        0.39311
     246 -> 248       -0.10426

 Excited State   4:      Singlet-A      1.9252 eV  644.02 nm  f=0.0003  <S**2>=0.000
     243 -> 247        0.70542

 Excited State   5:      Singlet-A      2.0515 eV  604.36 nm  f=0.0350  <S**2>=0.000
     241 -> 247        0.15652
     242 -> 247       -0.40873
     245 -> 247        0.48245
     246 -> 248       -0.25304

 The electronic state is 1-A.
 Alpha  occ. eigenvalues --  -46.27687 -18.83255 -18.82715 -18.77831 -18.76460
 Alpha  occ. eigenvalues --  -18.75980 -18.75552 -14.03673 -14.03431 -14.01815
 Alpha  occ. eigenvalues --  -14.00869 -10.05082 -10.04342 -10.00344 -10.00246
 Alpha  occ. eigenvalues --   -9.97814  -9.97490  -9.97142  -9.97076  -9.97042
 Alpha  occ. eigenvalues --   -9.96887  -9.96736  -9.96532  -9.95288  -9.95246
 Alpha  occ. eigenvalues --   -9.94866  -9.94815  -9.94492  -9.94268  -9.94183
 Alpha  occ. eigenvalues --   -9.94138  -9.93680  -9.93646  -9.93575  -9.93370
 Alpha  occ. eigenvalues --   -9.93353  -9.93154  -9.93133  -9.93118  -9.92992
 Alpha  occ. eigenvalues --   -9.92888  -9.92805  -9.92567  -9.92501  -9.92118
 Alpha  occ. eigenvalues --   -9.91941  -9.91897  -9.91844  -9.91812  -9.91546
 Alpha  occ. eigenvalues --   -9.91504  -9.91385  -9.91262  -9.91173  -9.91150
 Alpha  occ. eigenvalues --   -9.90990  -9.90857  -9.90812  -9.90782  -9.90732
 Alpha  occ. eigenvalues --   -9.90713  -9.90518  -9.90470  -9.90465  -9.90425
 Alpha  occ. eigenvalues --   -9.90162  -2.92247  -1.72645  -1.72183  -1.71929
 Alpha  occ. eigenvalues --   -0.98859  -0.96465  -0.91632  -0.90392  -0.89951
 Alpha  occ. eigenvalues --   -0.88662  -0.86622  -0.86277  -0.85306  -0.83787
 Alpha  occ. eigenvalues --   -0.75140  -0.73317  -0.73061  -0.72777  -0.72589
 Alpha  occ. eigenvalues --   -0.72291  -0.71713  -0.71234  -0.70639  -0.70592
 Alpha  occ. eigenvalues --   -0.69414  -0.68925  -0.68046  -0.67483  -0.67352
 Alpha  occ. eigenvalues --   -0.66653  -0.66349  -0.65552  -0.65162  -0.64905
 Alpha  occ. eigenvalues --   -0.64263  -0.62472  -0.62350  -0.62030  -0.60901
 Alpha  occ. eigenvalues --   -0.60097  -0.59982  -0.59894  -0.58961  -0.58652
 Alpha  occ. eigenvalues --   -0.58095  -0.57445  -0.57217  -0.55897  -0.54532
 Alpha  occ. eigenvalues --   -0.53592  -0.53312  -0.52620  -0.51969  -0.51793
 Alpha  occ. eigenvalues --   -0.51414  -0.51184  -0.51026  -0.50741  -0.49843
 Alpha  occ. eigenvalues --   -0.49291  -0.49074  -0.48658  -0.47362  -0.46336
 Alpha  occ. eigenvalues --   -0.46205  -0.46002  -0.45800  -0.45592  -0.44491
 Alpha  occ. eigenvalues --   -0.44179  -0.44021  -0.43494  -0.42881  -0.42684
 Alpha  occ. eigenvalues --   -0.42418  -0.41783  -0.41293  -0.41173  -0.41003
 Alpha  occ. eigenvalues --   -0.40655  -0.40551  -0.40363  -0.40334  -0.40219
 Alpha  occ. eigenvalues --   -0.40163  -0.40051  -0.39899  -0.39684  -0.39334
 Alpha  occ. eigenvalues --   -0.39261  -0.38894  -0.38530  -0.38390  -0.38332
 Alpha  occ. eigenvalues --   -0.38074  -0.38020  -0.37904  -0.37616  -0.37456
 Alpha  occ. eigenvalues --   -0.37198  -0.37095  -0.36851  -0.36820  -0.36544
 Alpha  occ. eigenvalues --   -0.36499  -0.36305  -0.36108  -0.35665  -0.35466
 Alpha  occ. eigenvalues --   -0.35415  -0.35285  -0.35072  -0.34987  -0.34858
 Alpha  occ. eigenvalues --   -0.34558  -0.34494  -0.34430  -0.34344  -0.34114
 Alpha  occ. eigenvalues --   -0.33698  -0.33582  -0.33526  -0.33278  -0.33062
 Alpha  occ. eigenvalues --   -0.32983  -0.32790  -0.32615  -0.32539  -0.32386
 Alpha  occ. eigenvalues --   -0.32137  -0.32023  -0.31553  -0.31425  -0.31326
 Alpha  occ. eigenvalues --   -0.31285  -0.31136  -0.30834  -0.30501  -0.30406
 Alpha  occ. eigenvalues --   -0.30321  -0.30206  -0.29908  -0.29849  -0.29705
 Alpha  occ. eigenvalues --   -0.29569  -0.29483  -0.29401  -0.29270  -0.28856
 Alpha  occ. eigenvalues --   -0.28560  -0.28483  -0.28283  -0.28021  -0.27922
 Alpha  occ. eigenvalues --   -0.27776  -0.27533  -0.27049  -0.26842  -0.26776
 Alpha  occ. eigenvalues --   -0.26316  -0.26088  -0.25931  -0.25577  -0.25398
 Alpha  occ. eigenvalues --   -0.25179  -0.24517  -0.24471  -0.23500  -0.23455
 Alpha  occ. eigenvalues --   -0.22904  -0.22540  -0.22215  -0.21389  -0.21185
 Alpha  occ. eigenvalues --   -0.19489  -0.18857  -0.18848  -0.18567  -0.17704
 Alpha  occ. eigenvalues --   -0.16069
 Alpha virt. eigenvalues --   -0.11773  -0.07565  -0.06502  -0.04944  -0.03957
 Alpha virt. eigenvalues --   -0.03649  -0.03115  -0.02208  -0.00826  -0.00773
 Alpha virt. eigenvalues --    0.00507   0.01750   0.02188   0.02831   0.02975

 Mulliken charges:
               1
     1  Mg   0.679842
     2  C   -0.025528
     3  C   -0.056654
     4  C   -0.029710
     5  C   -0.078783
     6  N   -0.155921
     7  C   -0.072651
     8  C    0.005687
     9  C   -0.018741
    10  C   -0.043259
    11  C    0.146747
    12  C    0.132882
    13  C    0.123972
    14  C    0.065514
    15  O   -0.220123
    16  O   -0.235162
    17  N   -0.316373
    18  C    0.190714
    19  C   -0.151013
    20  C    0.070142
    21  C    0.135006
    22  C    0.194493
    23  C   -0.111923
    24  O   -0.178071
    25  C    0.181406
    26  N   -0.243541
    27  C   -0.050093
    28  C    0.050905
    29  C   -0.003586
    30  C    0.070712
    31  C    0.149425
    32  C    0.070092
    33  C    0.057910
    34  N   -0.322054
    35  C    0.119154
    36  C   -0.168742
    37  C    0.085298
    38  C    0.125874
    39  C    0.155220
    40  C   -0.047432
    41  O   -0.154514
    42  C    0.075433
    43  C    0.146387
    44  O   -0.167908
    45  O   -0.300700
    46  C    0.202437
    47  C    0.356316
    48  C   -0.123264
    49  C   -0.200118
    50  C    0.169766
    51  C    0.114847
    52  C    0.068897
    53  C    0.086026
    54  C   -0.128340
    55  C    0.173967
    56  C    0.085666
    57  C    0.034005
    58  C    0.108081
    59  C   -0.119389
    60  C    0.126017
    61  C    0.107475
    62  C    0.058382
    63  C    0.143314
    64  C   -0.099211
    65  C    0.081477
    66  C    0.109436
    67  H   -0.061988
    68  H   -0.092993
    69  H   -0.050224
    70  H   -0.032824
    71  H   -0.021157
    72  H   -0.012823
    73  H   -0.004087
    74  H    0.005042
    75  H    0.007980
    76  H   -0.014170
    77  H   -0.016631
    78  H    0.002601
    79  H    0.012593
    80  H   -0.026235
    81  H    0.010666
    82  H   -0.007890
    83  H    0.002599
    84  H    0.025873
    85  H   -0.017500
    86  H   -0.027414
    87  H   -0.013688
    88  H    0.006971
    89  H   -0.005884
    90  H   -0.006212
    91  H   -0.028313
    92  H    0.002641
    93  H   -0.014779
    94  H    0.007105
    95  H   -0.015982
    96  H   -0.011333
    97  H    0.013314
    98  H    0.011282
    99  H    0.015455
   100  H    0.024384
   101  H    0.021830
   102  H    0.008237
   103  H   -0.007594
   104  H   -0.043575
   105  H    0.003832
   106  H   -0.025173
   107  H    0.013949
   108  H   -0.025235
   109  H   -0.042638
   110  H   -0.024696
   111  H   -0.036064
   112  H   -0.026768
   113  H   -0.024624
   114  H   -0.036246
   115  H   -0.010827
   116  H   -0.000499
   117  H   -0.015608
   118  H   -0.026038
   119  H   -0.050903
   120  H   -0.027998
   121  H   -0.030564
   122  H   -0.036576
   123  H   -0.034930
   124  H   -0.030067
   125  H   -0.009973
   126  H   -0.029515
   127  H   -0.022014
   128  H   -0.032573
   129  H   -0.021433
   130  H   -0.012452
   131  H   -0.042991
   132  H   -0.043567
   133  H   -0.035294
   134  H   -0.030133
   135  H   -0.018775
   136  H   -0.028484
   137  H   -0.012018
   138  H   -0.014395
   139  H   -0.004998
   140  H   -0.035115
 Sum of Mulliken charges =  -0.00000

 Dipole moment (field-independent basis, Debye):
    X=              0.9277    Y=              3.4310    Z=              2.7462  Tot=              4.4916
 Quadrupole moment (field-independent basis, Debye-Ang):
   XX=           -426.7613   YY=           -384.0562   ZZ=           -413.4572
   XY=            -37.7227   XZ=            -22.0248   YZ=            -31.2732

 Normal termination of Gaussian 16 at Thu Apr 28 12:03:05 2022.
