 Gaussian 16, Revision A.03,
 Gaussian 16:  ES64L-G16RevA.03 25-Dec-2016

 -----------------------------------
 #p cam-b3lyp/Def2SVP td=(nstates=5)
 -----------------------------------

 --------------------------------------------------------
 step_1551_chromophore_11 TDDFT with cam-b3lyp functional
 --------------------------------------------------------
 Symbolic Z-matrix:
 Charge =  0 Multiplicity = 1

                         Standard orientation:
 ---------------------------------------------------------------------
 Center     Atomic      Atomic             Coordinates (Angstroms)
 Number     Number       Type             X           Y           Z
 ---------------------------------------------------------------------
      1         12           0       -4.407375    1.537897    0.573347
      2          6           0       -5.855066   -1.777678   -0.018630
      3          6           0       -2.293754    0.005473    2.750857
      4          6           0       -2.672143    4.348765    0.658703
      5          6           0       -6.761652    2.894755   -1.702065
      6          7           0       -3.923425   -0.716811    1.081097
      7          6           0       -4.686240   -1.821513    0.771123
      8          6           0       -4.128322   -3.059024    1.495921
      9          6           0       -3.212374   -2.406490    2.615314
     10          6           0       -3.084617   -0.971560    2.091098
     11          6           0       -3.734462   -2.561298    4.056064
     12          6           0       -3.447940   -4.107094    0.578863
     13          6           0       -2.179404   -3.581613   -0.103711
     14          6           0       -0.840037   -4.302155    0.142075
     15          8           0       -0.541066   -5.431410   -0.314960
     16          8           0       -0.068067   -3.683392    1.073035
     17          7           0       -2.745621    2.139490    1.620135
     18          6           0       -2.033702    1.331904    2.504404
     19          6           0       -1.037436    2.221108    3.185919
     20          6           0       -1.047649    3.450836    2.537970
     21          6           0       -2.161257    3.368918    1.546026
     22          6           0       -0.156055    1.738998    4.247702
     23          6           0       -0.111845    4.669893    2.730865
     24          8           0        0.772216    4.618626    3.584332
     25          6           0       -0.064318    5.900189    1.906988
     26          7           0       -4.468102    3.277733   -0.627154
     27          6           0       -3.794233    4.390664   -0.198154
     28          6           0       -4.299510    5.646176   -0.845842
     29          6           0       -5.626268    5.125293   -1.514096
     30          6           0       -5.617271    3.640749   -1.289228
     31          6           0       -4.533151    6.778772    0.162886
     32          6           0       -5.804457    5.456013   -3.021503
     33          6           0       -7.105955    6.296436   -3.382963
     34          7           0       -5.997251    0.809245   -0.583640
     35          6           0       -6.864374    1.467090   -1.438667
     36          6           0       -7.881820    0.560332   -1.793986
     37          6           0       -7.557182   -0.746801   -1.267863
     38          6           0       -6.362332   -0.583382   -0.559863
     39          6           0       -8.993963    0.896603   -2.722404
     40          6           0       -7.911328   -2.186302   -1.254342
     41          8           0       -8.914946   -2.699598   -1.780328
     42          6           0       -6.849881   -2.936435   -0.273336
     43          6           0       -6.409987   -4.166520   -1.070836
     44          8           0       -5.897948   -4.105401   -2.187779
     45          8           0       -6.679535   -5.313741   -0.282936
     46          6           0       -6.278385   -6.630958   -0.798278
     47          6           0        1.235241   -4.300571    1.177483
     48          6           0        2.127167   -3.806204    0.114244
     49          6           0        3.403403   -4.111492   -0.198736
     50          6           0        4.227068   -5.085776    0.524146
     51          6           0        4.104243   -3.311681   -1.331225
     52          6           0        4.423468   -1.823146   -0.979896
     53          6           0        5.979763   -1.496712   -0.910664
     54          6           0        6.401643   -0.336098   -1.941269
     55          6           0        6.957576   -0.890237   -3.249130
     56          6           0        7.444753    0.571501   -1.140987
     57          6           0        8.835681   -0.067771   -0.935147
     58          6           0        9.451578    0.402896    0.371444
     59          6           0       10.967802   -0.045649    0.487656
     60          6           0       11.274197   -0.496274    1.905889
     61          6           0       11.929258    1.136501    0.182912
     62          6           0       13.300270    0.433183    0.004888
     63          6           0       13.987665    0.815341   -1.315471
     64          6           0       15.523677    1.113136   -1.058568
     65          6           0       15.823668    2.621978   -0.913102
     66          6           0       16.456226    0.527842   -2.129694
     67          1           0       -1.714767   -0.527423    3.508002
     68          1           0       -2.168374    5.316852    0.616771
     69          1           0       -7.634987    3.328115   -2.193206
     70          1           0       -4.949641   -3.641712    1.913758
     71          1           0       -2.236013   -2.889367    2.668314
     72          1           0       -4.049148   -1.570051    4.382269
     73          1           0       -2.841434   -2.815693    4.626230
     74          1           0       -4.563009   -3.266678    4.116049
     75          1           0       -4.133416   -4.512745   -0.165240
     76          1           0       -3.091625   -4.893510    1.244417
     77          1           0       -2.079249   -2.519342    0.117876
     78          1           0       -2.287336   -3.555369   -1.187775
     79          1           0        0.832869    1.584501    3.815849
     80          1           0       -0.480372    0.774805    4.641438
     81          1           0       -0.109864    2.457512    5.065027
     82          1           0        0.610054    6.629504    2.356406
     83          1           0       -1.048127    6.340108    2.069699
     84          1           0        0.102914    5.657296    0.857320
     85          1           0       -3.624744    5.934440   -1.651232
     86          1           0       -6.485435    5.535342   -0.983461
     87          1           0       -5.538223    7.184548    0.042714
     88          1           0       -3.750739    7.505723   -0.052201
     89          1           0       -4.563094    6.318400    1.149635
     90          1           0       -5.841940    4.517820   -3.575679
     91          1           0       -4.935287    6.031182   -3.338050
     92          1           0       -6.773421    7.069483   -4.075293
     93          1           0       -7.430832    6.717080   -2.430993
     94          1           0       -7.902604    5.642048   -3.736364
     95          1           0       -8.914054    1.718798   -3.434270
     96          1           0       -9.884943    1.195772   -2.169777
     97          1           0       -9.210645   -0.031690   -3.248270
     98          1           0       -7.448642   -3.213027    0.594950
     99          1           0       -5.612463   -7.160670   -0.118032
    100          1           0       -5.739504   -6.617533   -1.745443
    101          1           0       -7.185406   -7.225451   -0.914292
    102          1           0        1.237388   -5.384887    1.065501
    103          1           0        1.713858   -4.148289    2.145234
    104          1           0        1.677490   -3.067170   -0.547893
    105          1           0        4.482619   -5.697928   -0.340962
    106          1           0        3.635662   -5.719498    1.183937
    107          1           0        5.033386   -4.548751    1.023531
    108          1           0        3.463402   -3.212156   -2.207257
    109          1           0        4.991191   -3.852001   -1.661357
    110          1           0        3.878060   -1.579830   -0.068036
    111          1           0        4.001571   -1.222223   -1.784621
    112          1           0        6.544080   -2.375831   -1.221478
    113          1           0        6.131507   -1.232207    0.135202
    114          1           0        5.508497    0.278406   -2.052874
    115          1           0        7.776417   -0.190610   -3.414959
    116          1           0        6.077727   -0.886933   -3.893211
    117          1           0        7.328967   -1.896021   -3.058283
    118          1           0        7.060191    1.149888   -0.300260
    119          1           0        7.618505    1.359309   -1.874782
    120          1           0        9.511343    0.153011   -1.761214
    121          1           0        8.756448   -1.154119   -0.893226
    122          1           0        8.850565   -0.013029    1.180307
    123          1           0        9.319895    1.484603    0.371272
    124          1           0       11.113354   -0.887546   -0.190000
    125          1           0       12.098529   -0.006564    2.424863
    126          1           0       11.577896   -1.534775    1.767288
    127          1           0       10.365328   -0.511585    2.508108
    128          1           0       11.992867    1.725794    1.098102
    129          1           0       11.508502    1.718066   -0.636644
    130          1           0       13.333227   -0.631405    0.236741
    131          1           0       13.919256    0.950167    0.737992
    132          1           0       13.561506    1.782774   -1.582789
    133          1           0       13.815268    0.104573   -2.123353
    134          1           0       15.824965    0.730745   -0.083257
    135          1           0       16.834661    2.919054   -1.192070
    136          1           0       15.751944    2.755659    0.166178
    137          1           0       15.140727    3.362358   -1.328331
    138          1           0       17.375437    0.518940   -1.543651
    139          1           0       16.386192    0.951189   -3.132312
    140          1           0       16.213263   -0.518747   -2.313424
 ---------------------------------------------------------------------

 SCF Done:  E(RCAM-B3LYP) =  -3007.13474954     A.U. after   18 cycles

 Excitation energies and oscillator strengths:

 Excited State   1:      Singlet-A      1.7402 eV  712.49 nm  f=0.3484  <S**2>=0.000
     245 -> 248       -0.18078
     246 -> 247        0.68262
     245 <- 248       -0.10512
 This state for optimization and/or second-order correction.
 Total Energy, E(TD-HF/TD-DFT) =  -3007.07079999
 Copying the excited state density for this state as the 1-particle RhoCI density.

 Excited State   2:      Singlet-A      2.2826 eV  543.18 nm  f=0.0674  <S**2>=0.000
     245 -> 247        0.61118
     246 -> 248        0.33502

 Excited State   3:      Singlet-A      3.1408 eV  394.75 nm  f=0.0025  <S**2>=0.000
     244 -> 247        0.68190
     246 -> 248       -0.10977

 Excited State   4:      Singlet-A      3.4327 eV  361.19 nm  f=0.6075  <S**2>=0.000
     239 -> 247        0.12126
     241 -> 247       -0.23783
     245 -> 247       -0.29341
     246 -> 248        0.56290

 Excited State   5:      Singlet-A      3.5708 eV  347.22 nm  f=0.0056  <S**2>=0.000
     240 -> 247        0.23981
     240 -> 249       -0.17810
     240 -> 251        0.11049
     241 -> 247       -0.10597
     242 -> 247        0.47980
     242 -> 249        0.23140
     242 -> 251        0.23155

 The electronic state is 1-A.
 Alpha  occ. eigenvalues --  -46.89292 -19.26208 -19.25619 -19.20932 -19.19462
 Alpha  occ. eigenvalues --  -19.19163 -19.18831 -14.42868 -14.42127 -14.40603
 Alpha  occ. eigenvalues --  -14.38957 -10.40680 -10.39700 -10.35863 -10.35395
 Alpha  occ. eigenvalues --  -10.32328 -10.32154 -10.31952 -10.31760 -10.31555
 Alpha  occ. eigenvalues --  -10.31492 -10.31030 -10.30920 -10.29850 -10.29693
 Alpha  occ. eigenvalues --  -10.29227 -10.28869 -10.28686 -10.28624 -10.28360
 Alpha  occ. eigenvalues --  -10.28300 -10.28164 -10.27944 -10.27483 -10.27386
 Alpha  occ. eigenvalues --  -10.27221 -10.27171 -10.27097 -10.26832 -10.26818
 Alpha  occ. eigenvalues --  -10.26755 -10.26657 -10.26439 -10.26336 -10.26068
 Alpha  occ. eigenvalues --  -10.26023 -10.25761 -10.25574 -10.25572 -10.25298
 Alpha  occ. eigenvalues --  -10.25044 -10.25036 -10.24946 -10.24796 -10.24780
 Alpha  occ. eigenvalues --  -10.24693 -10.24544 -10.24516 -10.24512 -10.24500
 Alpha  occ. eigenvalues --  -10.24486 -10.24434 -10.24164 -10.24077 -10.24063
 Alpha  occ. eigenvalues --  -10.23780  -3.17753  -1.92629  -1.92248  -1.92028
 Alpha  occ. eigenvalues --   -1.17329  -1.14930  -1.10413  -1.08379  -1.07891
 Alpha  occ. eigenvalues --   -1.06541  -1.04570  -1.04035  -1.03244  -1.00810
 Alpha  occ. eigenvalues --   -0.92075  -0.90236  -0.89934  -0.89615  -0.89398
 Alpha  occ. eigenvalues --   -0.89110  -0.88469  -0.87907  -0.87741  -0.87216
 Alpha  occ. eigenvalues --   -0.85939  -0.84900  -0.84327  -0.83809  -0.83374
 Alpha  occ. eigenvalues --   -0.82871  -0.82557  -0.81559  -0.80886  -0.80776
 Alpha  occ. eigenvalues --   -0.80131  -0.78504  -0.77963  -0.77460  -0.76211
 Alpha  occ. eigenvalues --   -0.75472  -0.75362  -0.75260  -0.74268  -0.73912
 Alpha  occ. eigenvalues --   -0.73184  -0.72387  -0.72046  -0.70810  -0.69074
 Alpha  occ. eigenvalues --   -0.68164  -0.67931  -0.67305  -0.66342  -0.65818
 Alpha  occ. eigenvalues --   -0.65482  -0.65402  -0.65328  -0.64737  -0.63689
 Alpha  occ. eigenvalues --   -0.63338  -0.63056  -0.62223  -0.61183  -0.60071
 Alpha  occ. eigenvalues --   -0.59878  -0.59604  -0.59472  -0.59005  -0.57979
 Alpha  occ. eigenvalues --   -0.57667  -0.57353  -0.56903  -0.55958  -0.55810
 Alpha  occ. eigenvalues --   -0.55479  -0.54927  -0.54186  -0.54029  -0.53967
 Alpha  occ. eigenvalues --   -0.53721  -0.53501  -0.53204  -0.53104  -0.52994
 Alpha  occ. eigenvalues --   -0.52924  -0.52714  -0.52578  -0.52377  -0.51995
 Alpha  occ. eigenvalues --   -0.51761  -0.51339  -0.51193  -0.50790  -0.50770
 Alpha  occ. eigenvalues --   -0.50620  -0.50410  -0.50277  -0.49984  -0.49831
 Alpha  occ. eigenvalues --   -0.49656  -0.49360  -0.49133  -0.48960  -0.48912
 Alpha  occ. eigenvalues --   -0.48737  -0.48558  -0.48366  -0.48114  -0.47876
 Alpha  occ. eigenvalues --   -0.47542  -0.47424  -0.47138  -0.47057  -0.46951
 Alpha  occ. eigenvalues --   -0.46687  -0.46585  -0.46354  -0.46292  -0.45962
 Alpha  occ. eigenvalues --   -0.45580  -0.45207  -0.45175  -0.45085  -0.44857
 Alpha  occ. eigenvalues --   -0.44609  -0.44456  -0.44221  -0.44114  -0.43916
 Alpha  occ. eigenvalues --   -0.43840  -0.43607  -0.43168  -0.43051  -0.42877
 Alpha  occ. eigenvalues --   -0.42804  -0.42529  -0.42421  -0.42304  -0.42166
 Alpha  occ. eigenvalues --   -0.41870  -0.41610  -0.41498  -0.41202  -0.40894
 Alpha  occ. eigenvalues --   -0.40743  -0.40680  -0.40590  -0.40409  -0.40050
 Alpha  occ. eigenvalues --   -0.39643  -0.39565  -0.39355  -0.38937  -0.38910
 Alpha  occ. eigenvalues --   -0.38718  -0.38514  -0.37890  -0.37837  -0.37619
 Alpha  occ. eigenvalues --   -0.37327  -0.36919  -0.36866  -0.36741  -0.36734
 Alpha  occ. eigenvalues --   -0.36481  -0.35231  -0.35099  -0.34325  -0.33932
 Alpha  occ. eigenvalues --   -0.33743  -0.33533  -0.32859  -0.31805  -0.31373
 Alpha  occ. eigenvalues --   -0.30894  -0.30416  -0.28467  -0.28217  -0.24688
 Alpha  occ. eigenvalues --   -0.21408
 Alpha virt. eigenvalues --   -0.08737  -0.02594  -0.00037   0.01793   0.02202
 Alpha virt. eigenvalues --    0.03818   0.04252   0.05008   0.06308   0.06536
 Alpha virt. eigenvalues --    0.07703   0.07875   0.08446   0.09011   0.09050

 Mulliken charges:
               1
     1  Mg   0.810672
     2  C   -0.041232
     3  C   -0.075131
     4  C   -0.067761
     5  C   -0.083723
     6  N   -0.215469
     7  C   -0.041155
     8  C   -0.040104
     9  C   -0.075830
    10  C   -0.019736
    11  C    0.088608
    12  C    0.088161
    13  C    0.053505
    14  C    0.145182
    15  O   -0.261060
    16  O   -0.299082
    17  N   -0.408171
    18  C    0.199437
    19  C   -0.147510
    20  C   -0.000359
    21  C    0.175943
    22  C    0.135991
    23  C   -0.030468
    24  O   -0.214923
    25  C    0.094530
    26  N   -0.317795
    27  C   -0.010163
    28  C   -0.012028
    29  C   -0.060332
    30  C    0.089662
    31  C    0.087575
    32  C    0.013170
    33  C    0.001278
    34  N   -0.406283
    35  C    0.124464
    36  C   -0.172361
    37  C    0.007666
    38  C    0.148134
    39  C    0.098608
    40  C    0.052239
    41  O   -0.195260
    42  C   -0.000241
    43  C    0.231629
    44  O   -0.204566
    45  O   -0.365702
    46  C    0.164974
    47  C    0.312769
    48  C   -0.141813
    49  C   -0.221466
    50  C    0.105162
    51  C    0.060118
    52  C    0.015959
    53  C    0.035430
    54  C   -0.174443
    55  C    0.109746
    56  C    0.026242
    57  C   -0.015492
    58  C    0.059950
    59  C   -0.173475
    60  C    0.061787
    61  C    0.056197
    62  C    0.000281
    63  C    0.088584
    64  C   -0.159931
    65  C    0.023620
    66  C    0.048800
    67  H   -0.025613
    68  H   -0.056453
    69  H   -0.016762
    70  H    0.002777
    71  H    0.015247
    72  H    0.013470
    73  H    0.019330
    74  H    0.031162
    75  H    0.033037
    76  H    0.016049
    77  H    0.016116
    78  H    0.037353
    79  H    0.042986
    80  H    0.002093
    81  H    0.041591
    82  H    0.030285
    83  H    0.028826
    84  H    0.053695
    85  H    0.018929
    86  H    0.006885
    87  H    0.013006
    88  H    0.030122
    89  H    0.020818
    90  H    0.025332
    91  H   -0.001062
    92  H    0.025713
    93  H    0.005567
    94  H    0.028380
    95  H    0.006631
    96  H    0.012479
    97  H    0.036950
    98  H    0.054673
    99  H    0.035100
   100  H    0.049560
   101  H    0.044208
   102  H    0.042310
   103  H    0.021572
   104  H   -0.011051
   105  H    0.027493
   106  H    0.000050
   107  H    0.036494
   108  H    0.006729
   109  H   -0.013049
   110  H    0.004841
   111  H   -0.007671
   112  H   -0.003384
   113  H    0.003354
   114  H   -0.004103
   115  H    0.012993
   116  H    0.023656
   117  H    0.007365
   118  H    0.003330
   119  H   -0.020001
   120  H   -0.001909
   121  H   -0.004694
   122  H   -0.009236
   123  H   -0.007558
   124  H    0.001237
   125  H    0.014175
   126  H   -0.004472
   127  H    0.004266
   128  H   -0.002733
   129  H    0.005315
   130  H    0.014457
   131  H   -0.014097
   132  H   -0.014102
   133  H   -0.005910
   134  H    0.001213
   135  H    0.007112
   136  H   -0.005387
   137  H    0.011646
   138  H    0.009439
   139  H    0.018785
   140  H   -0.009955
 Sum of Mulliken charges =  -0.00000

 Dipole moment (field-independent basis, Debye):
    X=              2.0046    Y=              3.9672    Z=              3.6646  Tot=              5.7608
 Quadrupole moment (field-independent basis, Debye-Ang):
   XX=           -436.4896   YY=           -379.5162   ZZ=           -412.2628
   XY=            -37.7370   XZ=            -25.1873   YZ=            -31.1437

 Normal termination of Gaussian 16 at Thu Apr 28 11:03:27 2022.
