 Gaussian 16, Revision A.03,
 Gaussian 16:  ES64L-G16RevA.03 25-Dec-2016

 ---------------------------------
 #p PBE1PBE/Def2SVP td=(nstates=5)
 ---------------------------------

 ------------------------------------------------------
 step_1551_chromophore_11 TDDFT with PBE1PBE functional
 ------------------------------------------------------
 Symbolic Z-matrix:
 Charge =  0 Multiplicity = 1

                         Standard orientation:
 ---------------------------------------------------------------------
 Center     Atomic      Atomic             Coordinates (Angstroms)
 Number     Number       Type             X           Y           Z
 ---------------------------------------------------------------------
      1         12           0       -4.407375    1.537897    0.573347
      2          6           0       -5.855066   -1.777678   -0.018630
      3          6           0       -2.293754    0.005473    2.750857
      4          6           0       -2.672143    4.348765    0.658703
      5          6           0       -6.761652    2.894755   -1.702065
      6          7           0       -3.923425   -0.716811    1.081097
      7          6           0       -4.686240   -1.821513    0.771123
      8          6           0       -4.128322   -3.059024    1.495921
      9          6           0       -3.212374   -2.406490    2.615314
     10          6           0       -3.084617   -0.971560    2.091098
     11          6           0       -3.734462   -2.561298    4.056064
     12          6           0       -3.447940   -4.107094    0.578863
     13          6           0       -2.179404   -3.581613   -0.103711
     14          6           0       -0.840037   -4.302155    0.142075
     15          8           0       -0.541066   -5.431410   -0.314960
     16          8           0       -0.068067   -3.683392    1.073035
     17          7           0       -2.745621    2.139490    1.620135
     18          6           0       -2.033702    1.331904    2.504404
     19          6           0       -1.037436    2.221108    3.185919
     20          6           0       -1.047649    3.450836    2.537970
     21          6           0       -2.161257    3.368918    1.546026
     22          6           0       -0.156055    1.738998    4.247702
     23          6           0       -0.111845    4.669893    2.730865
     24          8           0        0.772216    4.618626    3.584332
     25          6           0       -0.064318    5.900189    1.906988
     26          7           0       -4.468102    3.277733   -0.627154
     27          6           0       -3.794233    4.390664   -0.198154
     28          6           0       -4.299510    5.646176   -0.845842
     29          6           0       -5.626268    5.125293   -1.514096
     30          6           0       -5.617271    3.640749   -1.289228
     31          6           0       -4.533151    6.778772    0.162886
     32          6           0       -5.804457    5.456013   -3.021503
     33          6           0       -7.105955    6.296436   -3.382963
     34          7           0       -5.997251    0.809245   -0.583640
     35          6           0       -6.864374    1.467090   -1.438667
     36          6           0       -7.881820    0.560332   -1.793986
     37          6           0       -7.557182   -0.746801   -1.267863
     38          6           0       -6.362332   -0.583382   -0.559863
     39          6           0       -8.993963    0.896603   -2.722404
     40          6           0       -7.911328   -2.186302   -1.254342
     41          8           0       -8.914946   -2.699598   -1.780328
     42          6           0       -6.849881   -2.936435   -0.273336
     43          6           0       -6.409987   -4.166520   -1.070836
     44          8           0       -5.897948   -4.105401   -2.187779
     45          8           0       -6.679535   -5.313741   -0.282936
     46          6           0       -6.278385   -6.630958   -0.798278
     47          6           0        1.235241   -4.300571    1.177483
     48          6           0        2.127167   -3.806204    0.114244
     49          6           0        3.403403   -4.111492   -0.198736
     50          6           0        4.227068   -5.085776    0.524146
     51          6           0        4.104243   -3.311681   -1.331225
     52          6           0        4.423468   -1.823146   -0.979896
     53          6           0        5.979763   -1.496712   -0.910664
     54          6           0        6.401643   -0.336098   -1.941269
     55          6           0        6.957576   -0.890237   -3.249130
     56          6           0        7.444753    0.571501   -1.140987
     57          6           0        8.835681   -0.067771   -0.935147
     58          6           0        9.451578    0.402896    0.371444
     59          6           0       10.967802   -0.045649    0.487656
     60          6           0       11.274197   -0.496274    1.905889
     61          6           0       11.929258    1.136501    0.182912
     62          6           0       13.300270    0.433183    0.004888
     63          6           0       13.987665    0.815341   -1.315471
     64          6           0       15.523677    1.113136   -1.058568
     65          6           0       15.823668    2.621978   -0.913102
     66          6           0       16.456226    0.527842   -2.129694
     67          1           0       -1.714767   -0.527423    3.508002
     68          1           0       -2.168374    5.316852    0.616771
     69          1           0       -7.634987    3.328115   -2.193206
     70          1           0       -4.949641   -3.641712    1.913758
     71          1           0       -2.236013   -2.889367    2.668314
     72          1           0       -4.049148   -1.570051    4.382269
     73          1           0       -2.841434   -2.815693    4.626230
     74          1           0       -4.563009   -3.266678    4.116049
     75          1           0       -4.133416   -4.512745   -0.165240
     76          1           0       -3.091625   -4.893510    1.244417
     77          1           0       -2.079249   -2.519342    0.117876
     78          1           0       -2.287336   -3.555369   -1.187775
     79          1           0        0.832869    1.584501    3.815849
     80          1           0       -0.480372    0.774805    4.641438
     81          1           0       -0.109864    2.457512    5.065027
     82          1           0        0.610054    6.629504    2.356406
     83          1           0       -1.048127    6.340108    2.069699
     84          1           0        0.102914    5.657296    0.857320
     85          1           0       -3.624744    5.934440   -1.651232
     86          1           0       -6.485435    5.535342   -0.983461
     87          1           0       -5.538223    7.184548    0.042714
     88          1           0       -3.750739    7.505723   -0.052201
     89          1           0       -4.563094    6.318400    1.149635
     90          1           0       -5.841940    4.517820   -3.575679
     91          1           0       -4.935287    6.031182   -3.338050
     92          1           0       -6.773421    7.069483   -4.075293
     93          1           0       -7.430832    6.717080   -2.430993
     94          1           0       -7.902604    5.642048   -3.736364
     95          1           0       -8.914054    1.718798   -3.434270
     96          1           0       -9.884943    1.195772   -2.169777
     97          1           0       -9.210645   -0.031690   -3.248270
     98          1           0       -7.448642   -3.213027    0.594950
     99          1           0       -5.612463   -7.160670   -0.118032
    100          1           0       -5.739504   -6.617533   -1.745443
    101          1           0       -7.185406   -7.225451   -0.914292
    102          1           0        1.237388   -5.384887    1.065501
    103          1           0        1.713858   -4.148289    2.145234
    104          1           0        1.677490   -3.067170   -0.547893
    105          1           0        4.482619   -5.697928   -0.340962
    106          1           0        3.635662   -5.719498    1.183937
    107          1           0        5.033386   -4.548751    1.023531
    108          1           0        3.463402   -3.212156   -2.207257
    109          1           0        4.991191   -3.852001   -1.661357
    110          1           0        3.878060   -1.579830   -0.068036
    111          1           0        4.001571   -1.222223   -1.784621
    112          1           0        6.544080   -2.375831   -1.221478
    113          1           0        6.131507   -1.232207    0.135202
    114          1           0        5.508497    0.278406   -2.052874
    115          1           0        7.776417   -0.190610   -3.414959
    116          1           0        6.077727   -0.886933   -3.893211
    117          1           0        7.328967   -1.896021   -3.058283
    118          1           0        7.060191    1.149888   -0.300260
    119          1           0        7.618505    1.359309   -1.874782
    120          1           0        9.511343    0.153011   -1.761214
    121          1           0        8.756448   -1.154119   -0.893226
    122          1           0        8.850565   -0.013029    1.180307
    123          1           0        9.319895    1.484603    0.371272
    124          1           0       11.113354   -0.887546   -0.190000
    125          1           0       12.098529   -0.006564    2.424863
    126          1           0       11.577896   -1.534775    1.767288
    127          1           0       10.365328   -0.511585    2.508108
    128          1           0       11.992867    1.725794    1.098102
    129          1           0       11.508502    1.718066   -0.636644
    130          1           0       13.333227   -0.631405    0.236741
    131          1           0       13.919256    0.950167    0.737992
    132          1           0       13.561506    1.782774   -1.582789
    133          1           0       13.815268    0.104573   -2.123353
    134          1           0       15.824965    0.730745   -0.083257
    135          1           0       16.834661    2.919054   -1.192070
    136          1           0       15.751944    2.755659    0.166178
    137          1           0       15.140727    3.362358   -1.328331
    138          1           0       17.375437    0.518940   -1.543651
    139          1           0       16.386192    0.951189   -3.132312
    140          1           0       16.213263   -0.518747   -2.313424
 ---------------------------------------------------------------------

 SCF Done:  E(RPBE1PBE) =  -3005.32322445     A.U. after   16 cycles

 Excitation energies and oscillator strengths:

 Excited State   1:      Singlet-A      1.8492 eV  670.48 nm  f=0.3391  <S**2>=0.000
     245 -> 248        0.18013
     246 -> 247        0.68962
     246 <- 247       -0.10074
 This state for optimization and/or second-order correction.
 Total Energy, E(TD-HF/TD-DFT) =  -3005.25526778
 Copying the excited state density for this state as the 1-particle RhoCI density.

 Excited State   2:      Singlet-A      2.2618 eV  548.16 nm  f=0.0679  <S**2>=0.000
     245 -> 247        0.62731
     246 -> 248       -0.30554

 Excited State   3:      Singlet-A      2.7611 eV  449.04 nm  f=0.0064  <S**2>=0.000
     243 -> 247        0.68973
     246 -> 248        0.10957

 Excited State   4:      Singlet-A      2.9729 eV  417.05 nm  f=0.0000  <S**2>=0.000
     244 -> 247        0.70694

 Excited State   5:      Singlet-A      3.0164 eV  411.03 nm  f=0.0069  <S**2>=0.000
     242 -> 247        0.66705
     242 -> 249       -0.15190
     242 -> 250       -0.11248

 The electronic state is 1-A.
 Alpha  occ. eigenvalues --  -46.92673 -19.26825 -19.26392 -19.21241 -19.19751
 Alpha  occ. eigenvalues --  -19.19339 -19.19125 -14.42186 -14.41766 -14.40083
 Alpha  occ. eigenvalues --  -14.38901 -10.37805 -10.36736 -10.32844 -10.32785
 Alpha  occ. eigenvalues --  -10.29546 -10.29519 -10.29387 -10.29050 -10.28995
 Alpha  occ. eigenvalues --  -10.28917 -10.28854 -10.28827 -10.27453 -10.27016
 Alpha  occ. eigenvalues --  -10.27008 -10.27002 -10.26806 -10.26163 -10.26071
 Alpha  occ. eigenvalues --  -10.25973 -10.25914 -10.25358 -10.25281 -10.25123
 Alpha  occ. eigenvalues --  -10.25101 -10.24935 -10.24918 -10.24566 -10.24243
 Alpha  occ. eigenvalues --  -10.24200 -10.24135 -10.23975 -10.23611 -10.23604
 Alpha  occ. eigenvalues --  -10.23447 -10.23446 -10.23233 -10.23148 -10.22886
 Alpha  occ. eigenvalues --  -10.22818 -10.22727 -10.22473 -10.22468 -10.22354
 Alpha  occ. eigenvalues --  -10.22130 -10.22083 -10.22063 -10.22062 -10.22019
 Alpha  occ. eigenvalues --  -10.21993 -10.21917 -10.21691 -10.21453 -10.21426
 Alpha  occ. eigenvalues --  -10.21158  -3.14717  -1.87532  -1.87129  -1.86915
 Alpha  occ. eigenvalues --   -1.12113  -1.09756  -1.04903  -1.03331  -1.02842
 Alpha  occ. eigenvalues --   -1.01352  -0.99037  -0.98599  -0.97664  -0.95786
 Alpha  occ. eigenvalues --   -0.86563  -0.84340  -0.84009  -0.83774  -0.83609
 Alpha  occ. eigenvalues --   -0.83370  -0.82518  -0.82174  -0.81766  -0.81288
 Alpha  occ. eigenvalues --   -0.80107  -0.79502  -0.78513  -0.77924  -0.77790
 Alpha  occ. eigenvalues --   -0.76966  -0.76745  -0.75761  -0.75294  -0.75059
 Alpha  occ. eigenvalues --   -0.74259  -0.72573  -0.72290  -0.71838  -0.70625
 Alpha  occ. eigenvalues --   -0.69750  -0.69537  -0.69324  -0.68385  -0.68062
 Alpha  occ. eigenvalues --   -0.67483  -0.66826  -0.66574  -0.65067  -0.63479
 Alpha  occ. eigenvalues --   -0.62620  -0.62104  -0.61654  -0.60571  -0.60290
 Alpha  occ. eigenvalues --   -0.60019  -0.59792  -0.59483  -0.59297  -0.58151
 Alpha  occ. eigenvalues --   -0.57429  -0.57214  -0.56913  -0.55389  -0.54474
 Alpha  occ. eigenvalues --   -0.54238  -0.54113  -0.53956  -0.53580  -0.52376
 Alpha  occ. eigenvalues --   -0.52172  -0.52076  -0.51377  -0.50480  -0.50449
 Alpha  occ. eigenvalues --   -0.50095  -0.49400  -0.48838  -0.48474  -0.48332
 Alpha  occ. eigenvalues --   -0.48226  -0.47955  -0.47867  -0.47492  -0.47391
 Alpha  occ. eigenvalues --   -0.47357  -0.47219  -0.46993  -0.46910  -0.46643
 Alpha  occ. eigenvalues --   -0.46211  -0.45761  -0.45626  -0.45403  -0.45224
 Alpha  occ. eigenvalues --   -0.45217  -0.44971  -0.44793  -0.44518  -0.44376
 Alpha  occ. eigenvalues --   -0.44240  -0.43916  -0.43769  -0.43656  -0.43483
 Alpha  occ. eigenvalues --   -0.43431  -0.43275  -0.43083  -0.42699  -0.42406
 Alpha  occ. eigenvalues --   -0.42068  -0.41983  -0.41746  -0.41668  -0.41606
 Alpha  occ. eigenvalues --   -0.41325  -0.41218  -0.41068  -0.40843  -0.40623
 Alpha  occ. eigenvalues --   -0.40253  -0.40029  -0.39880  -0.39804  -0.39513
 Alpha  occ. eigenvalues --   -0.39424  -0.39234  -0.39094  -0.38998  -0.38593
 Alpha  occ. eigenvalues --   -0.38542  -0.38502  -0.37886  -0.37834  -0.37718
 Alpha  occ. eigenvalues --   -0.37635  -0.37362  -0.37145  -0.37127  -0.36950
 Alpha  occ. eigenvalues --   -0.36675  -0.36542  -0.36310  -0.35961  -0.35744
 Alpha  occ. eigenvalues --   -0.35630  -0.35541  -0.35322  -0.35144  -0.34937
 Alpha  occ. eigenvalues --   -0.34582  -0.34359  -0.34081  -0.33954  -0.33657
 Alpha  occ. eigenvalues --   -0.33484  -0.33251  -0.32835  -0.32614  -0.32392
 Alpha  occ. eigenvalues --   -0.32378  -0.31892  -0.31757  -0.31701  -0.31517
 Alpha  occ. eigenvalues --   -0.31354  -0.30236  -0.29981  -0.29599  -0.29174
 Alpha  occ. eigenvalues --   -0.28849  -0.28429  -0.27841  -0.27270  -0.26344
 Alpha  occ. eigenvalues --   -0.25822  -0.25570  -0.24206  -0.23702  -0.21524
 Alpha  occ. eigenvalues --   -0.19008
 Alpha virt. eigenvalues --   -0.11317  -0.06031  -0.04201  -0.02321  -0.00963
 Alpha virt. eigenvalues --   -0.00934  -0.00405   0.00593   0.02132   0.02210
 Alpha virt. eigenvalues --    0.03564   0.04350   0.04998   0.05786   0.05846

 Mulliken charges:
               1
     1  Mg   0.955935
     2  C   -0.048459
     3  C   -0.079758
     4  C   -0.064587
     5  C   -0.069425
     6  N   -0.316385
     7  C    0.039222
     8  C   -0.111712
     9  C   -0.149433
    10  C    0.019046
    11  C    0.032167
    12  C    0.028144
    13  C   -0.020746
    14  C    0.207346
    15  O   -0.291204
    16  O   -0.329820
    17  N   -0.519819
    18  C    0.217622
    19  C   -0.177282
    20  C   -0.051143
    21  C    0.202676
    22  C    0.080371
    23  C    0.023150
    24  O   -0.249001
    25  C    0.015561
    26  N   -0.414987
    27  C    0.022241
    28  C   -0.092854
    29  C   -0.133532
    30  C    0.118361
    31  C    0.028410
    32  C   -0.044369
    33  C   -0.072387
    34  N   -0.522225
    35  C    0.157725
    36  C   -0.201016
    37  C   -0.043844
    38  C    0.194209
    39  C    0.045441
    40  C    0.153082
    41  O   -0.236111
    42  C   -0.113484
    43  C    0.313624
    44  O   -0.238477
    45  O   -0.395670
    46  C    0.111226
    47  C    0.263256
    48  C   -0.145266
    49  C   -0.269898
    50  C    0.038624
    51  C    0.002361
    52  C   -0.043480
    53  C   -0.015705
    54  C   -0.254986
    55  C    0.044910
    56  C   -0.036857
    57  C   -0.075005
    58  C    0.008047
    59  C   -0.263341
    60  C    0.004405
    61  C    0.001773
    62  C   -0.066331
    63  C    0.037614
    64  C   -0.255989
    65  C   -0.031808
    66  C   -0.015553
    67  H    0.005734
    68  H   -0.019306
    69  H    0.016842
    70  H    0.040983
    71  H    0.054186
    72  H    0.042546
    73  H    0.045714
    74  H    0.056834
    75  H    0.074841
    76  H    0.050418
    77  H    0.054838
    78  H    0.069066
    79  H    0.069057
    80  H    0.028231
    81  H    0.067092
    82  H    0.057546
    83  H    0.054930
    84  H    0.079184
    85  H    0.054308
    86  H    0.044079
    87  H    0.040268
    88  H    0.056520
    89  H    0.050030
    90  H    0.058106
    91  H    0.032814
    92  H    0.053712
    93  H    0.034040
    94  H    0.054418
    95  H    0.034628
    96  H    0.043978
    97  H    0.066339
    98  H    0.090040
    99  H    0.056953
   100  H    0.069879
   101  H    0.066501
   102  H    0.070051
   103  H    0.049202
   104  H    0.019767
   105  H    0.055907
   106  H    0.027861
   107  H    0.064271
   108  H    0.039378
   109  H    0.017944
   110  H    0.037748
   111  H    0.024498
   112  H    0.026953
   113  H    0.036389
   114  H    0.033770
   115  H    0.041410
   116  H    0.051466
   117  H    0.033731
   118  H    0.034483
   119  H    0.016233
   120  H    0.030016
   121  H    0.029093
   122  H    0.023825
   123  H    0.025023
   124  H    0.038599
   125  H    0.040735
   126  H    0.023639
   127  H    0.032020
   128  H    0.031542
   129  H    0.036033
   130  H    0.045250
   131  H    0.021467
   132  H    0.020137
   133  H    0.025715
   134  H    0.038353
   135  H    0.034337
   136  H    0.022182
   137  H    0.037723
   138  H    0.037887
   139  H    0.045780
   140  H    0.019633
 Sum of Mulliken charges =  -0.00000

 Dipole moment (field-independent basis, Debye):
    X=              1.3149    Y=              3.8617    Z=              3.2101  Tot=              5.1910
 Quadrupole moment (field-independent basis, Debye-Ang):
   XX=           -427.0357   YY=           -375.9480   ZZ=           -409.7019
   XY=            -38.6505   XZ=            -22.5090   YZ=            -32.9634

 Normal termination of Gaussian 16 at Thu Apr 28 11:20:20 2022.
