 Gaussian 16, Revision A.03,
 Gaussian 16:  ES64L-G16RevA.03 25-Dec-2016

 --------------------------------
 #p wB97XD/Def2SVP td=(nstates=5)
 --------------------------------

 -----------------------------------------------------
 step_1551_chromophore_11 TDDFT with wB97XD functional
 -----------------------------------------------------
 Symbolic Z-matrix:
 Charge =  0 Multiplicity = 1

                         Standard orientation:
 ---------------------------------------------------------------------
 Center     Atomic      Atomic             Coordinates (Angstroms)
 Number     Number       Type             X           Y           Z
 ---------------------------------------------------------------------
      1         12           0       -4.407375    1.537897    0.573347
      2          6           0       -5.855066   -1.777678   -0.018630
      3          6           0       -2.293754    0.005473    2.750857
      4          6           0       -2.672143    4.348765    0.658703
      5          6           0       -6.761652    2.894755   -1.702065
      6          7           0       -3.923425   -0.716811    1.081097
      7          6           0       -4.686240   -1.821513    0.771123
      8          6           0       -4.128322   -3.059024    1.495921
      9          6           0       -3.212374   -2.406490    2.615314
     10          6           0       -3.084617   -0.971560    2.091098
     11          6           0       -3.734462   -2.561298    4.056064
     12          6           0       -3.447940   -4.107094    0.578863
     13          6           0       -2.179404   -3.581613   -0.103711
     14          6           0       -0.840037   -4.302155    0.142075
     15          8           0       -0.541066   -5.431410   -0.314960
     16          8           0       -0.068067   -3.683392    1.073035
     17          7           0       -2.745621    2.139490    1.620135
     18          6           0       -2.033702    1.331904    2.504404
     19          6           0       -1.037436    2.221108    3.185919
     20          6           0       -1.047649    3.450836    2.537970
     21          6           0       -2.161257    3.368918    1.546026
     22          6           0       -0.156055    1.738998    4.247702
     23          6           0       -0.111845    4.669893    2.730865
     24          8           0        0.772216    4.618626    3.584332
     25          6           0       -0.064318    5.900189    1.906988
     26          7           0       -4.468102    3.277733   -0.627154
     27          6           0       -3.794233    4.390664   -0.198154
     28          6           0       -4.299510    5.646176   -0.845842
     29          6           0       -5.626268    5.125293   -1.514096
     30          6           0       -5.617271    3.640749   -1.289228
     31          6           0       -4.533151    6.778772    0.162886
     32          6           0       -5.804457    5.456013   -3.021503
     33          6           0       -7.105955    6.296436   -3.382963
     34          7           0       -5.997251    0.809245   -0.583640
     35          6           0       -6.864374    1.467090   -1.438667
     36          6           0       -7.881820    0.560332   -1.793986
     37          6           0       -7.557182   -0.746801   -1.267863
     38          6           0       -6.362332   -0.583382   -0.559863
     39          6           0       -8.993963    0.896603   -2.722404
     40          6           0       -7.911328   -2.186302   -1.254342
     41          8           0       -8.914946   -2.699598   -1.780328
     42          6           0       -6.849881   -2.936435   -0.273336
     43          6           0       -6.409987   -4.166520   -1.070836
     44          8           0       -5.897948   -4.105401   -2.187779
     45          8           0       -6.679535   -5.313741   -0.282936
     46          6           0       -6.278385   -6.630958   -0.798278
     47          6           0        1.235241   -4.300571    1.177483
     48          6           0        2.127167   -3.806204    0.114244
     49          6           0        3.403403   -4.111492   -0.198736
     50          6           0        4.227068   -5.085776    0.524146
     51          6           0        4.104243   -3.311681   -1.331225
     52          6           0        4.423468   -1.823146   -0.979896
     53          6           0        5.979763   -1.496712   -0.910664
     54          6           0        6.401643   -0.336098   -1.941269
     55          6           0        6.957576   -0.890237   -3.249130
     56          6           0        7.444753    0.571501   -1.140987
     57          6           0        8.835681   -0.067771   -0.935147
     58          6           0        9.451578    0.402896    0.371444
     59          6           0       10.967802   -0.045649    0.487656
     60          6           0       11.274197   -0.496274    1.905889
     61          6           0       11.929258    1.136501    0.182912
     62          6           0       13.300270    0.433183    0.004888
     63          6           0       13.987665    0.815341   -1.315471
     64          6           0       15.523677    1.113136   -1.058568
     65          6           0       15.823668    2.621978   -0.913102
     66          6           0       16.456226    0.527842   -2.129694
     67          1           0       -1.714767   -0.527423    3.508002
     68          1           0       -2.168374    5.316852    0.616771
     69          1           0       -7.634987    3.328115   -2.193206
     70          1           0       -4.949641   -3.641712    1.913758
     71          1           0       -2.236013   -2.889367    2.668314
     72          1           0       -4.049148   -1.570051    4.382269
     73          1           0       -2.841434   -2.815693    4.626230
     74          1           0       -4.563009   -3.266678    4.116049
     75          1           0       -4.133416   -4.512745   -0.165240
     76          1           0       -3.091625   -4.893510    1.244417
     77          1           0       -2.079249   -2.519342    0.117876
     78          1           0       -2.287336   -3.555369   -1.187775
     79          1           0        0.832869    1.584501    3.815849
     80          1           0       -0.480372    0.774805    4.641438
     81          1           0       -0.109864    2.457512    5.065027
     82          1           0        0.610054    6.629504    2.356406
     83          1           0       -1.048127    6.340108    2.069699
     84          1           0        0.102914    5.657296    0.857320
     85          1           0       -3.624744    5.934440   -1.651232
     86          1           0       -6.485435    5.535342   -0.983461
     87          1           0       -5.538223    7.184548    0.042714
     88          1           0       -3.750739    7.505723   -0.052201
     89          1           0       -4.563094    6.318400    1.149635
     90          1           0       -5.841940    4.517820   -3.575679
     91          1           0       -4.935287    6.031182   -3.338050
     92          1           0       -6.773421    7.069483   -4.075293
     93          1           0       -7.430832    6.717080   -2.430993
     94          1           0       -7.902604    5.642048   -3.736364
     95          1           0       -8.914054    1.718798   -3.434270
     96          1           0       -9.884943    1.195772   -2.169777
     97          1           0       -9.210645   -0.031690   -3.248270
     98          1           0       -7.448642   -3.213027    0.594950
     99          1           0       -5.612463   -7.160670   -0.118032
    100          1           0       -5.739504   -6.617533   -1.745443
    101          1           0       -7.185406   -7.225451   -0.914292
    102          1           0        1.237388   -5.384887    1.065501
    103          1           0        1.713858   -4.148289    2.145234
    104          1           0        1.677490   -3.067170   -0.547893
    105          1           0        4.482619   -5.697928   -0.340962
    106          1           0        3.635662   -5.719498    1.183937
    107          1           0        5.033386   -4.548751    1.023531
    108          1           0        3.463402   -3.212156   -2.207257
    109          1           0        4.991191   -3.852001   -1.661357
    110          1           0        3.878060   -1.579830   -0.068036
    111          1           0        4.001571   -1.222223   -1.784621
    112          1           0        6.544080   -2.375831   -1.221478
    113          1           0        6.131507   -1.232207    0.135202
    114          1           0        5.508497    0.278406   -2.052874
    115          1           0        7.776417   -0.190610   -3.414959
    116          1           0        6.077727   -0.886933   -3.893211
    117          1           0        7.328967   -1.896021   -3.058283
    118          1           0        7.060191    1.149888   -0.300260
    119          1           0        7.618505    1.359309   -1.874782
    120          1           0        9.511343    0.153011   -1.761214
    121          1           0        8.756448   -1.154119   -0.893226
    122          1           0        8.850565   -0.013029    1.180307
    123          1           0        9.319895    1.484603    0.371272
    124          1           0       11.113354   -0.887546   -0.190000
    125          1           0       12.098529   -0.006564    2.424863
    126          1           0       11.577896   -1.534775    1.767288
    127          1           0       10.365328   -0.511585    2.508108
    128          1           0       11.992867    1.725794    1.098102
    129          1           0       11.508502    1.718066   -0.636644
    130          1           0       13.333227   -0.631405    0.236741
    131          1           0       13.919256    0.950167    0.737992
    132          1           0       13.561506    1.782774   -1.582789
    133          1           0       13.815268    0.104573   -2.123353
    134          1           0       15.824965    0.730745   -0.083257
    135          1           0       16.834661    2.919054   -1.192070
    136          1           0       15.751944    2.755659    0.166178
    137          1           0       15.140727    3.362358   -1.328331
    138          1           0       17.375437    0.518940   -1.543651
    139          1           0       16.386192    0.951189   -3.132312
    140          1           0       16.213263   -0.518747   -2.313424
 ---------------------------------------------------------------------

 SCF Done:  E(RwB97XD) =  -3007.83384148     A.U. after   19 cycles

 Excitation energies and oscillator strengths:

 Excited State   1:      Singlet-A      1.7060 eV  726.75 nm  f=0.3480  <S**2>=0.000
     245 -> 248       -0.18268
     246 -> 247        0.67977
     245 <- 248       -0.11205
 This state for optimization and/or second-order correction.
 Total Energy, E(TD-HF/TD-DFT) =  -3007.77114713
 Copying the excited state density for this state as the 1-particle RhoCI density.

 Excited State   2:      Singlet-A      2.2379 eV  554.01 nm  f=0.0671  <S**2>=0.000
     245 -> 247        0.60847
     246 -> 248        0.33416

 Excited State   3:      Singlet-A      3.1881 eV  388.90 nm  f=0.0026  <S**2>=0.000
     244 -> 247        0.67115
     244 -> 249        0.10123
     246 -> 248       -0.12923

 Excited State   4:      Singlet-A      3.4469 eV  359.70 nm  f=0.5868  <S**2>=0.000
     239 -> 247        0.13874
     241 -> 247       -0.28055
     245 -> 247       -0.28054
     246 -> 248        0.54977
     245 <- 247        0.10035

 Excited State   5:      Singlet-A      3.5701 eV  347.29 nm  f=0.0126  <S**2>=0.000
     240 -> 247        0.48303
     240 -> 249       -0.39889
     240 -> 250        0.20749
     241 -> 247       -0.10965

 The electronic state is 1-A.
 Alpha  occ. eigenvalues --  -46.95636 -19.31427 -19.30859 -19.25865 -19.24422
 Alpha  occ. eigenvalues --  -19.24244 -19.23828 -14.47496 -14.46704 -14.45249
 Alpha  occ. eigenvalues --  -14.43546 -10.44558 -10.43525 -10.39893 -10.39392
 Alpha  occ. eigenvalues --  -10.36501 -10.36266 -10.36050 -10.35722 -10.35486
 Alpha  occ. eigenvalues --  -10.35359 -10.35009 -10.34901 -10.34086 -10.33728
 Alpha  occ. eigenvalues --  -10.33359 -10.32811 -10.32788 -10.32623 -10.32443
 Alpha  occ. eigenvalues --  -10.32364 -10.32215 -10.32072 -10.31444 -10.31391
 Alpha  occ. eigenvalues --  -10.31294 -10.31206 -10.30997 -10.30748 -10.30718
 Alpha  occ. eigenvalues --  -10.30651 -10.30639 -10.30373 -10.30313 -10.29989
 Alpha  occ. eigenvalues --  -10.29891 -10.29750 -10.29526 -10.29367 -10.29230
 Alpha  occ. eigenvalues --  -10.29029 -10.29015 -10.28877 -10.28747 -10.28604
 Alpha  occ. eigenvalues --  -10.28484 -10.28470 -10.28452 -10.28446 -10.28428
 Alpha  occ. eigenvalues --  -10.28404 -10.28356 -10.28102 -10.27893 -10.27880
 Alpha  occ. eigenvalues --  -10.27615  -3.21550  -1.95111  -1.94710  -1.94493
 Alpha  occ. eigenvalues --   -1.19516  -1.17085  -1.12685  -1.10563  -1.10088
 Alpha  occ. eigenvalues --   -1.08726  -1.06603  -1.06052  -1.05332  -1.02768
 Alpha  occ. eigenvalues --   -0.94012  -0.92040  -0.91702  -0.91447  -0.91367
 Alpha  occ. eigenvalues --   -0.91009  -0.90230  -0.89871  -0.89758  -0.88985
 Alpha  occ. eigenvalues --   -0.87845  -0.86777  -0.86184  -0.85683  -0.85263
 Alpha  occ. eigenvalues --   -0.84772  -0.84472  -0.83433  -0.82841  -0.82679
 Alpha  occ. eigenvalues --   -0.81953  -0.80523  -0.79864  -0.79371  -0.78127
 Alpha  occ. eigenvalues --   -0.77400  -0.77260  -0.77041  -0.76098  -0.75754
 Alpha  occ. eigenvalues --   -0.75100  -0.74373  -0.73992  -0.72740  -0.71006
 Alpha  occ. eigenvalues --   -0.70155  -0.69792  -0.69357  -0.68229  -0.67740
 Alpha  occ. eigenvalues --   -0.67500  -0.67349  -0.67181  -0.66729  -0.65642
 Alpha  occ. eigenvalues --   -0.65150  -0.64881  -0.64206  -0.63047  -0.62121
 Alpha  occ. eigenvalues --   -0.61746  -0.61606  -0.61436  -0.60986  -0.59896
 Alpha  occ. eigenvalues --   -0.59595  -0.59364  -0.58904  -0.57904  -0.57765
 Alpha  occ. eigenvalues --   -0.57425  -0.56807  -0.56116  -0.55939  -0.55827
 Alpha  occ. eigenvalues --   -0.55689  -0.55466  -0.55166  -0.55078  -0.54850
 Alpha  occ. eigenvalues --   -0.54794  -0.54617  -0.54438  -0.54270  -0.53944
 Alpha  occ. eigenvalues --   -0.53627  -0.53222  -0.53181  -0.52708  -0.52631
 Alpha  occ. eigenvalues --   -0.52523  -0.52350  -0.52164  -0.51889  -0.51780
 Alpha  occ. eigenvalues --   -0.51593  -0.51243  -0.51027  -0.50847  -0.50817
 Alpha  occ. eigenvalues --   -0.50635  -0.50493  -0.50255  -0.50084  -0.49813
 Alpha  occ. eigenvalues --   -0.49561  -0.49314  -0.49037  -0.48952  -0.48854
 Alpha  occ. eigenvalues --   -0.48626  -0.48513  -0.48250  -0.48133  -0.47844
 Alpha  occ. eigenvalues --   -0.47510  -0.47090  -0.47065  -0.47024  -0.46783
 Alpha  occ. eigenvalues --   -0.46521  -0.46385  -0.46147  -0.45984  -0.45783
 Alpha  occ. eigenvalues --   -0.45769  -0.45533  -0.45160  -0.44922  -0.44786
 Alpha  occ. eigenvalues --   -0.44728  -0.44450  -0.44352  -0.44304  -0.44081
 Alpha  occ. eigenvalues --   -0.43804  -0.43577  -0.43386  -0.43070  -0.42781
 Alpha  occ. eigenvalues --   -0.42679  -0.42571  -0.42452  -0.42266  -0.41930
 Alpha  occ. eigenvalues --   -0.41535  -0.41433  -0.41208  -0.40819  -0.40778
 Alpha  occ. eigenvalues --   -0.40563  -0.40363  -0.39851  -0.39715  -0.39459
 Alpha  occ. eigenvalues --   -0.39406  -0.38878  -0.38793  -0.38659  -0.38589
 Alpha  occ. eigenvalues --   -0.38426  -0.37224  -0.36940  -0.36289  -0.35841
 Alpha  occ. eigenvalues --   -0.35801  -0.35531  -0.34696  -0.34042  -0.33354
 Alpha  occ. eigenvalues --   -0.33130  -0.32344  -0.30478  -0.30310  -0.26642
 Alpha  occ. eigenvalues --   -0.23235
 Alpha virt. eigenvalues --   -0.07061  -0.00676   0.02041   0.04288   0.04860
 Alpha virt. eigenvalues --    0.05938   0.06468   0.07363   0.08777   0.08849
 Alpha virt. eigenvalues --    0.10345   0.10719   0.11646   0.12361   0.12555

 Mulliken charges:
               1
     1  Mg   0.947797
     2  C   -0.049455
     3  C   -0.090211
     4  C   -0.084463
     5  C   -0.092081
     6  N   -0.278847
     7  C   -0.005453
     8  C   -0.076327
     9  C   -0.128353
    10  C    0.005904
    11  C    0.041511
    12  C    0.043061
    13  C   -0.000093
    14  C    0.195760
    15  O   -0.289218
    16  O   -0.330034
    17  N   -0.492904
    18  C    0.215469
    19  C   -0.162516
    20  C   -0.045319
    21  C    0.204271
    22  C    0.087606
    23  C    0.018323
    24  O   -0.243642
    25  C    0.030112
    26  N   -0.388564
    27  C    0.022392
    28  C   -0.070530
    29  C   -0.107131
    30  C    0.113335
    31  C    0.039798
    32  C   -0.031381
    33  C   -0.053163
    34  N   -0.490360
    35  C    0.143689
    36  C   -0.194655
    37  C   -0.035207
    38  C    0.174588
    39  C    0.053967
    40  C    0.129445
    41  O   -0.229567
    42  C   -0.071956
    43  C    0.290414
    44  O   -0.232697
    45  O   -0.395108
    46  C    0.126308
    47  C    0.286165
    48  C   -0.161625
    49  C   -0.251223
    50  C    0.052742
    51  C    0.017675
    52  C   -0.026940
    53  C   -0.001550
    54  C   -0.227176
    55  C    0.058468
    56  C   -0.016433
    57  C   -0.059272
    58  C    0.024310
    59  C   -0.229039
    60  C    0.013251
    61  C    0.017727
    62  C   -0.047914
    63  C    0.049643
    64  C   -0.222665
    65  C   -0.023262
    66  C   -0.002520
    67  H   -0.000701
    68  H   -0.034021
    69  H    0.009541
    70  H    0.029660
    71  H    0.041726
    72  H    0.035052
    73  H    0.040969
    74  H    0.053638
    75  H    0.060595
    76  H    0.041888
    77  H    0.040078
    78  H    0.065452
    79  H    0.067533
    80  H    0.024776
    81  H    0.065864
    82  H    0.057761
    83  H    0.048446
    84  H    0.075773
    85  H    0.045926
    86  H    0.029403
    87  H    0.035461
    88  H    0.052189
    89  H    0.042360
    90  H    0.049437
    91  H    0.023284
    92  H    0.048335
    93  H    0.025097
    94  H    0.049280
    95  H    0.027510
    96  H    0.035866
    97  H    0.060203
    98  H    0.085029
    99  H    0.052384
   100  H    0.066109
   101  H    0.062773
   102  H    0.062798
   103  H    0.045065
   104  H    0.014470
   105  H    0.049067
   106  H    0.022892
   107  H    0.058619
   108  H    0.032784
   109  H    0.009191
   110  H    0.028509
   111  H    0.015293
   112  H    0.013346
   113  H    0.027711
   114  H    0.022382
   115  H    0.033308
   116  H    0.046814
   117  H    0.027603
   118  H    0.026858
   119  H    0.005123
   120  H    0.020505
   121  H    0.017297
   122  H    0.012903
   123  H    0.015178
   124  H    0.025023
   125  H    0.034491
   126  H    0.017605
   127  H    0.026223
   128  H    0.021549
   129  H    0.027353
   130  H    0.036890
   131  H    0.008340
   132  H    0.007566
   133  H    0.019732
   134  H    0.026317
   135  H    0.029070
   136  H    0.015383
   137  H    0.032388
   138  H    0.031242
   139  H    0.040765
   140  H    0.012798
 Sum of Mulliken charges =  -0.00000

 Dipole moment (field-independent basis, Debye):
    X=              2.1839    Y=              4.1294    Z=              3.8705  Tot=              6.0665
 Quadrupole moment (field-independent basis, Debye-Ang):
   XX=           -433.8601   YY=           -374.8049   ZZ=           -408.5847
   XY=            -38.0502   XZ=            -25.3474   YZ=            -31.7313

 Normal termination of Gaussian 16 at Thu Apr 28 11:50:12 2022.
