 Gaussian 16, Revision A.03,
 Gaussian 16:  ES64L-G16RevA.03 25-Dec-2016

 --------------------
 #p ZINDO=(nstates=5)
 --------------------

 ------------------------------
 step_1551_chromophore_11 ZINDO
 ------------------------------
 Symbolic Z-matrix:
 Charge =  0 Multiplicity = 1

                         Standard orientation:
 ---------------------------------------------------------------------
 Center     Atomic      Atomic             Coordinates (Angstroms)
 Number     Number       Type             X           Y           Z
 ---------------------------------------------------------------------
      1         12           0       -4.407375    1.537897    0.573347
      2          6           0       -5.855066   -1.777678   -0.018630
      3          6           0       -2.293754    0.005473    2.750857
      4          6           0       -2.672143    4.348765    0.658703
      5          6           0       -6.761652    2.894755   -1.702065
      6          7           0       -3.923425   -0.716811    1.081097
      7          6           0       -4.686240   -1.821513    0.771123
      8          6           0       -4.128322   -3.059024    1.495921
      9          6           0       -3.212374   -2.406490    2.615314
     10          6           0       -3.084617   -0.971560    2.091098
     11          6           0       -3.734462   -2.561298    4.056064
     12          6           0       -3.447940   -4.107094    0.578863
     13          6           0       -2.179404   -3.581613   -0.103711
     14          6           0       -0.840037   -4.302155    0.142075
     15          8           0       -0.541066   -5.431410   -0.314960
     16          8           0       -0.068067   -3.683392    1.073035
     17          7           0       -2.745621    2.139490    1.620135
     18          6           0       -2.033702    1.331904    2.504404
     19          6           0       -1.037436    2.221108    3.185919
     20          6           0       -1.047649    3.450836    2.537970
     21          6           0       -2.161257    3.368918    1.546026
     22          6           0       -0.156055    1.738998    4.247702
     23          6           0       -0.111845    4.669893    2.730865
     24          8           0        0.772216    4.618626    3.584332
     25          6           0       -0.064318    5.900189    1.906988
     26          7           0       -4.468102    3.277733   -0.627154
     27          6           0       -3.794233    4.390664   -0.198154
     28          6           0       -4.299510    5.646176   -0.845842
     29          6           0       -5.626268    5.125293   -1.514096
     30          6           0       -5.617271    3.640749   -1.289228
     31          6           0       -4.533151    6.778772    0.162886
     32          6           0       -5.804457    5.456013   -3.021503
     33          6           0       -7.105955    6.296436   -3.382963
     34          7           0       -5.997251    0.809245   -0.583640
     35          6           0       -6.864374    1.467090   -1.438667
     36          6           0       -7.881820    0.560332   -1.793986
     37          6           0       -7.557182   -0.746801   -1.267863
     38          6           0       -6.362332   -0.583382   -0.559863
     39          6           0       -8.993963    0.896603   -2.722404
     40          6           0       -7.911328   -2.186302   -1.254342
     41          8           0       -8.914946   -2.699598   -1.780328
     42          6           0       -6.849881   -2.936435   -0.273336
     43          6           0       -6.409987   -4.166520   -1.070836
     44          8           0       -5.897948   -4.105401   -2.187779
     45          8           0       -6.679535   -5.313741   -0.282936
     46          6           0       -6.278385   -6.630958   -0.798278
     47          6           0        1.235241   -4.300571    1.177483
     48          6           0        2.127167   -3.806204    0.114244
     49          6           0        3.403403   -4.111492   -0.198736
     50          6           0        4.227068   -5.085776    0.524146
     51          6           0        4.104243   -3.311681   -1.331225
     52          6           0        4.423468   -1.823146   -0.979896
     53          6           0        5.979763   -1.496712   -0.910664
     54          6           0        6.401643   -0.336098   -1.941269
     55          6           0        6.957576   -0.890237   -3.249130
     56          6           0        7.444753    0.571501   -1.140987
     57          6           0        8.835681   -0.067771   -0.935147
     58          6           0        9.451578    0.402896    0.371444
     59          6           0       10.967802   -0.045649    0.487656
     60          6           0       11.274197   -0.496274    1.905889
     61          6           0       11.929258    1.136501    0.182912
     62          6           0       13.300270    0.433183    0.004888
     63          6           0       13.987665    0.815341   -1.315471
     64          6           0       15.523677    1.113136   -1.058568
     65          6           0       15.823668    2.621978   -0.913102
     66          6           0       16.456226    0.527842   -2.129694
     67          1           0       -1.714767   -0.527423    3.508002
     68          1           0       -2.168374    5.316852    0.616771
     69          1           0       -7.634987    3.328115   -2.193206
     70          1           0       -4.949641   -3.641712    1.913758
     71          1           0       -2.236013   -2.889367    2.668314
     72          1           0       -4.049148   -1.570051    4.382269
     73          1           0       -2.841434   -2.815693    4.626230
     74          1           0       -4.563009   -3.266678    4.116049
     75          1           0       -4.133416   -4.512745   -0.165240
     76          1           0       -3.091625   -4.893510    1.244417
     77          1           0       -2.079249   -2.519342    0.117876
     78          1           0       -2.287336   -3.555369   -1.187775
     79          1           0        0.832869    1.584501    3.815849
     80          1           0       -0.480372    0.774805    4.641438
     81          1           0       -0.109864    2.457512    5.065027
     82          1           0        0.610054    6.629504    2.356406
     83          1           0       -1.048127    6.340108    2.069699
     84          1           0        0.102914    5.657296    0.857320
     85          1           0       -3.624744    5.934440   -1.651232
     86          1           0       -6.485435    5.535342   -0.983461
     87          1           0       -5.538223    7.184548    0.042714
     88          1           0       -3.750739    7.505723   -0.052201
     89          1           0       -4.563094    6.318400    1.149635
     90          1           0       -5.841940    4.517820   -3.575679
     91          1           0       -4.935287    6.031182   -3.338050
     92          1           0       -6.773421    7.069483   -4.075293
     93          1           0       -7.430832    6.717080   -2.430993
     94          1           0       -7.902604    5.642048   -3.736364
     95          1           0       -8.914054    1.718798   -3.434270
     96          1           0       -9.884943    1.195772   -2.169777
     97          1           0       -9.210645   -0.031690   -3.248270
     98          1           0       -7.448642   -3.213027    0.594950
     99          1           0       -5.612463   -7.160670   -0.118032
    100          1           0       -5.739504   -6.617533   -1.745443
    101          1           0       -7.185406   -7.225451   -0.914292
    102          1           0        1.237388   -5.384887    1.065501
    103          1           0        1.713858   -4.148289    2.145234
    104          1           0        1.677490   -3.067170   -0.547893
    105          1           0        4.482619   -5.697928   -0.340962
    106          1           0        3.635662   -5.719498    1.183937
    107          1           0        5.033386   -4.548751    1.023531
    108          1           0        3.463402   -3.212156   -2.207257
    109          1           0        4.991191   -3.852001   -1.661357
    110          1           0        3.878060   -1.579830   -0.068036
    111          1           0        4.001571   -1.222223   -1.784621
    112          1           0        6.544080   -2.375831   -1.221478
    113          1           0        6.131507   -1.232207    0.135202
    114          1           0        5.508497    0.278406   -2.052874
    115          1           0        7.776417   -0.190610   -3.414959
    116          1           0        6.077727   -0.886933   -3.893211
    117          1           0        7.328967   -1.896021   -3.058283
    118          1           0        7.060191    1.149888   -0.300260
    119          1           0        7.618505    1.359309   -1.874782
    120          1           0        9.511343    0.153011   -1.761214
    121          1           0        8.756448   -1.154119   -0.893226
    122          1           0        8.850565   -0.013029    1.180307
    123          1           0        9.319895    1.484603    0.371272
    124          1           0       11.113354   -0.887546   -0.190000
    125          1           0       12.098529   -0.006564    2.424863
    126          1           0       11.577896   -1.534775    1.767288
    127          1           0       10.365328   -0.511585    2.508108
    128          1           0       11.992867    1.725794    1.098102
    129          1           0       11.508502    1.718066   -0.636644
    130          1           0       13.333227   -0.631405    0.236741
    131          1           0       13.919256    0.950167    0.737992
    132          1           0       13.561506    1.782774   -1.582789
    133          1           0       13.815268    0.104573   -2.123353
    134          1           0       15.824965    0.730745   -0.083257
    135          1           0       16.834661    2.919054   -1.192070
    136          1           0       15.751944    2.755659    0.166178
    137          1           0       15.140727    3.362358   -1.328331
    138          1           0       17.375437    0.518940   -1.543651
    139          1           0       16.386192    0.951189   -3.132312
    140          1           0       16.213263   -0.518747   -2.313424
 ---------------------------------------------------------------------

 SCF Done:  E(RZINDO/S) =  -474.027362276     A.U. after   19 cycles

 Excitation energies and oscillator strengths:

 Excited State   1:      Singlet-A      1.3677 eV  906.54 nm  f=0.4828  <S**2>=0.000
     175 ->178         0.15035
     176 ->177         0.67126
 This state for optimization and/or second-order correction.
 Total Energy, E(CIS/TDA) =  -473.977101785
 Copying the excited state density for this state as the 1-particle RhoCI density.

 Excited State   2:      Singlet-A      1.9353 eV  640.63 nm  f=0.0116  <S**2>=0.000
     175 ->177         0.49947
     176 ->178        -0.46001

 Excited State   3:      Singlet-A      2.8891 eV  429.15 nm  f=0.0092  <S**2>=0.000
     167 ->179         0.14521
     168 ->177         0.27415
     168 ->179         0.46691
     168 ->180        -0.21731
     168 ->184         0.15052
     168 ->185        -0.21098
     168 ->192        -0.10564

 Excited State   4:      Singlet-A      2.9383 eV  421.96 nm  f=1.0507  <S**2>=0.000
     175 ->177         0.42374
     176 ->178         0.48838
     176 ->180        -0.10660

 Excited State   5:      Singlet-A      3.0575 eV  405.51 nm  f=0.0666  <S**2>=0.000
     171 ->177         0.21053
     171 ->178         0.13737
     171 ->179        -0.20048
     171 ->180        -0.32981
     171 ->185         0.18637
     171 ->186        -0.11243
     171 ->188        -0.14943
     176 ->179         0.30863
     176 ->180         0.21061

 The electronic state is 1-A.
 Alpha  occ. eigenvalues --   -1.82454  -1.81169  -1.79180  -1.75309  -1.70797
 Alpha  occ. eigenvalues --   -1.67600  -1.66093  -1.61225  -1.60948  -1.55391
 Alpha  occ. eigenvalues --   -1.55151  -1.52096  -1.48328  -1.46784  -1.46100
 Alpha  occ. eigenvalues --   -1.44311  -1.42626  -1.41053  -1.40063  -1.39627
 Alpha  occ. eigenvalues --   -1.37233  -1.33109  -1.32322  -1.31132  -1.28555
 Alpha  occ. eigenvalues --   -1.27154  -1.26303  -1.23118  -1.21346  -1.17796
 Alpha  occ. eigenvalues --   -1.16684  -1.15282  -1.14703  -1.13815  -1.12097
 Alpha  occ. eigenvalues --   -1.11756  -1.11127  -1.10780  -1.04933  -1.03615
 Alpha  occ. eigenvalues --   -1.02426  -1.00045  -0.99116  -0.98106  -0.97510
 Alpha  occ. eigenvalues --   -0.95298  -0.94203  -0.93096  -0.92822  -0.92325
 Alpha  occ. eigenvalues --   -0.91140  -0.90926  -0.88983  -0.88126  -0.85752
 Alpha  occ. eigenvalues --   -0.84607  -0.83726  -0.83692  -0.81758  -0.79923
 Alpha  occ. eigenvalues --   -0.79517  -0.79043  -0.78174  -0.77403  -0.76869
 Alpha  occ. eigenvalues --   -0.76536  -0.75575  -0.74360  -0.73785  -0.73346
 Alpha  occ. eigenvalues --   -0.73099  -0.72887  -0.71959  -0.71328  -0.70917
 Alpha  occ. eigenvalues --   -0.70585  -0.69491  -0.68580  -0.68156  -0.67939
 Alpha  occ. eigenvalues --   -0.67708  -0.67070  -0.66504  -0.66253  -0.65892
 Alpha  occ. eigenvalues --   -0.65306  -0.65079  -0.64810  -0.64397  -0.64268
 Alpha  occ. eigenvalues --   -0.63813  -0.63675  -0.63103  -0.62601  -0.62135
 Alpha  occ. eigenvalues --   -0.61636  -0.61393  -0.61126  -0.60184  -0.59914
 Alpha  occ. eigenvalues --   -0.59855  -0.59653  -0.59286  -0.58931  -0.58725
 Alpha  occ. eigenvalues --   -0.57888  -0.57598  -0.57134  -0.56355  -0.56059
 Alpha  occ. eigenvalues --   -0.55814  -0.55619  -0.55337  -0.54911  -0.54344
 Alpha  occ. eigenvalues --   -0.54027  -0.53426  -0.53332  -0.53278  -0.52866
 Alpha  occ. eigenvalues --   -0.52750  -0.52375  -0.52104  -0.51904  -0.51392
 Alpha  occ. eigenvalues --   -0.51226  -0.50767  -0.50600  -0.50385  -0.50263
 Alpha  occ. eigenvalues --   -0.49884  -0.49553  -0.49194  -0.48956  -0.48839
 Alpha  occ. eigenvalues --   -0.48831  -0.48575  -0.48304  -0.48252  -0.48095
 Alpha  occ. eigenvalues --   -0.47304  -0.47183  -0.46963  -0.46698  -0.46578
 Alpha  occ. eigenvalues --   -0.46520  -0.46171  -0.46065  -0.45981  -0.45730
 Alpha  occ. eigenvalues --   -0.45388  -0.45324  -0.44593  -0.44358  -0.44167
 Alpha  occ. eigenvalues --   -0.43838  -0.43024  -0.42672  -0.42294  -0.41905
 Alpha  occ. eigenvalues --   -0.41379  -0.41301  -0.40506  -0.39667  -0.38644
 Alpha  occ. eigenvalues --   -0.38342  -0.37281  -0.36441  -0.35140  -0.34980
 Alpha  occ. eigenvalues --   -0.34094  -0.32751  -0.30832  -0.30571  -0.27202
 Alpha  occ. eigenvalues --   -0.22103
 Alpha virt. eigenvalues --   -0.08211  -0.02789  -0.01000   0.01157   0.01181
 Alpha virt. eigenvalues --    0.01790   0.02173   0.02675   0.03973   0.05278
 Alpha virt. eigenvalues --    0.05648   0.06004   0.06689   0.07205   0.07345

 Mulliken charges:
               1
     1  Mg   0.426591
     2  C   -0.006733
     3  C   -0.068695
     4  C   -0.121597
     5  C   -0.086817
     6  N   -0.267932
     7  C    0.071222
     8  C   -0.000382
     9  C    0.002608
    10  C    0.177517
    11  C   -0.049585
    12  C   -0.011391
    13  C    0.004182
    14  C    0.468897
    15  O   -0.529243
    16  O   -0.257349
    17  N   -0.341887
    18  C    0.134205
    19  C    0.083154
    20  C   -0.043359
    21  C    0.167551
    22  C   -0.029788
    23  C    0.326812
    24  O   -0.524789
    25  C   -0.018595
    26  N   -0.282472
    27  C    0.194573
    28  C    0.003258
    29  C   -0.006244
    30  C    0.105371
    31  C   -0.052905
    32  C   -0.039653
    33  C   -0.065100
    34  N   -0.349951
    35  C    0.076439
    36  C   -0.003877
    37  C   -0.054573
    38  C    0.072042
    39  C   -0.046595
    40  C    0.324670
    41  O   -0.525641
    42  C    0.054156
    43  C    0.490337
    44  O   -0.500375
    45  O   -0.279257
    46  C    0.073919
    47  C    0.113730
    48  C   -0.090502
    49  C   -0.011423
    50  C   -0.045134
    51  C   -0.027787
    52  C   -0.043137
    53  C   -0.049365
    54  C   -0.021325
    55  C   -0.059845
    56  C   -0.047995
    57  C   -0.031011
    58  C   -0.044214
    59  C   -0.018663
    60  C   -0.059811
    61  C   -0.035809
    62  C   -0.039556
    63  C   -0.038551
    64  C   -0.013516
    65  C   -0.061735
    66  C   -0.064364
    67  H    0.021588
    68  H    0.014279
    69  H    0.042678
    70  H    0.020380
    71  H    0.031827
    72  H    0.020960
    73  H    0.024169
    74  H    0.035069
    75  H    0.046909
    76  H    0.021916
    77  H    0.029398
    78  H    0.041806
    79  H    0.045480
    80  H    0.020115
    81  H    0.044786
    82  H    0.045572
    83  H    0.030801
    84  H    0.047688
    85  H    0.041045
    86  H    0.029948
    87  H    0.023130
    88  H    0.028657
    89  H    0.028187
    90  H    0.028692
    91  H    0.015098
    92  H    0.026487
    93  H    0.018082
    94  H    0.030293
    95  H    0.021037
    96  H    0.021109
    97  H    0.029491
    98  H    0.060326
    99  H    0.032698
   100  H    0.050913
   101  H    0.038890
   102  H    0.057640
   103  H    0.032980
   104  H    0.020354
   105  H    0.035184
   106  H    0.021609
   107  H    0.038624
   108  H    0.021721
   109  H    0.018404
   110  H    0.023520
   111  H    0.016632
   112  H    0.025041
   113  H    0.022223
   114  H    0.020370
   115  H    0.033811
   116  H    0.030553
   117  H    0.026838
   118  H    0.029567
   119  H   -0.003608
   120  H    0.019426
   121  H    0.014676
   122  H    0.017805
   123  H    0.018980
   124  H    0.026310
   125  H    0.025079
   126  H    0.006632
   127  H    0.019118
   128  H    0.021873
   129  H    0.026786
   130  H    0.033886
   131  H    0.010964
   132  H    0.018078
   133  H    0.025222
   134  H    0.023143
   135  H    0.017681
   136  H    0.006097
   137  H    0.023199
   138  H    0.025290
   139  H    0.033736
   140  H    0.002345
 Sum of Mulliken charges =  -0.00000

 Dipole moment (field-independent basis, Debye):
    X=              4.5974    Y=              6.6158    Z=              7.4703  Tot=             10.9869
 N-N= 4.344663521247D+03 E-N= 0.000000000000D+00  KE=-9.363185040130D+03
 Leave Link  601 at Thu Apr 28 12:03:14 2022, MaxMem=  6710886400 cpu:               0.8 elap:               0.1
 (Enter /sw/apps/gaussian-16.0/g16/l9999.exe)
 1\1\GINC-BP1-COMPUTE148\SP\RZINDO CIS\STO-3G\C55H74Mg1N4O6\OF15641\28-
 Apr-2022\0\\#p ZINDO=(nstates=5)\\step_1551_chromophore_11 ZINDO\\0,1\
 Mg,0,53.674,23.32,44.354\C,0,50.838,25.643,44.346\C,0,51.436,20.9,43.5
 22\C,0,56.247,21.344,43.726\C,0,55.786,26.012,45.278\N,0,51.406,23.336
 ,43.697\C,0,50.502,24.364,43.853\C,0,49.086,23.868,43.511\C,0,49.259,2
 2.292,43.575\C,0,50.786,22.162,43.536\C,0,48.547,21.606,44.756\C,0,48.
 488,24.439,42.2\C,0,49.253,24.002,40.945\C,0,48.509,23.221,39.845\O,0,

 Normal termination of Gaussian 16 at Thu Apr 28 12:03:15 2022.
