 Gaussian 16, Revision A.03,
 Gaussian 16:  ES64L-G16RevA.03 25-Dec-2016

 ------------------------------
 #p blyp/Def2SVP td=(nstates=5)
 ------------------------------

 ---------------------------------------------------
 step_1801_chromophore_24 TDDFT with blyp functional
 ---------------------------------------------------
 Symbolic Z-matrix:
 Charge =  0 Multiplicity = 1

                         Standard orientation:
 ---------------------------------------------------------------------
 Center     Atomic      Atomic             Coordinates (Angstroms)
 Number     Number       Type             X           Y           Z
 ---------------------------------------------------------------------
      1         12           0        5.268756    1.205136    0.026702
      2          6           0        4.585787   -2.328934   -0.221700
      3          6           0        1.914223    1.707999   -0.363510
      4          6           0        6.022012    4.436241    0.216556
      5          6           0        8.686439    0.439557    0.288081
      6          7           0        3.511599   -0.173338   -0.199483
      7          6           0        3.435560   -1.524721   -0.216340
      8          6           0        2.020895   -2.020776   -0.216712
      9          6           0        1.219451   -0.720997   -0.428192
     10          6           0        2.251252    0.362496   -0.361164
     11          6           0        0.284648   -0.646391   -1.645942
     12          6           0        1.786077   -2.872676    1.086675
     13          6           0        1.109423   -4.278747    1.046987
     14          6           0       -0.058812   -4.499845    0.064618
     15          8           0        0.040802   -4.625768   -1.132712
     16          8           0       -1.284090   -4.382512    0.670497
     17          7           0        4.096424    2.911759   -0.182124
     18          6           0        2.749584    2.859569   -0.368444
     19          6           0        2.296591    4.300187   -0.499424
     20          6           0        3.494999    5.114088   -0.343588
     21          6           0        4.658206    4.159061   -0.102734
     22          6           0        0.902295    4.671996   -0.851302
     23          6           0        3.701440    6.716026   -0.385374
     24          8           0        4.817754    7.228346   -0.276857
     25          6           0        2.513672    7.569138   -0.572372
     26          7           0        7.111113    2.313126   -0.013188
     27          6           0        7.151114    3.680091    0.258053
     28          6           0        8.559931    4.185863    0.739579
     29          6           0        9.292672    2.804938    1.010490
     30          6           0        8.300160    1.823191    0.417559
     31          6           0        9.220492    5.107170   -0.378689
     32          6           0        9.443219    2.533466    2.584179
     33          6           0       10.631446    3.191166    3.234338
     34          7           0        6.373027   -0.534040    0.012742
     35          6           0        7.801939   -0.631143   -0.026658
     36          6           0        8.120046   -2.050770   -0.265494
     37          6           0        6.886372   -2.730187   -0.357964
     38          6           0        5.897155   -1.830187   -0.152599
     39          6           0        9.472016   -2.714786   -0.151779
     40          6           0        6.325487   -4.048423   -0.623019
     41          8           0        6.891894   -5.116570   -0.888317
     42          6           0        4.715908   -3.789387   -0.512633
     43          6           0        4.063885   -4.369688   -1.687077
     44          8           0        4.167682   -3.961114   -2.843591
     45          8           0        3.376056   -5.552832   -1.291160
     46          6           0        2.597548   -6.242214   -2.368612
     47          6           0       -2.373903   -4.124539   -0.307973
     48          6           0       -3.707975   -3.860961    0.380468
     49          6           0       -4.907958   -4.439536    0.185067
     50          6           0       -5.309610   -5.430099   -0.910968
     51          6           0       -5.972077   -4.220598    1.264752
     52          6           0       -7.042133   -3.078554    0.984654
     53          6           0       -7.213492   -1.895748    2.020268
     54          6           0       -8.690812   -1.481282    2.174137
     55          6           0       -9.073413   -1.817265    3.645761
     56          6           0       -8.802739    0.069042    1.876104
     57          6           0       -9.690538    0.188420    0.634517
     58          6           0      -11.191859   -0.281524    0.790243
     59          6           0      -12.248671    0.780855    0.902888
     60          6           0      -13.040035    0.724079    2.274184
     61          6           0      -13.254641    0.780495   -0.330235
     62          6           0      -14.025721    2.106736   -0.482564
     63          6           0      -13.568588    3.025594   -1.638688
     64          6           0      -14.435203    4.241399   -2.243251
     65          6           0      -13.566425    5.566580   -2.403007
     66          6           0      -15.790240    4.560886   -1.543244
     67          1           0        0.840340    1.875483   -0.258390
     68          1           0        6.324549    5.455174    0.465900
     69          1           0        9.714751    0.251783    0.602546
     70          1           0        1.820966   -2.647829   -1.085976
     71          1           0        0.564920   -0.497195    0.414325
     72          1           0       -0.690179   -0.281741   -1.324546
     73          1           0        0.096349   -1.605300   -2.128541
     74          1           0        0.603860    0.082269   -2.391285
     75          1           0        1.305790   -2.281508    1.867046
     76          1           0        2.729756   -3.206019    1.519514
     77          1           0        0.868307   -4.382702    2.105072
     78          1           0        1.876868   -5.029408    0.857738
     79          1           0        0.109308    3.940763   -0.694966
     80          1           0        0.906420    4.983157   -1.896064
     81          1           0        0.562202    5.541369   -0.288271
     82          1           0        1.958859    7.457009   -1.503917
     83          1           0        3.016295    8.535667   -0.600858
     84          1           0        1.854257    7.475433    0.290620
     85          1           0        8.489511    4.679699    1.708286
     86          1           0       10.256546    2.825748    0.502866
     87          1           0        8.471479    5.518326   -1.055025
     88          1           0        9.892757    4.402766   -0.868341
     89          1           0        9.835327    5.899819    0.047140
     90          1           0        9.557042    1.467010    2.779464
     91          1           0        8.540704    2.951340    3.030712
     92          1           0       11.302256    3.599804    2.478350
     93          1           0       11.027510    2.351446    3.804651
     94          1           0       10.279106    3.982000    3.897507
     95          1           0       10.054549   -2.112151    0.544156
     96          1           0       10.011420   -2.764811   -1.098839
     97          1           0        9.280338   -3.756739    0.105618
     98          1           0        4.473223   -4.426257    0.338328
     99          1           0        2.420096   -5.589098   -3.222357
    100          1           0        1.699557   -6.552568   -1.833662
    101          1           0        3.029409   -7.186803   -2.699238
    102          1           0       -2.357750   -5.019761   -0.929630
    103          1           0       -2.070702   -3.191509   -0.783966
    104          1           0       -3.678020   -3.199285    1.245572
    105          1           0       -6.134159   -4.954515   -1.441935
    106          1           0       -5.676063   -6.319717   -0.398157
    107          1           0       -4.559940   -5.754343   -1.633215
    108          1           0       -5.449413   -3.993486    2.193060
    109          1           0       -6.491941   -5.175577    1.352965
    110          1           0       -7.986901   -3.541426    0.700865
    111          1           0       -6.622191   -2.664718    0.067076
    112          1           0       -6.689593   -1.041469    1.593008
    113          1           0       -6.738347   -2.140455    2.969524
    114          1           0       -9.409220   -2.020279    1.557183
    115          1           0       -8.472589   -2.676594    3.942779
    116          1           0      -10.149584   -1.977873    3.583670
    117          1           0       -8.823577   -0.949377    4.255275
    118          1           0       -7.883212    0.628822    1.706406
    119          1           0       -9.228419    0.497909    2.783637
    120          1           0       -9.394873   -0.555224   -0.105555
    121          1           0       -9.466556    1.222426    0.370854
    122          1           0      -11.280123   -0.925609    1.664958
    123          1           0      -11.488640   -1.053837    0.080822
    124          1           0      -11.865320    1.800053    0.873352
    125          1           0      -14.035295    0.287790    2.184083
    126          1           0      -13.299056    1.714433    2.649151
    127          1           0      -12.431073    0.201218    3.011221
    128          1           0      -14.069926    0.072390   -0.181894
    129          1           0      -12.916846    0.452433   -1.313437
    130          1           0      -14.027555    2.700548    0.432228
    131          1           0      -15.100767    1.939388   -0.551532
    132          1           0      -13.302274    2.307171   -2.413808
    133          1           0      -12.611651    3.372506   -1.247242
    134          1           0      -14.705632    3.904930   -3.244275
    135          1           0      -13.487446    5.881491   -3.443562
    136          1           0      -12.578684    5.352190   -1.997110
    137          1           0      -13.955954    6.466286   -1.926798
    138          1           0      -15.953233    4.149418   -0.546694
    139          1           0      -16.520853    4.160614   -2.245681
    140          1           0      -16.004659    5.628420   -1.485141
 ---------------------------------------------------------------------

 SCF Done:  E(RB-LYP) =  -3007.36106260     A.U. after   21 cycles

 Excitation energies and oscillator strengths:

 Excited State   1:      Singlet-A      1.7599 eV  704.51 nm  f=0.2893  <S**2>=0.000
     245 -> 248        0.17395
     246 -> 247        0.69341
     246 <- 247       -0.15801
 This state for optimization and/or second-order correction.
 Total Energy, E(TD-HF/TD-DFT) =  -3007.29638834
 Copying the excited state density for this state as the 1-particle RhoCI density.

 Excited State   2:      Singlet-A      1.9606 eV  632.37 nm  f=0.0820  <S**2>=0.000
     243 -> 247       -0.10707
     244 -> 247        0.13744
     245 -> 247        0.63921
     246 -> 248       -0.19891

 Excited State   3:      Singlet-A      2.1259 eV  583.22 nm  f=0.0027  <S**2>=0.000
     243 -> 247        0.23939
     244 -> 247        0.65745

 Excited State   4:      Singlet-A      2.1529 eV  575.89 nm  f=0.0069  <S**2>=0.000
     243 -> 247        0.65345
     244 -> 247       -0.21648
     245 -> 247        0.12018

 Excited State   5:      Singlet-A      2.4438 eV  507.35 nm  f=0.0006  <S**2>=0.000
     241 -> 247       -0.20932
     242 -> 247        0.66330

 The electronic state is 1-A.
 Alpha  occ. eigenvalues --  -46.26821 -18.81692 -18.80907 -18.77402 -18.76400
 Alpha  occ. eigenvalues --  -18.76283 -18.76258 -14.03096 -14.02971 -14.01373
 Alpha  occ. eigenvalues --  -14.00541 -10.04326 -10.03194 -10.00540 -10.00132
 Alpha  occ. eigenvalues --   -9.98197  -9.96509  -9.96432  -9.96326  -9.96095
 Alpha  occ. eigenvalues --   -9.96056  -9.95965  -9.95910  -9.95835  -9.94408
 Alpha  occ. eigenvalues --   -9.94317  -9.94109  -9.94077  -9.93962  -9.93805
 Alpha  occ. eigenvalues --   -9.93749  -9.93721  -9.93632  -9.93625  -9.93509
 Alpha  occ. eigenvalues --   -9.93350  -9.93108  -9.93094  -9.93006  -9.92969
 Alpha  occ. eigenvalues --   -9.92943  -9.92942  -9.92928  -9.92523  -9.92500
 Alpha  occ. eigenvalues --   -9.92461  -9.92217  -9.92165  -9.92118  -9.92095
 Alpha  occ. eigenvalues --   -9.91975  -9.91959  -9.91956  -9.91867  -9.91841
 Alpha  occ. eigenvalues --   -9.91747  -9.91503  -9.91464  -9.91397  -9.91186
 Alpha  occ. eigenvalues --   -9.91148  -9.91129  -9.90902  -9.90853  -9.90836
 Alpha  occ. eigenvalues --   -9.90550  -2.91406  -1.71843  -1.71306  -1.71096
 Alpha  occ. eigenvalues --   -0.98344  -0.94829  -0.91472  -0.90684  -0.90197
 Alpha  occ. eigenvalues --   -0.88084  -0.86262  -0.85543  -0.84316  -0.83775
 Alpha  occ. eigenvalues --   -0.75272  -0.73692  -0.73038  -0.72569  -0.72277
 Alpha  occ. eigenvalues --   -0.71778  -0.71566  -0.70813  -0.70005  -0.69552
 Alpha  occ. eigenvalues --   -0.69105  -0.68920  -0.67828  -0.67507  -0.66954
 Alpha  occ. eigenvalues --   -0.66497  -0.66190  -0.65381  -0.64892  -0.64270
 Alpha  occ. eigenvalues --   -0.64132  -0.62492  -0.61832  -0.61385  -0.60816
 Alpha  occ. eigenvalues --   -0.60086  -0.60050  -0.59850  -0.59529  -0.59020
 Alpha  occ. eigenvalues --   -0.58537  -0.57284  -0.56545  -0.55594  -0.53931
 Alpha  occ. eigenvalues --   -0.53711  -0.53338  -0.52635  -0.51996  -0.51533
 Alpha  occ. eigenvalues --   -0.51184  -0.50860  -0.50769  -0.50300  -0.50113
 Alpha  occ. eigenvalues --   -0.49255  -0.48797  -0.48180  -0.47154  -0.46668
 Alpha  occ. eigenvalues --   -0.46004  -0.45897  -0.45346  -0.45004  -0.44187
 Alpha  occ. eigenvalues --   -0.43877  -0.43592  -0.43448  -0.42818  -0.42154
 Alpha  occ. eigenvalues --   -0.42101  -0.41654  -0.41322  -0.41182  -0.41113
 Alpha  occ. eigenvalues --   -0.40834  -0.40434  -0.40290  -0.39951  -0.39781
 Alpha  occ. eigenvalues --   -0.39742  -0.39634  -0.39537  -0.39332  -0.39098
 Alpha  occ. eigenvalues --   -0.38745  -0.38558  -0.38485  -0.38222  -0.37983
 Alpha  occ. eigenvalues --   -0.37814  -0.37641  -0.37459  -0.37408  -0.37278
 Alpha  occ. eigenvalues --   -0.36783  -0.36699  -0.36493  -0.36320  -0.36114
 Alpha  occ. eigenvalues --   -0.36092  -0.35974  -0.35807  -0.35765  -0.35520
 Alpha  occ. eigenvalues --   -0.35435  -0.35308  -0.35095  -0.34982  -0.34728
 Alpha  occ. eigenvalues --   -0.34652  -0.34412  -0.34279  -0.33999  -0.33950
 Alpha  occ. eigenvalues --   -0.33735  -0.33672  -0.33604  -0.33089  -0.33000
 Alpha  occ. eigenvalues --   -0.32991  -0.32730  -0.32575  -0.32403  -0.32276
 Alpha  occ. eigenvalues --   -0.32095  -0.31912  -0.31499  -0.31387  -0.31219
 Alpha  occ. eigenvalues --   -0.31013  -0.30866  -0.30775  -0.30565  -0.30430
 Alpha  occ. eigenvalues --   -0.30350  -0.30284  -0.29925  -0.29880  -0.29658
 Alpha  occ. eigenvalues --   -0.29475  -0.29416  -0.29285  -0.29213  -0.29188
 Alpha  occ. eigenvalues --   -0.28981  -0.28774  -0.28725  -0.28463  -0.28041
 Alpha  occ. eigenvalues --   -0.27954  -0.27871  -0.26690  -0.26516  -0.26352
 Alpha  occ. eigenvalues --   -0.26116  -0.26008  -0.25476  -0.25392  -0.25276
 Alpha  occ. eigenvalues --   -0.25173  -0.24831  -0.23797  -0.23711  -0.23577
 Alpha  occ. eigenvalues --   -0.23209  -0.22518  -0.21926  -0.21196  -0.20820
 Alpha  occ. eigenvalues --   -0.20191  -0.19860  -0.19261  -0.19141  -0.17001
 Alpha  occ. eigenvalues --   -0.15522
 Alpha virt. eigenvalues --   -0.11455  -0.06589  -0.06092  -0.04881  -0.03381
 Alpha virt. eigenvalues --   -0.02653  -0.02509  -0.02038  -0.01242  -0.00038
 Alpha virt. eigenvalues --    0.00830   0.01652   0.02175   0.02624   0.02687

 Mulliken charges:
               1
     1  Mg   0.673002
     2  C    0.056784
     3  C   -0.072706
     4  C   -0.007523
     5  C   -0.072769
     6  N   -0.187516
     7  C   -0.130126
     8  C    0.080851
     9  C    0.013294
    10  C    0.024912
    11  C    0.116913
    12  C    0.079261
    13  C    0.134030
    14  C    0.096045
    15  O   -0.195352
    16  O   -0.285568
    17  N   -0.298982
    18  C    0.141301
    19  C   -0.143212
    20  C   -0.007047
    21  C    0.129807
    22  C    0.159340
    23  C   -0.045926
    24  O   -0.167159
    25  C    0.114996
    26  N   -0.225633
    27  C   -0.028813
    28  C    0.011276
    29  C    0.010927
    30  C    0.016317
    31  C    0.129747
    32  C    0.036432
    33  C    0.100853
    34  N   -0.313509
    35  C    0.177531
    36  C   -0.194694
    37  C    0.098104
    38  C    0.076638
    39  C    0.178773
    40  C   -0.046289
    41  O   -0.132977
    42  C    0.043816
    43  C    0.141085
    44  O   -0.182156
    45  O   -0.317792
    46  C    0.214037
    47  C    0.326939
    48  C   -0.080948
    49  C   -0.166746
    50  C    0.147987
    51  C    0.112561
    52  C    0.042644
    53  C    0.152813
    54  C   -0.147162
    55  C    0.111389
    56  C    0.110638
    57  C    0.080746
    58  C    0.136816
    59  C   -0.050107
    60  C    0.089329
    61  C    0.111216
    62  C    0.020570
    63  C    0.073601
    64  C   -0.046305
    65  C    0.077808
    66  C    0.094010
    67  H   -0.060841
    68  H   -0.047106
    69  H   -0.054075
    70  H    0.002195
    71  H   -0.029185
    72  H   -0.023046
    73  H    0.013453
    74  H   -0.006594
    75  H   -0.018466
    76  H   -0.009091
    77  H   -0.019372
    78  H    0.005657
    79  H   -0.011905
    80  H    0.011255
    81  H   -0.015810
    82  H    0.016604
    83  H   -0.008122
    84  H    0.022346
    85  H   -0.021757
    86  H   -0.024767
    87  H    0.018964
    88  H   -0.012870
    89  H   -0.001675
    90  H   -0.015304
    91  H   -0.013847
    92  H   -0.005245
    93  H   -0.003871
    94  H   -0.005597
    95  H   -0.005733
    96  H    0.000010
    97  H    0.008620
    98  H   -0.004814
    99  H    0.029940
   100  H    0.011012
   101  H    0.007398
   102  H    0.001957
   103  H   -0.005369
   104  H   -0.042911
   105  H   -0.000370
   106  H   -0.001306
   107  H   -0.006596
   108  H   -0.024346
   109  H   -0.031244
   110  H   -0.024857
   111  H   -0.026886
   112  H   -0.037728
   113  H   -0.029588
   114  H   -0.015658
   115  H   -0.010803
   116  H   -0.011615
   117  H   -0.011881
   118  H   -0.027336
   119  H   -0.041677
   120  H   -0.024129
   121  H   -0.024940
   122  H   -0.058460
   123  H   -0.046570
   124  H   -0.025949
   125  H   -0.019667
   126  H   -0.018018
   127  H   -0.008580
   128  H   -0.046664
   129  H   -0.037159
   130  H   -0.039882
   131  H   -0.042517
   132  H   -0.037141
   133  H   -0.034430
   134  H   -0.028433
   135  H   -0.014812
   136  H   -0.014572
   137  H   -0.016302
   138  H   -0.000255
   139  H   -0.018995
   140  H   -0.020795
 Sum of Mulliken charges =  -0.00000

 Dipole moment (field-independent basis, Debye):
    X=             -5.1020    Y=              2.2366    Z=              4.0154  Tot=              6.8671
 Quadrupole moment (field-independent basis, Debye-Ang):
   XX=           -384.4338   YY=           -427.8807   ZZ=           -410.3553
   XY=             29.2494   XZ=             29.5388   YZ=             -6.1624

 Normal termination of Gaussian 16 at Fri Apr 29 02:19:30 2022.
