 Gaussian 16, Revision A.03,
 Gaussian 16:  ES64L-G16RevA.03 25-Dec-2016

 -----------------------------------
 #p cam-b3lyp/Def2SVP td=(nstates=5)
 -----------------------------------

 --------------------------------------------------------
 step_1801_chromophore_24 TDDFT with cam-b3lyp functional
 --------------------------------------------------------
 Symbolic Z-matrix:
 Charge =  0 Multiplicity = 1

                         Standard orientation:
 ---------------------------------------------------------------------
 Center     Atomic      Atomic             Coordinates (Angstroms)
 Number     Number       Type             X           Y           Z
 ---------------------------------------------------------------------
      1         12           0        5.268756    1.205136    0.026702
      2          6           0        4.585787   -2.328934   -0.221700
      3          6           0        1.914223    1.707999   -0.363510
      4          6           0        6.022012    4.436241    0.216556
      5          6           0        8.686439    0.439557    0.288081
      6          7           0        3.511599   -0.173338   -0.199483
      7          6           0        3.435560   -1.524721   -0.216340
      8          6           0        2.020895   -2.020776   -0.216712
      9          6           0        1.219451   -0.720997   -0.428192
     10          6           0        2.251252    0.362496   -0.361164
     11          6           0        0.284648   -0.646391   -1.645942
     12          6           0        1.786077   -2.872676    1.086675
     13          6           0        1.109423   -4.278747    1.046987
     14          6           0       -0.058812   -4.499845    0.064618
     15          8           0        0.040802   -4.625768   -1.132712
     16          8           0       -1.284090   -4.382512    0.670497
     17          7           0        4.096424    2.911759   -0.182124
     18          6           0        2.749584    2.859569   -0.368444
     19          6           0        2.296591    4.300187   -0.499424
     20          6           0        3.494999    5.114088   -0.343588
     21          6           0        4.658206    4.159061   -0.102734
     22          6           0        0.902295    4.671996   -0.851302
     23          6           0        3.701440    6.716026   -0.385374
     24          8           0        4.817754    7.228346   -0.276857
     25          6           0        2.513672    7.569138   -0.572372
     26          7           0        7.111113    2.313126   -0.013188
     27          6           0        7.151114    3.680091    0.258053
     28          6           0        8.559931    4.185863    0.739579
     29          6           0        9.292672    2.804938    1.010490
     30          6           0        8.300160    1.823191    0.417559
     31          6           0        9.220492    5.107170   -0.378689
     32          6           0        9.443219    2.533466    2.584179
     33          6           0       10.631446    3.191166    3.234338
     34          7           0        6.373027   -0.534040    0.012742
     35          6           0        7.801939   -0.631143   -0.026658
     36          6           0        8.120046   -2.050770   -0.265494
     37          6           0        6.886372   -2.730187   -0.357964
     38          6           0        5.897155   -1.830187   -0.152599
     39          6           0        9.472016   -2.714786   -0.151779
     40          6           0        6.325487   -4.048423   -0.623019
     41          8           0        6.891894   -5.116570   -0.888317
     42          6           0        4.715908   -3.789387   -0.512633
     43          6           0        4.063885   -4.369688   -1.687077
     44          8           0        4.167682   -3.961114   -2.843591
     45          8           0        3.376056   -5.552832   -1.291160
     46          6           0        2.597548   -6.242214   -2.368612
     47          6           0       -2.373903   -4.124539   -0.307973
     48          6           0       -3.707975   -3.860961    0.380468
     49          6           0       -4.907958   -4.439536    0.185067
     50          6           0       -5.309610   -5.430099   -0.910968
     51          6           0       -5.972077   -4.220598    1.264752
     52          6           0       -7.042133   -3.078554    0.984654
     53          6           0       -7.213492   -1.895748    2.020268
     54          6           0       -8.690812   -1.481282    2.174137
     55          6           0       -9.073413   -1.817265    3.645761
     56          6           0       -8.802739    0.069042    1.876104
     57          6           0       -9.690538    0.188420    0.634517
     58          6           0      -11.191859   -0.281524    0.790243
     59          6           0      -12.248671    0.780855    0.902888
     60          6           0      -13.040035    0.724079    2.274184
     61          6           0      -13.254641    0.780495   -0.330235
     62          6           0      -14.025721    2.106736   -0.482564
     63          6           0      -13.568588    3.025594   -1.638688
     64          6           0      -14.435203    4.241399   -2.243251
     65          6           0      -13.566425    5.566580   -2.403007
     66          6           0      -15.790240    4.560886   -1.543244
     67          1           0        0.840340    1.875483   -0.258390
     68          1           0        6.324549    5.455174    0.465900
     69          1           0        9.714751    0.251783    0.602546
     70          1           0        1.820966   -2.647829   -1.085976
     71          1           0        0.564920   -0.497195    0.414325
     72          1           0       -0.690179   -0.281741   -1.324546
     73          1           0        0.096349   -1.605300   -2.128541
     74          1           0        0.603860    0.082269   -2.391285
     75          1           0        1.305790   -2.281508    1.867046
     76          1           0        2.729756   -3.206019    1.519514
     77          1           0        0.868307   -4.382702    2.105072
     78          1           0        1.876868   -5.029408    0.857738
     79          1           0        0.109308    3.940763   -0.694966
     80          1           0        0.906420    4.983157   -1.896064
     81          1           0        0.562202    5.541369   -0.288271
     82          1           0        1.958859    7.457009   -1.503917
     83          1           0        3.016295    8.535667   -0.600858
     84          1           0        1.854257    7.475433    0.290620
     85          1           0        8.489511    4.679699    1.708286
     86          1           0       10.256546    2.825748    0.502866
     87          1           0        8.471479    5.518326   -1.055025
     88          1           0        9.892757    4.402766   -0.868341
     89          1           0        9.835327    5.899819    0.047140
     90          1           0        9.557042    1.467010    2.779464
     91          1           0        8.540704    2.951340    3.030712
     92          1           0       11.302256    3.599804    2.478350
     93          1           0       11.027510    2.351446    3.804651
     94          1           0       10.279106    3.982000    3.897507
     95          1           0       10.054549   -2.112151    0.544156
     96          1           0       10.011420   -2.764811   -1.098839
     97          1           0        9.280338   -3.756739    0.105618
     98          1           0        4.473223   -4.426257    0.338328
     99          1           0        2.420096   -5.589098   -3.222357
    100          1           0        1.699557   -6.552568   -1.833662
    101          1           0        3.029409   -7.186803   -2.699238
    102          1           0       -2.357750   -5.019761   -0.929630
    103          1           0       -2.070702   -3.191509   -0.783966
    104          1           0       -3.678020   -3.199285    1.245572
    105          1           0       -6.134159   -4.954515   -1.441935
    106          1           0       -5.676063   -6.319717   -0.398157
    107          1           0       -4.559940   -5.754343   -1.633215
    108          1           0       -5.449413   -3.993486    2.193060
    109          1           0       -6.491941   -5.175577    1.352965
    110          1           0       -7.986901   -3.541426    0.700865
    111          1           0       -6.622191   -2.664718    0.067076
    112          1           0       -6.689593   -1.041469    1.593008
    113          1           0       -6.738347   -2.140455    2.969524
    114          1           0       -9.409220   -2.020279    1.557183
    115          1           0       -8.472589   -2.676594    3.942779
    116          1           0      -10.149584   -1.977873    3.583670
    117          1           0       -8.823577   -0.949377    4.255275
    118          1           0       -7.883212    0.628822    1.706406
    119          1           0       -9.228419    0.497909    2.783637
    120          1           0       -9.394873   -0.555224   -0.105555
    121          1           0       -9.466556    1.222426    0.370854
    122          1           0      -11.280123   -0.925609    1.664958
    123          1           0      -11.488640   -1.053837    0.080822
    124          1           0      -11.865320    1.800053    0.873352
    125          1           0      -14.035295    0.287790    2.184083
    126          1           0      -13.299056    1.714433    2.649151
    127          1           0      -12.431073    0.201218    3.011221
    128          1           0      -14.069926    0.072390   -0.181894
    129          1           0      -12.916846    0.452433   -1.313437
    130          1           0      -14.027555    2.700548    0.432228
    131          1           0      -15.100767    1.939388   -0.551532
    132          1           0      -13.302274    2.307171   -2.413808
    133          1           0      -12.611651    3.372506   -1.247242
    134          1           0      -14.705632    3.904930   -3.244275
    135          1           0      -13.487446    5.881491   -3.443562
    136          1           0      -12.578684    5.352190   -1.997110
    137          1           0      -13.955954    6.466286   -1.926798
    138          1           0      -15.953233    4.149418   -0.546694
    139          1           0      -16.520853    4.160614   -2.245681
    140          1           0      -16.004659    5.628420   -1.485141
 ---------------------------------------------------------------------

 SCF Done:  E(RCAM-B3LYP) =  -3007.13502669     A.U. after   19 cycles

 Excitation energies and oscillator strengths:

 Excited State   1:      Singlet-A      1.6414 eV  755.37 nm  f=0.3701  <S**2>=0.000
     245 -> 248       -0.17487
     246 -> 247        0.68709
     245 <- 248       -0.11028
 This state for optimization and/or second-order correction.
 Total Energy, E(TD-HF/TD-DFT) =  -3007.07470751
 Copying the excited state density for this state as the 1-particle RhoCI density.

 Excited State   2:      Singlet-A      2.1933 eV  565.29 nm  f=0.1219  <S**2>=0.000
     245 -> 247        0.64205
     246 -> 248        0.28188

 Excited State   3:      Singlet-A      3.2261 eV  384.32 nm  f=0.0019  <S**2>=0.000
     243 -> 247        0.32969
     244 -> 247        0.59384
     246 -> 248       -0.14096

 Excited State   4:      Singlet-A      3.4521 eV  359.16 nm  f=0.0843  <S**2>=0.000
     243 -> 247        0.49066
     244 -> 247       -0.35124
     246 -> 248       -0.33223

 Excited State   5:      Singlet-A      3.5141 eV  352.82 nm  f=0.2048  <S**2>=0.000
     240 -> 247        0.34928
     240 -> 249       -0.18947
     240 -> 250       -0.13550
     241 -> 247        0.32268
     241 -> 249       -0.14199
     243 -> 247       -0.24443
     245 -> 247        0.14427
     246 -> 248       -0.27113

 The electronic state is 1-A.
 Alpha  occ. eigenvalues --  -46.88329 -19.24537 -19.23932 -19.20452 -19.19731
 Alpha  occ. eigenvalues --  -19.19534 -19.19425 -14.42036 -14.41819 -14.39793
 Alpha  occ. eigenvalues --  -14.38970 -10.39659 -10.38916 -10.35772 -10.35731
 Alpha  occ. eigenvalues --  -10.32340 -10.31127 -10.30952 -10.30677 -10.30391
 Alpha  occ. eigenvalues --  -10.30358 -10.30240 -10.30211 -10.30035 -10.28755
 Alpha  occ. eigenvalues --  -10.28450 -10.28389 -10.28250 -10.28143 -10.28124
 Alpha  occ. eigenvalues --  -10.28057 -10.27888 -10.27854 -10.27778 -10.27735
 Alpha  occ. eigenvalues --  -10.27492 -10.27338 -10.27186 -10.27016 -10.26846
 Alpha  occ. eigenvalues --  -10.26739 -10.26720 -10.26643 -10.26268 -10.26258
 Alpha  occ. eigenvalues --  -10.26178 -10.26103 -10.26057 -10.25892 -10.25837
 Alpha  occ. eigenvalues --  -10.25823 -10.25749 -10.25718 -10.25559 -10.25485
 Alpha  occ. eigenvalues --  -10.25435 -10.25172 -10.25120 -10.25091 -10.24874
 Alpha  occ. eigenvalues --  -10.24810 -10.24781 -10.24730 -10.24590 -10.24486
 Alpha  occ. eigenvalues --  -10.24445  -3.16818  -1.91733  -1.91287  -1.91106
 Alpha  occ. eigenvalues --   -1.16870  -1.13466  -1.09790  -1.09189  -1.08050
 Alpha  occ. eigenvalues --   -1.06067  -1.04009  -1.03220  -1.01771  -1.01319
 Alpha  occ. eigenvalues --   -0.92494  -0.90549  -0.89833  -0.89311  -0.88959
 Alpha  occ. eigenvalues --   -0.88453  -0.88171  -0.87401  -0.86517  -0.86048
 Alpha  occ. eigenvalues --   -0.85658  -0.85313  -0.84043  -0.83676  -0.83166
 Alpha  occ. eigenvalues --   -0.82571  -0.82382  -0.81332  -0.80816  -0.80073
 Alpha  occ. eigenvalues --   -0.79893  -0.78192  -0.77404  -0.76903  -0.76168
 Alpha  occ. eigenvalues --   -0.75417  -0.75365  -0.75203  -0.74793  -0.74256
 Alpha  occ. eigenvalues --   -0.73611  -0.72331  -0.71441  -0.70394  -0.68525
 Alpha  occ. eigenvalues --   -0.68295  -0.67908  -0.67028  -0.66297  -0.65764
 Alpha  occ. eigenvalues --   -0.65371  -0.64968  -0.64909  -0.64350  -0.64078
 Alpha  occ. eigenvalues --   -0.63121  -0.62596  -0.62006  -0.60939  -0.60320
 Alpha  occ. eigenvalues --   -0.59599  -0.59467  -0.58692  -0.58400  -0.57734
 Alpha  occ. eigenvalues --   -0.57418  -0.56816  -0.56724  -0.55998  -0.55290
 Alpha  occ. eigenvalues --   -0.54858  -0.54803  -0.54278  -0.54089  -0.53849
 Alpha  occ. eigenvalues --   -0.53701  -0.53351  -0.53067  -0.52755  -0.52401
 Alpha  occ. eigenvalues --   -0.52305  -0.52251  -0.52146  -0.52001  -0.51570
 Alpha  occ. eigenvalues --   -0.51499  -0.51115  -0.50851  -0.50665  -0.50597
 Alpha  occ. eigenvalues --   -0.50437  -0.50148  -0.49725  -0.49647  -0.49526
 Alpha  occ. eigenvalues --   -0.49359  -0.49028  -0.48852  -0.48765  -0.48560
 Alpha  occ. eigenvalues --   -0.48396  -0.48162  -0.47994  -0.47738  -0.47599
 Alpha  occ. eigenvalues --   -0.47503  -0.47434  -0.47106  -0.46948  -0.46697
 Alpha  occ. eigenvalues --   -0.46421  -0.46393  -0.46125  -0.45921  -0.45691
 Alpha  occ. eigenvalues --   -0.45669  -0.45429  -0.45211  -0.44854  -0.44690
 Alpha  occ. eigenvalues --   -0.44503  -0.44473  -0.44311  -0.44253  -0.44014
 Alpha  occ. eigenvalues --   -0.43639  -0.43435  -0.43053  -0.42919  -0.42672
 Alpha  occ. eigenvalues --   -0.42613  -0.42428  -0.42369  -0.42167  -0.41943
 Alpha  occ. eigenvalues --   -0.41808  -0.41611  -0.41578  -0.41123  -0.41047
 Alpha  occ. eigenvalues --   -0.40738  -0.40587  -0.40515  -0.40455  -0.40218
 Alpha  occ. eigenvalues --   -0.40159  -0.39835  -0.39787  -0.39683  -0.39011
 Alpha  occ. eigenvalues --   -0.38854  -0.38765  -0.37480  -0.37408  -0.37287
 Alpha  occ. eigenvalues --   -0.37154  -0.36777  -0.36665  -0.36341  -0.35985
 Alpha  occ. eigenvalues --   -0.35718  -0.35397  -0.35247  -0.34635  -0.34371
 Alpha  occ. eigenvalues --   -0.34154  -0.33847  -0.32760  -0.31316  -0.31133
 Alpha  occ. eigenvalues --   -0.30739  -0.30498  -0.29464  -0.29144  -0.23806
 Alpha  occ. eigenvalues --   -0.20748
 Alpha virt. eigenvalues --   -0.08613  -0.01338   0.00486   0.02097   0.03323
 Alpha virt. eigenvalues --    0.04375   0.04830   0.05045   0.05548   0.06655
 Alpha virt. eigenvalues --    0.07684   0.08098   0.08789   0.08891   0.09192

 Mulliken charges:
               1
     1  Mg   0.806095
     2  C    0.024243
     3  C   -0.084854
     4  C   -0.026652
     5  C   -0.078241
     6  N   -0.259122
     7  C   -0.080029
     8  C    0.021373
     9  C   -0.040506
    10  C    0.044305
    11  C    0.058146
    12  C    0.032267
    13  C    0.069529
    14  C    0.170572
    15  O   -0.236148
    16  O   -0.348826
    17  N   -0.386107
    18  C    0.150555
    19  C   -0.154092
    20  C   -0.068434
    21  C    0.149452
    22  C    0.102091
    23  C    0.035833
    24  O   -0.208387
    25  C    0.029962
    26  N   -0.291521
    27  C   -0.016665
    28  C   -0.036905
    29  C   -0.047056
    30  C    0.032654
    31  C    0.075229
    32  C   -0.012603
    33  C    0.037838
    34  N   -0.402012
    35  C    0.179306
    36  C   -0.180481
    37  C    0.012618
    38  C    0.117270
    39  C    0.125214
    40  C    0.058001
    41  O   -0.171401
    42  C   -0.033867
    43  C    0.228499
    44  O   -0.217821
    45  O   -0.383383
    46  C    0.179719
    47  C    0.294775
    48  C   -0.102604
    49  C   -0.190088
    50  C    0.088807
    51  C    0.053946
    52  C   -0.006894
    53  C    0.098286
    54  C   -0.205190
    55  C    0.059718
    56  C    0.060807
    57  C    0.023849
    58  C    0.077366
    59  C   -0.103332
    60  C    0.035736
    61  C    0.055748
    62  C   -0.033458
    63  C    0.030624
    64  C   -0.109791
    65  C    0.021101
    66  C    0.035451
    67  H   -0.026806
    68  H   -0.008716
    69  H   -0.018915
    70  H    0.036499
    71  H    0.006465
    72  H    0.000714
    73  H    0.035807
    74  H    0.021403
    75  H    0.012281
    76  H    0.020906
    77  H    0.017151
    78  H    0.035221
    79  H    0.015096
    80  H    0.036342
    81  H    0.008572
    82  H    0.044478
    83  H    0.027225
    84  H    0.048179
    85  H    0.011964
    86  H    0.009955
    87  H    0.043795
    88  H    0.009492
    89  H    0.022130
    90  H    0.012870
    91  H    0.013558
    92  H    0.017168
    93  H    0.019532
    94  H    0.017791
    95  H    0.017030
    96  H    0.028378
    97  H    0.036155
    98  H    0.037924
    99  H    0.055257
   100  H    0.032088
   101  H    0.029212
   102  H    0.031274
   103  H    0.020858
   104  H   -0.008472
   105  H    0.022670
   106  H    0.022318
   107  H    0.018428
   108  H    0.005460
   109  H   -0.001083
   110  H    0.002004
   111  H    0.001337
   112  H   -0.008129
   113  H   -0.001842
   114  H    0.012059
   115  H    0.012688
   116  H    0.009784
   117  H    0.010806
   118  H    0.001626
   119  H   -0.013657
   120  H    0.003443
   121  H    0.003197
   122  H   -0.030803
   123  H   -0.014851
   124  H    0.003816
   125  H    0.004175
   126  H    0.005650
   127  H    0.013041
   128  H   -0.016309
   129  H   -0.007378
   130  H   -0.013619
   131  H   -0.013616
   132  H   -0.010137
   133  H   -0.009801
   134  H    0.004264
   135  H    0.008720
   136  H    0.008678
   137  H    0.007053
   138  H    0.020801
   139  H    0.004740
   140  H    0.004092
 Sum of Mulliken charges =  -0.00000

 Dipole moment (field-independent basis, Debye):
    X=             -5.1942    Y=              2.2632    Z=              4.1518  Tot=              7.0242
 Quadrupole moment (field-independent basis, Debye-Ang):
   XX=           -382.0036   YY=           -424.5259   ZZ=           -410.6537
   XY=             28.1749   XZ=             31.0769   YZ=             -6.1748

 Normal termination of Gaussian 16 at Fri Apr 29 01:26:52 2022.
