 Gaussian 16, Revision A.03,
 Gaussian 16:  ES64L-G16RevA.03 25-Dec-2016

 ---------------------------------
 #p PBE1PBE/Def2SVP td=(nstates=5)
 ---------------------------------

 ------------------------------------------------------
 step_1801_chromophore_24 TDDFT with PBE1PBE functional
 ------------------------------------------------------
 Symbolic Z-matrix:
 Charge =  0 Multiplicity = 1

                         Standard orientation:
 ---------------------------------------------------------------------
 Center     Atomic      Atomic             Coordinates (Angstroms)
 Number     Number       Type             X           Y           Z
 ---------------------------------------------------------------------
      1         12           0        5.268756    1.205136    0.026702
      2          6           0        4.585787   -2.328934   -0.221700
      3          6           0        1.914223    1.707999   -0.363510
      4          6           0        6.022012    4.436241    0.216556
      5          6           0        8.686439    0.439557    0.288081
      6          7           0        3.511599   -0.173338   -0.199483
      7          6           0        3.435560   -1.524721   -0.216340
      8          6           0        2.020895   -2.020776   -0.216712
      9          6           0        1.219451   -0.720997   -0.428192
     10          6           0        2.251252    0.362496   -0.361164
     11          6           0        0.284648   -0.646391   -1.645942
     12          6           0        1.786077   -2.872676    1.086675
     13          6           0        1.109423   -4.278747    1.046987
     14          6           0       -0.058812   -4.499845    0.064618
     15          8           0        0.040802   -4.625768   -1.132712
     16          8           0       -1.284090   -4.382512    0.670497
     17          7           0        4.096424    2.911759   -0.182124
     18          6           0        2.749584    2.859569   -0.368444
     19          6           0        2.296591    4.300187   -0.499424
     20          6           0        3.494999    5.114088   -0.343588
     21          6           0        4.658206    4.159061   -0.102734
     22          6           0        0.902295    4.671996   -0.851302
     23          6           0        3.701440    6.716026   -0.385374
     24          8           0        4.817754    7.228346   -0.276857
     25          6           0        2.513672    7.569138   -0.572372
     26          7           0        7.111113    2.313126   -0.013188
     27          6           0        7.151114    3.680091    0.258053
     28          6           0        8.559931    4.185863    0.739579
     29          6           0        9.292672    2.804938    1.010490
     30          6           0        8.300160    1.823191    0.417559
     31          6           0        9.220492    5.107170   -0.378689
     32          6           0        9.443219    2.533466    2.584179
     33          6           0       10.631446    3.191166    3.234338
     34          7           0        6.373027   -0.534040    0.012742
     35          6           0        7.801939   -0.631143   -0.026658
     36          6           0        8.120046   -2.050770   -0.265494
     37          6           0        6.886372   -2.730187   -0.357964
     38          6           0        5.897155   -1.830187   -0.152599
     39          6           0        9.472016   -2.714786   -0.151779
     40          6           0        6.325487   -4.048423   -0.623019
     41          8           0        6.891894   -5.116570   -0.888317
     42          6           0        4.715908   -3.789387   -0.512633
     43          6           0        4.063885   -4.369688   -1.687077
     44          8           0        4.167682   -3.961114   -2.843591
     45          8           0        3.376056   -5.552832   -1.291160
     46          6           0        2.597548   -6.242214   -2.368612
     47          6           0       -2.373903   -4.124539   -0.307973
     48          6           0       -3.707975   -3.860961    0.380468
     49          6           0       -4.907958   -4.439536    0.185067
     50          6           0       -5.309610   -5.430099   -0.910968
     51          6           0       -5.972077   -4.220598    1.264752
     52          6           0       -7.042133   -3.078554    0.984654
     53          6           0       -7.213492   -1.895748    2.020268
     54          6           0       -8.690812   -1.481282    2.174137
     55          6           0       -9.073413   -1.817265    3.645761
     56          6           0       -8.802739    0.069042    1.876104
     57          6           0       -9.690538    0.188420    0.634517
     58          6           0      -11.191859   -0.281524    0.790243
     59          6           0      -12.248671    0.780855    0.902888
     60          6           0      -13.040035    0.724079    2.274184
     61          6           0      -13.254641    0.780495   -0.330235
     62          6           0      -14.025721    2.106736   -0.482564
     63          6           0      -13.568588    3.025594   -1.638688
     64          6           0      -14.435203    4.241399   -2.243251
     65          6           0      -13.566425    5.566580   -2.403007
     66          6           0      -15.790240    4.560886   -1.543244
     67          1           0        0.840340    1.875483   -0.258390
     68          1           0        6.324549    5.455174    0.465900
     69          1           0        9.714751    0.251783    0.602546
     70          1           0        1.820966   -2.647829   -1.085976
     71          1           0        0.564920   -0.497195    0.414325
     72          1           0       -0.690179   -0.281741   -1.324546
     73          1           0        0.096349   -1.605300   -2.128541
     74          1           0        0.603860    0.082269   -2.391285
     75          1           0        1.305790   -2.281508    1.867046
     76          1           0        2.729756   -3.206019    1.519514
     77          1           0        0.868307   -4.382702    2.105072
     78          1           0        1.876868   -5.029408    0.857738
     79          1           0        0.109308    3.940763   -0.694966
     80          1           0        0.906420    4.983157   -1.896064
     81          1           0        0.562202    5.541369   -0.288271
     82          1           0        1.958859    7.457009   -1.503917
     83          1           0        3.016295    8.535667   -0.600858
     84          1           0        1.854257    7.475433    0.290620
     85          1           0        8.489511    4.679699    1.708286
     86          1           0       10.256546    2.825748    0.502866
     87          1           0        8.471479    5.518326   -1.055025
     88          1           0        9.892757    4.402766   -0.868341
     89          1           0        9.835327    5.899819    0.047140
     90          1           0        9.557042    1.467010    2.779464
     91          1           0        8.540704    2.951340    3.030712
     92          1           0       11.302256    3.599804    2.478350
     93          1           0       11.027510    2.351446    3.804651
     94          1           0       10.279106    3.982000    3.897507
     95          1           0       10.054549   -2.112151    0.544156
     96          1           0       10.011420   -2.764811   -1.098839
     97          1           0        9.280338   -3.756739    0.105618
     98          1           0        4.473223   -4.426257    0.338328
     99          1           0        2.420096   -5.589098   -3.222357
    100          1           0        1.699557   -6.552568   -1.833662
    101          1           0        3.029409   -7.186803   -2.699238
    102          1           0       -2.357750   -5.019761   -0.929630
    103          1           0       -2.070702   -3.191509   -0.783966
    104          1           0       -3.678020   -3.199285    1.245572
    105          1           0       -6.134159   -4.954515   -1.441935
    106          1           0       -5.676063   -6.319717   -0.398157
    107          1           0       -4.559940   -5.754343   -1.633215
    108          1           0       -5.449413   -3.993486    2.193060
    109          1           0       -6.491941   -5.175577    1.352965
    110          1           0       -7.986901   -3.541426    0.700865
    111          1           0       -6.622191   -2.664718    0.067076
    112          1           0       -6.689593   -1.041469    1.593008
    113          1           0       -6.738347   -2.140455    2.969524
    114          1           0       -9.409220   -2.020279    1.557183
    115          1           0       -8.472589   -2.676594    3.942779
    116          1           0      -10.149584   -1.977873    3.583670
    117          1           0       -8.823577   -0.949377    4.255275
    118          1           0       -7.883212    0.628822    1.706406
    119          1           0       -9.228419    0.497909    2.783637
    120          1           0       -9.394873   -0.555224   -0.105555
    121          1           0       -9.466556    1.222426    0.370854
    122          1           0      -11.280123   -0.925609    1.664958
    123          1           0      -11.488640   -1.053837    0.080822
    124          1           0      -11.865320    1.800053    0.873352
    125          1           0      -14.035295    0.287790    2.184083
    126          1           0      -13.299056    1.714433    2.649151
    127          1           0      -12.431073    0.201218    3.011221
    128          1           0      -14.069926    0.072390   -0.181894
    129          1           0      -12.916846    0.452433   -1.313437
    130          1           0      -14.027555    2.700548    0.432228
    131          1           0      -15.100767    1.939388   -0.551532
    132          1           0      -13.302274    2.307171   -2.413808
    133          1           0      -12.611651    3.372506   -1.247242
    134          1           0      -14.705632    3.904930   -3.244275
    135          1           0      -13.487446    5.881491   -3.443562
    136          1           0      -12.578684    5.352190   -1.997110
    137          1           0      -13.955954    6.466286   -1.926798
    138          1           0      -15.953233    4.149418   -0.546694
    139          1           0      -16.520853    4.160614   -2.245681
    140          1           0      -16.004659    5.628420   -1.485141
 ---------------------------------------------------------------------

 SCF Done:  E(RPBE1PBE) =  -3005.32333251     A.U. after   16 cycles

 Excitation energies and oscillator strengths:

 Excited State   1:      Singlet-A      1.8030 eV  687.64 nm  f=0.3583  <S**2>=0.000
     245 -> 248        0.16677
     246 -> 247        0.69533
     246 <- 247       -0.11521
 This state for optimization and/or second-order correction.
 Total Energy, E(TD-HF/TD-DFT) =  -3005.25707210
 Copying the excited state density for this state as the 1-particle RhoCI density.

 Excited State   2:      Singlet-A      2.1972 eV  564.27 nm  f=0.1185  <S**2>=0.000
     245 -> 247        0.65370
     246 -> 248       -0.25214

 Excited State   3:      Singlet-A      2.9415 eV  421.50 nm  f=0.0004  <S**2>=0.000
     244 -> 247        0.69307

 Excited State   4:      Singlet-A      3.0719 eV  403.60 nm  f=0.0064  <S**2>=0.000
     241 -> 247       -0.22755
     243 -> 247        0.64515

 Excited State   5:      Singlet-A      3.0926 eV  400.90 nm  f=0.0020  <S**2>=0.000
     240 -> 247       -0.10874
     241 -> 247        0.58750
     241 -> 249       -0.13864
     242 -> 247        0.15693
     243 -> 247        0.22971
     246 -> 248        0.14308

 The electronic state is 1-A.
 Alpha  occ. eigenvalues --  -46.91724 -19.25213 -19.24561 -19.20684 -19.19876
 Alpha  occ. eigenvalues --  -19.19714 -19.19673 -14.41502 -14.41350 -14.39488
 Alpha  occ. eigenvalues --  -14.38672 -10.36663 -10.35839 -10.32958 -10.32854
 Alpha  occ. eigenvalues --  -10.29712 -10.28770 -10.28575 -10.28551 -10.28154
 Alpha  occ. eigenvalues --  -10.28116 -10.28051 -10.28008 -10.27242 -10.26608
 Alpha  occ. eigenvalues --  -10.26261 -10.25991 -10.25964 -10.25783 -10.25698
 Alpha  occ. eigenvalues --  -10.25691 -10.25637 -10.25626 -10.25559 -10.25302
 Alpha  occ. eigenvalues --  -10.25267 -10.25119 -10.24769 -10.24720 -10.24439
 Alpha  occ. eigenvalues --  -10.24347 -10.24346 -10.24025 -10.23976 -10.23854
 Alpha  occ. eigenvalues --  -10.23729 -10.23626 -10.23515 -10.23491 -10.23477
 Alpha  occ. eigenvalues --  -10.23398 -10.23247 -10.23145 -10.23061 -10.23049
 Alpha  occ. eigenvalues --  -10.22973 -10.22760 -10.22725 -10.22694 -10.22445
 Alpha  occ. eigenvalues --  -10.22363 -10.22232 -10.22166 -10.22133 -10.21897
 Alpha  occ. eigenvalues --  -10.21841  -3.13796  -1.86652  -1.86182  -1.86007
 Alpha  occ. eigenvalues --   -1.11652  -1.08116  -1.04587  -1.03839  -1.02906
 Alpha  occ. eigenvalues --   -1.00830  -0.98595  -0.97800  -0.96468  -0.95947
 Alpha  occ. eigenvalues --   -0.86794  -0.84667  -0.83961  -0.83541  -0.83215
 Alpha  occ. eigenvalues --   -0.82573  -0.82522  -0.81730  -0.80616  -0.80340
 Alpha  occ. eigenvalues --   -0.79899  -0.79584  -0.78205  -0.77927  -0.77448
 Alpha  occ. eigenvalues --   -0.76800  -0.76582  -0.75578  -0.75056  -0.74406
 Alpha  occ. eigenvalues --   -0.74083  -0.72433  -0.71755  -0.71235  -0.70352
 Alpha  occ. eigenvalues --   -0.69743  -0.69516  -0.69294  -0.69147  -0.68429
 Alpha  occ. eigenvalues --   -0.67905  -0.66746  -0.65852  -0.64736  -0.62810
 Alpha  occ. eigenvalues --   -0.62633  -0.62282  -0.61291  -0.60715  -0.59998
 Alpha  occ. eigenvalues --   -0.59836  -0.59351  -0.59125  -0.58922  -0.58658
 Alpha  occ. eigenvalues --   -0.57326  -0.57119  -0.56244  -0.55453  -0.54701
 Alpha  occ. eigenvalues --   -0.54139  -0.53945  -0.53347  -0.53017  -0.52227
 Alpha  occ. eigenvalues --   -0.51848  -0.51298  -0.51114  -0.50620  -0.49847
 Alpha  occ. eigenvalues --   -0.49437  -0.49346  -0.48816  -0.48580  -0.48339
 Alpha  occ. eigenvalues --   -0.48148  -0.47805  -0.47551  -0.47433  -0.46938
 Alpha  occ. eigenvalues --   -0.46839  -0.46760  -0.46654  -0.46494  -0.46135
 Alpha  occ. eigenvalues --   -0.46028  -0.45696  -0.45369  -0.45185  -0.45111
 Alpha  occ. eigenvalues --   -0.44953  -0.44720  -0.44333  -0.44274  -0.44110
 Alpha  occ. eigenvalues --   -0.43984  -0.43605  -0.43482  -0.43297  -0.43125
 Alpha  occ. eigenvalues --   -0.42917  -0.42779  -0.42646  -0.42365  -0.42239
 Alpha  occ. eigenvalues --   -0.42155  -0.42024  -0.41791  -0.41636  -0.41467
 Alpha  occ. eigenvalues --   -0.41167  -0.41044  -0.40794  -0.40625  -0.40429
 Alpha  occ. eigenvalues --   -0.40273  -0.40189  -0.39898  -0.39635  -0.39471
 Alpha  occ. eigenvalues --   -0.39210  -0.39127  -0.39042  -0.38928  -0.38770
 Alpha  occ. eigenvalues --   -0.38418  -0.38209  -0.37892  -0.37729  -0.37438
 Alpha  occ. eigenvalues --   -0.37346  -0.37213  -0.37198  -0.36953  -0.36791
 Alpha  occ. eigenvalues --   -0.36656  -0.36485  -0.36359  -0.36049  -0.35825
 Alpha  occ. eigenvalues --   -0.35642  -0.35461  -0.35382  -0.35272  -0.35082
 Alpha  occ. eigenvalues --   -0.35021  -0.34665  -0.34571  -0.34560  -0.33840
 Alpha  occ. eigenvalues --   -0.33755  -0.33594  -0.32517  -0.32288  -0.32108
 Alpha  occ. eigenvalues --   -0.32051  -0.31726  -0.31683  -0.31411  -0.30868
 Alpha  occ. eigenvalues --   -0.30598  -0.30279  -0.30116  -0.29644  -0.29401
 Alpha  occ. eigenvalues --   -0.29100  -0.28750  -0.28169  -0.26674  -0.26107
 Alpha  occ. eigenvalues --   -0.25858  -0.25801  -0.25096  -0.24776  -0.20711
 Alpha  occ. eigenvalues --   -0.18412
 Alpha virt. eigenvalues --   -0.11053  -0.04857  -0.03778  -0.02311  -0.00231
 Alpha virt. eigenvalues --    0.00216   0.00462   0.00599   0.01287   0.02941
 Alpha virt. eigenvalues --    0.03843   0.04201   0.05157   0.05587   0.05642

 Mulliken charges:
               1
     1  Mg   0.957579
     2  C    0.008195
     3  C   -0.077126
     4  C   -0.030732
     5  C   -0.063719
     6  N   -0.365961
     7  C   -0.011297
     8  C   -0.048314
     9  C   -0.117113
    10  C    0.082396
    11  C    0.001887
    12  C   -0.013585
    13  C   -0.006505
    14  C    0.231869
    15  O   -0.267930
    16  O   -0.378048
    17  N   -0.504437
    18  C    0.184115
    19  C   -0.191663
    20  C   -0.106825
    21  C    0.186950
    22  C    0.043467
    23  C    0.083183
    24  O   -0.243661
    25  C   -0.040155
    26  N   -0.387073
    27  C    0.010568
    28  C   -0.106062
    29  C   -0.121184
    30  C    0.061515
    31  C    0.017623
    32  C   -0.071201
    33  C   -0.032282
    34  N   -0.520604
    35  C    0.193576
    36  C   -0.195176
    37  C   -0.035860
    38  C    0.164458
    39  C    0.067132
    40  C    0.151617
    41  O   -0.218320
    42  C   -0.134744
    43  C    0.314777
    44  O   -0.253468
    45  O   -0.414382
    46  C    0.127200
    47  C    0.249442
    48  C   -0.113425
    49  C   -0.234786
    50  C    0.026536
    51  C   -0.008944
    52  C   -0.066382
    53  C    0.043451
    54  C   -0.290957
    55  C   -0.002198
    56  C    0.012652
    57  C   -0.050177
    58  C    0.025734
    59  C   -0.189424
    60  C   -0.022751
    61  C    0.004433
    62  C   -0.099082
    63  C   -0.018386
    64  C   -0.203269
    65  C   -0.039727
    66  C   -0.024320
    67  H    0.005802
    68  H    0.024010
    69  H    0.011141
    70  H    0.078026
    71  H    0.044386
    72  H    0.027630
    73  H    0.062552
    74  H    0.049303
    75  H    0.043168
    76  H    0.055521
    77  H    0.049652
    78  H    0.068582
    79  H    0.041730
    80  H    0.064957
    81  H    0.037163
    82  H    0.070193
    83  H    0.054843
    84  H    0.074302
    85  H    0.048499
    86  H    0.044102
    87  H    0.070494
    88  H    0.038081
    89  H    0.049817
    90  H    0.045638
    91  H    0.046191
    92  H    0.044490
    93  H    0.047026
    94  H    0.045177
    95  H    0.043760
    96  H    0.056287
    97  H    0.063260
    98  H    0.075672
    99  H    0.075014
   100  H    0.054104
   101  H    0.051275
   102  H    0.057428
   103  H    0.050818
   104  H    0.021274
   105  H    0.051167
   106  H    0.049373
   107  H    0.044900
   108  H    0.037361
   109  H    0.032225
   110  H    0.032861
   111  H    0.036373
   112  H    0.025288
   113  H    0.028584
   114  H    0.048159
   115  H    0.041390
   116  H    0.037971
   117  H    0.038401
   118  H    0.031902
   119  H    0.019824
   120  H    0.038660
   121  H    0.034491
   122  H    0.003849
   123  H    0.016315
   124  H    0.043275
   125  H    0.031108
   126  H    0.032232
   127  H    0.040374
   128  H    0.017278
   129  H    0.023462
   130  H    0.020030
   131  H    0.019741
   132  H    0.022593
   133  H    0.022851
   134  H    0.042107
   135  H    0.035990
   136  H    0.035552
   137  H    0.033310
   138  H    0.046646
   139  H    0.032335
   140  H    0.031550
 Sum of Mulliken charges =  -0.00000

 Dipole moment (field-independent basis, Debye):
    X=             -5.3316    Y=              2.5143    Z=              4.2410  Tot=              7.2618
 Quadrupole moment (field-independent basis, Debye-Ang):
   XX=           -377.4372   YY=           -421.1856   ZZ=           -408.1822
   XY=             29.8816   XZ=             31.9365   YZ=             -6.0591

 Normal termination of Gaussian 16 at Fri Apr 29 01:42:43 2022.
