 Gaussian 16, Revision A.03,
 Gaussian 16:  ES64L-G16RevA.03 25-Dec-2016

 --------------------------------
 #p wB97XD/Def2SVP td=(nstates=5)
 --------------------------------

 -----------------------------------------------------
 step_1801_chromophore_24 TDDFT with wB97XD functional
 -----------------------------------------------------
 Symbolic Z-matrix:
 Charge =  0 Multiplicity = 1

                         Standard orientation:
 ---------------------------------------------------------------------
 Center     Atomic      Atomic             Coordinates (Angstroms)
 Number     Number       Type             X           Y           Z
 ---------------------------------------------------------------------
      1         12           0        5.268756    1.205136    0.026702
      2          6           0        4.585787   -2.328934   -0.221700
      3          6           0        1.914223    1.707999   -0.363510
      4          6           0        6.022012    4.436241    0.216556
      5          6           0        8.686439    0.439557    0.288081
      6          7           0        3.511599   -0.173338   -0.199483
      7          6           0        3.435560   -1.524721   -0.216340
      8          6           0        2.020895   -2.020776   -0.216712
      9          6           0        1.219451   -0.720997   -0.428192
     10          6           0        2.251252    0.362496   -0.361164
     11          6           0        0.284648   -0.646391   -1.645942
     12          6           0        1.786077   -2.872676    1.086675
     13          6           0        1.109423   -4.278747    1.046987
     14          6           0       -0.058812   -4.499845    0.064618
     15          8           0        0.040802   -4.625768   -1.132712
     16          8           0       -1.284090   -4.382512    0.670497
     17          7           0        4.096424    2.911759   -0.182124
     18          6           0        2.749584    2.859569   -0.368444
     19          6           0        2.296591    4.300187   -0.499424
     20          6           0        3.494999    5.114088   -0.343588
     21          6           0        4.658206    4.159061   -0.102734
     22          6           0        0.902295    4.671996   -0.851302
     23          6           0        3.701440    6.716026   -0.385374
     24          8           0        4.817754    7.228346   -0.276857
     25          6           0        2.513672    7.569138   -0.572372
     26          7           0        7.111113    2.313126   -0.013188
     27          6           0        7.151114    3.680091    0.258053
     28          6           0        8.559931    4.185863    0.739579
     29          6           0        9.292672    2.804938    1.010490
     30          6           0        8.300160    1.823191    0.417559
     31          6           0        9.220492    5.107170   -0.378689
     32          6           0        9.443219    2.533466    2.584179
     33          6           0       10.631446    3.191166    3.234338
     34          7           0        6.373027   -0.534040    0.012742
     35          6           0        7.801939   -0.631143   -0.026658
     36          6           0        8.120046   -2.050770   -0.265494
     37          6           0        6.886372   -2.730187   -0.357964
     38          6           0        5.897155   -1.830187   -0.152599
     39          6           0        9.472016   -2.714786   -0.151779
     40          6           0        6.325487   -4.048423   -0.623019
     41          8           0        6.891894   -5.116570   -0.888317
     42          6           0        4.715908   -3.789387   -0.512633
     43          6           0        4.063885   -4.369688   -1.687077
     44          8           0        4.167682   -3.961114   -2.843591
     45          8           0        3.376056   -5.552832   -1.291160
     46          6           0        2.597548   -6.242214   -2.368612
     47          6           0       -2.373903   -4.124539   -0.307973
     48          6           0       -3.707975   -3.860961    0.380468
     49          6           0       -4.907958   -4.439536    0.185067
     50          6           0       -5.309610   -5.430099   -0.910968
     51          6           0       -5.972077   -4.220598    1.264752
     52          6           0       -7.042133   -3.078554    0.984654
     53          6           0       -7.213492   -1.895748    2.020268
     54          6           0       -8.690812   -1.481282    2.174137
     55          6           0       -9.073413   -1.817265    3.645761
     56          6           0       -8.802739    0.069042    1.876104
     57          6           0       -9.690538    0.188420    0.634517
     58          6           0      -11.191859   -0.281524    0.790243
     59          6           0      -12.248671    0.780855    0.902888
     60          6           0      -13.040035    0.724079    2.274184
     61          6           0      -13.254641    0.780495   -0.330235
     62          6           0      -14.025721    2.106736   -0.482564
     63          6           0      -13.568588    3.025594   -1.638688
     64          6           0      -14.435203    4.241399   -2.243251
     65          6           0      -13.566425    5.566580   -2.403007
     66          6           0      -15.790240    4.560886   -1.543244
     67          1           0        0.840340    1.875483   -0.258390
     68          1           0        6.324549    5.455174    0.465900
     69          1           0        9.714751    0.251783    0.602546
     70          1           0        1.820966   -2.647829   -1.085976
     71          1           0        0.564920   -0.497195    0.414325
     72          1           0       -0.690179   -0.281741   -1.324546
     73          1           0        0.096349   -1.605300   -2.128541
     74          1           0        0.603860    0.082269   -2.391285
     75          1           0        1.305790   -2.281508    1.867046
     76          1           0        2.729756   -3.206019    1.519514
     77          1           0        0.868307   -4.382702    2.105072
     78          1           0        1.876868   -5.029408    0.857738
     79          1           0        0.109308    3.940763   -0.694966
     80          1           0        0.906420    4.983157   -1.896064
     81          1           0        0.562202    5.541369   -0.288271
     82          1           0        1.958859    7.457009   -1.503917
     83          1           0        3.016295    8.535667   -0.600858
     84          1           0        1.854257    7.475433    0.290620
     85          1           0        8.489511    4.679699    1.708286
     86          1           0       10.256546    2.825748    0.502866
     87          1           0        8.471479    5.518326   -1.055025
     88          1           0        9.892757    4.402766   -0.868341
     89          1           0        9.835327    5.899819    0.047140
     90          1           0        9.557042    1.467010    2.779464
     91          1           0        8.540704    2.951340    3.030712
     92          1           0       11.302256    3.599804    2.478350
     93          1           0       11.027510    2.351446    3.804651
     94          1           0       10.279106    3.982000    3.897507
     95          1           0       10.054549   -2.112151    0.544156
     96          1           0       10.011420   -2.764811   -1.098839
     97          1           0        9.280338   -3.756739    0.105618
     98          1           0        4.473223   -4.426257    0.338328
     99          1           0        2.420096   -5.589098   -3.222357
    100          1           0        1.699557   -6.552568   -1.833662
    101          1           0        3.029409   -7.186803   -2.699238
    102          1           0       -2.357750   -5.019761   -0.929630
    103          1           0       -2.070702   -3.191509   -0.783966
    104          1           0       -3.678020   -3.199285    1.245572
    105          1           0       -6.134159   -4.954515   -1.441935
    106          1           0       -5.676063   -6.319717   -0.398157
    107          1           0       -4.559940   -5.754343   -1.633215
    108          1           0       -5.449413   -3.993486    2.193060
    109          1           0       -6.491941   -5.175577    1.352965
    110          1           0       -7.986901   -3.541426    0.700865
    111          1           0       -6.622191   -2.664718    0.067076
    112          1           0       -6.689593   -1.041469    1.593008
    113          1           0       -6.738347   -2.140455    2.969524
    114          1           0       -9.409220   -2.020279    1.557183
    115          1           0       -8.472589   -2.676594    3.942779
    116          1           0      -10.149584   -1.977873    3.583670
    117          1           0       -8.823577   -0.949377    4.255275
    118          1           0       -7.883212    0.628822    1.706406
    119          1           0       -9.228419    0.497909    2.783637
    120          1           0       -9.394873   -0.555224   -0.105555
    121          1           0       -9.466556    1.222426    0.370854
    122          1           0      -11.280123   -0.925609    1.664958
    123          1           0      -11.488640   -1.053837    0.080822
    124          1           0      -11.865320    1.800053    0.873352
    125          1           0      -14.035295    0.287790    2.184083
    126          1           0      -13.299056    1.714433    2.649151
    127          1           0      -12.431073    0.201218    3.011221
    128          1           0      -14.069926    0.072390   -0.181894
    129          1           0      -12.916846    0.452433   -1.313437
    130          1           0      -14.027555    2.700548    0.432228
    131          1           0      -15.100767    1.939388   -0.551532
    132          1           0      -13.302274    2.307171   -2.413808
    133          1           0      -12.611651    3.372506   -1.247242
    134          1           0      -14.705632    3.904930   -3.244275
    135          1           0      -13.487446    5.881491   -3.443562
    136          1           0      -12.578684    5.352190   -1.997110
    137          1           0      -13.955954    6.466286   -1.926798
    138          1           0      -15.953233    4.149418   -0.546694
    139          1           0      -16.520853    4.160614   -2.245681
    140          1           0      -16.004659    5.628420   -1.485141
 ---------------------------------------------------------------------

 SCF Done:  E(RwB97XD) =  -3007.83138914     A.U. after   19 cycles

 Excitation energies and oscillator strengths:

 Excited State   1:      Singlet-A      1.5825 eV  783.49 nm  f=0.3692  <S**2>=0.000
     245 -> 248       -0.18065
     246 -> 247        0.68473
     245 <- 248       -0.11988
 This state for optimization and/or second-order correction.
 Total Energy, E(TD-HF/TD-DFT) =  -3007.77323490
 Copying the excited state density for this state as the 1-particle RhoCI density.

 Excited State   2:      Singlet-A      2.1345 eV  580.85 nm  f=0.1179  <S**2>=0.000
     245 -> 247        0.63983
     246 -> 248        0.28434

 Excited State   3:      Singlet-A      3.2256 eV  384.37 nm  f=0.0033  <S**2>=0.000
     243 -> 247       -0.42139
     244 -> 247        0.52219
     246 -> 248        0.16324

 Excited State   4:      Singlet-A      3.4911 eV  355.15 nm  f=0.2236  <S**2>=0.000
     243 -> 247       -0.32450
     244 -> 247       -0.39501
     245 -> 247       -0.15474
     246 -> 248        0.42628

 Excited State   5:      Singlet-A      3.5423 eV  350.01 nm  f=0.1099  <S**2>=0.000
     239 -> 247        0.15049
     239 -> 249       -0.11504
     240 -> 247       -0.27637
     240 -> 249        0.15819
     240 -> 250        0.10300
     241 -> 247        0.35528
     241 -> 249       -0.17898
     241 -> 250       -0.11303
     243 -> 247       -0.29609
     244 -> 247       -0.16004
     245 -> 247        0.10556
     246 -> 248       -0.15868

 The electronic state is 1-A.
 Alpha  occ. eigenvalues --  -46.94672 -19.29776 -19.29184 -19.25360 -19.24839
 Alpha  occ. eigenvalues --  -19.24491 -19.24406 -14.46654 -14.46419 -14.44340
 Alpha  occ. eigenvalues --  -14.43637 -10.43459 -10.42791 -10.39863 -10.39670
 Alpha  occ. eigenvalues --  -10.36230 -10.35169 -10.34993 -10.34679 -10.34512
 Alpha  occ. eigenvalues --  -10.34339 -10.34230 -10.34218 -10.33810 -10.32854
 Alpha  occ. eigenvalues --  -10.32493 -10.32456 -10.32441 -10.32218 -10.32191
 Alpha  occ. eigenvalues --  -10.32056 -10.31924 -10.31897 -10.31827 -10.31708
 Alpha  occ. eigenvalues --  -10.31506 -10.31469 -10.31281 -10.31044 -10.30723
 Alpha  occ. eigenvalues --  -10.30713 -10.30666 -10.30480 -10.30252 -10.30219
 Alpha  occ. eigenvalues --  -10.30117 -10.29954 -10.29888 -10.29859 -10.29836
 Alpha  occ. eigenvalues --  -10.29744 -10.29721 -10.29591 -10.29404 -10.29386
 Alpha  occ. eigenvalues --  -10.29371 -10.29115 -10.29049 -10.29044 -10.28861
 Alpha  occ. eigenvalues --  -10.28804 -10.28656 -10.28577 -10.28508 -10.28308
 Alpha  occ. eigenvalues --  -10.28265  -3.20599  -1.94203  -1.93735  -1.93559
 Alpha  occ. eigenvalues --   -1.19024  -1.15625  -1.11963  -1.11477  -1.10248
 Alpha  occ. eigenvalues --   -1.08287  -1.06001  -1.05221  -1.03793  -1.03359
 Alpha  occ. eigenvalues --   -0.94506  -0.92336  -0.91626  -0.91164  -0.90816
 Alpha  occ. eigenvalues --   -0.90225  -0.90089  -0.89317  -0.88288  -0.87951
 Alpha  occ. eigenvalues --   -0.87626  -0.87205  -0.85864  -0.85568  -0.85095
 Alpha  occ. eigenvalues --   -0.84455  -0.84256  -0.83227  -0.82718  -0.82029
 Alpha  occ. eigenvalues --   -0.81752  -0.80112  -0.79339  -0.78812  -0.78024
 Alpha  occ. eigenvalues --   -0.77361  -0.77191  -0.76993  -0.76736  -0.76090
 Alpha  occ. eigenvalues --   -0.75522  -0.74342  -0.73397  -0.72334  -0.70419
 Alpha  occ. eigenvalues --   -0.70242  -0.69879  -0.68910  -0.68243  -0.67626
 Alpha  occ. eigenvalues --   -0.67347  -0.66861  -0.66789  -0.66336  -0.66097
 Alpha  occ. eigenvalues --   -0.64951  -0.64591  -0.63853  -0.62951  -0.62230
 Alpha  occ. eigenvalues --   -0.61570  -0.61434  -0.60689  -0.60394  -0.59722
 Alpha  occ. eigenvalues --   -0.59403  -0.58697  -0.58630  -0.57971  -0.57247
 Alpha  occ. eigenvalues --   -0.56812  -0.56714  -0.56243  -0.55985  -0.55731
 Alpha  occ. eigenvalues --   -0.55576  -0.55280  -0.54944  -0.54708  -0.54305
 Alpha  occ. eigenvalues --   -0.54198  -0.54136  -0.54075  -0.53880  -0.53507
 Alpha  occ. eigenvalues --   -0.53392  -0.53046  -0.52748  -0.52589  -0.52507
 Alpha  occ. eigenvalues --   -0.52337  -0.52078  -0.51629  -0.51557  -0.51412
 Alpha  occ. eigenvalues --   -0.51304  -0.50964  -0.50778  -0.50626  -0.50506
 Alpha  occ. eigenvalues --   -0.50246  -0.50060  -0.49901  -0.49625  -0.49513
 Alpha  occ. eigenvalues --   -0.49426  -0.49304  -0.49009  -0.48846  -0.48633
 Alpha  occ. eigenvalues --   -0.48338  -0.48272  -0.48064  -0.47831  -0.47644
 Alpha  occ. eigenvalues --   -0.47512  -0.47355  -0.47081  -0.46795  -0.46637
 Alpha  occ. eigenvalues --   -0.46458  -0.46358  -0.46239  -0.46131  -0.45941
 Alpha  occ. eigenvalues --   -0.45541  -0.45345  -0.44987  -0.44847  -0.44586
 Alpha  occ. eigenvalues --   -0.44558  -0.44334  -0.44308  -0.44064  -0.43867
 Alpha  occ. eigenvalues --   -0.43757  -0.43557  -0.43495  -0.43055  -0.42918
 Alpha  occ. eigenvalues --   -0.42628  -0.42505  -0.42408  -0.42326  -0.42090
 Alpha  occ. eigenvalues --   -0.42078  -0.41696  -0.41639  -0.41586  -0.40847
 Alpha  occ. eigenvalues --   -0.40761  -0.40629  -0.39399  -0.39262  -0.39180
 Alpha  occ. eigenvalues --   -0.39117  -0.38694  -0.38633  -0.38392  -0.37839
 Alpha  occ. eigenvalues --   -0.37570  -0.37262  -0.37246  -0.36549  -0.36359
 Alpha  occ. eigenvalues --   -0.36008  -0.35820  -0.34978  -0.33368  -0.33120
 Alpha  occ. eigenvalues --   -0.32863  -0.32514  -0.31643  -0.31312  -0.25726
 Alpha  occ. eigenvalues --   -0.22545
 Alpha virt. eigenvalues --   -0.06970   0.00574   0.02534   0.04210   0.06328
 Alpha virt. eigenvalues --    0.06597   0.06937   0.07319   0.07880   0.09450
 Alpha virt. eigenvalues --    0.10423   0.10751   0.12035   0.12306   0.12454

 Mulliken charges:
               1
     1  Mg   0.947341
     2  C    0.002196
     3  C   -0.094255
     4  C   -0.041688
     5  C   -0.085160
     6  N   -0.331272
     7  C   -0.033432
     8  C   -0.024062
     9  C   -0.091476
    10  C    0.068161
    11  C    0.011699
    12  C   -0.002804
    13  C    0.012321
    14  C    0.219757
    15  O   -0.263477
    16  O   -0.378346
    17  N   -0.469061
    18  C    0.169693
    19  C   -0.177352
    20  C   -0.105594
    21  C    0.172320
    22  C    0.055684
    23  C    0.082620
    24  O   -0.239229
    25  C   -0.033583
    26  N   -0.358499
    27  C    0.000396
    28  C   -0.084222
    29  C   -0.096915
    30  C    0.053696
    31  C    0.029298
    32  C   -0.054601
    33  C   -0.019067
    34  N   -0.489259
    35  C    0.190891
    36  C   -0.190938
    37  C   -0.031535
    38  C    0.153173
    39  C    0.080221
    40  C    0.133515
    41  O   -0.206894
    42  C   -0.096712
    43  C    0.290457
    44  O   -0.247207
    45  O   -0.412086
    46  C    0.142237
    47  C    0.266984
    48  C   -0.123958
    49  C   -0.220305
    50  C    0.040162
    51  C    0.009647
    52  C   -0.050304
    53  C    0.059352
    54  C   -0.261193
    55  C    0.013671
    56  C    0.022543
    57  C   -0.023554
    58  C    0.040182
    59  C   -0.159640
    60  C   -0.009083
    61  C    0.016594
    62  C   -0.080135
    63  C   -0.001995
    64  C   -0.177647
    65  C   -0.024916
    66  C   -0.011812
    67  H   -0.001894
    68  H    0.018664
    69  H    0.007089
    70  H    0.059678
    71  H    0.033329
    72  H    0.021875
    73  H    0.056996
    74  H    0.043598
    75  H    0.037467
    76  H    0.043893
    77  H    0.045516
    78  H    0.058531
    79  H    0.037789
    80  H    0.059027
    81  H    0.029741
    82  H    0.066943
    83  H    0.052611
    84  H    0.069755
    85  H    0.037944
    86  H    0.034148
    87  H    0.065306
    88  H    0.029986
    89  H    0.044667
    90  H    0.036320
    91  H    0.036974
    92  H    0.038166
    93  H    0.041857
    94  H    0.039948
    95  H    0.038051
    96  H    0.052582
    97  H    0.059563
    98  H    0.066974
    99  H    0.072323
   100  H    0.048981
   101  H    0.047791
   102  H    0.051375
   103  H    0.044629
   104  H    0.018463
   105  H    0.044705
   106  H    0.043256
   107  H    0.040437
   108  H    0.028553
   109  H    0.024307
   110  H    0.025447
   111  H    0.025004
   112  H    0.015782
   113  H    0.019538
   114  H    0.031934
   115  H    0.034232
   116  H    0.031590
   117  H    0.031467
   118  H    0.025289
   119  H    0.009263
   120  H    0.026832
   121  H    0.028190
   122  H   -0.013505
   123  H    0.009934
   124  H    0.028240
   125  H    0.024850
   126  H    0.026805
   127  H    0.033135
   128  H    0.008053
   129  H    0.015515
   130  H    0.008314
   131  H    0.010019
   132  H    0.012986
   133  H    0.010734
   134  H    0.032626
   135  H    0.030415
   136  H    0.028569
   137  H    0.027130
   138  H    0.039948
   139  H    0.026587
   140  H    0.025619
 Sum of Mulliken charges =  -0.00000

 Dipole moment (field-independent basis, Debye):
    X=             -5.2079    Y=              2.2516    Z=              4.2231  Tot=              7.0730
 Quadrupole moment (field-independent basis, Debye-Ang):
   XX=           -376.0432   YY=           -420.1858   ZZ=           -407.8326
   XY=             27.8496   XZ=             31.7535   YZ=             -6.0283

 Normal termination of Gaussian 16 at Fri Apr 29 02:08:07 2022.
