 Gaussian 16, Revision A.03,
 Gaussian 16:  ES64L-G16RevA.03 25-Dec-2016

 --------------------
 #p ZINDO=(nstates=5)
 --------------------

 ------------------------------
 step_1801_chromophore_24 ZINDO
 ------------------------------
 Symbolic Z-matrix:
 Charge =  0 Multiplicity = 1

                         Standard orientation:
 ---------------------------------------------------------------------
 Center     Atomic      Atomic             Coordinates (Angstroms)
 Number     Number       Type             X           Y           Z
 ---------------------------------------------------------------------
      1         12           0        5.268756    1.205136    0.026702
      2          6           0        4.585787   -2.328934   -0.221700
      3          6           0        1.914223    1.707999   -0.363510
      4          6           0        6.022012    4.436241    0.216556
      5          6           0        8.686439    0.439557    0.288081
      6          7           0        3.511599   -0.173338   -0.199483
      7          6           0        3.435560   -1.524721   -0.216340
      8          6           0        2.020895   -2.020776   -0.216712
      9          6           0        1.219451   -0.720997   -0.428192
     10          6           0        2.251252    0.362496   -0.361164
     11          6           0        0.284648   -0.646391   -1.645942
     12          6           0        1.786077   -2.872676    1.086675
     13          6           0        1.109423   -4.278747    1.046987
     14          6           0       -0.058812   -4.499845    0.064618
     15          8           0        0.040802   -4.625768   -1.132712
     16          8           0       -1.284090   -4.382512    0.670497
     17          7           0        4.096424    2.911759   -0.182124
     18          6           0        2.749584    2.859569   -0.368444
     19          6           0        2.296591    4.300187   -0.499424
     20          6           0        3.494999    5.114088   -0.343588
     21          6           0        4.658206    4.159061   -0.102734
     22          6           0        0.902295    4.671996   -0.851302
     23          6           0        3.701440    6.716026   -0.385374
     24          8           0        4.817754    7.228346   -0.276857
     25          6           0        2.513672    7.569138   -0.572372
     26          7           0        7.111113    2.313126   -0.013188
     27          6           0        7.151114    3.680091    0.258053
     28          6           0        8.559931    4.185863    0.739579
     29          6           0        9.292672    2.804938    1.010490
     30          6           0        8.300160    1.823191    0.417559
     31          6           0        9.220492    5.107170   -0.378689
     32          6           0        9.443219    2.533466    2.584179
     33          6           0       10.631446    3.191166    3.234338
     34          7           0        6.373027   -0.534040    0.012742
     35          6           0        7.801939   -0.631143   -0.026658
     36          6           0        8.120046   -2.050770   -0.265494
     37          6           0        6.886372   -2.730187   -0.357964
     38          6           0        5.897155   -1.830187   -0.152599
     39          6           0        9.472016   -2.714786   -0.151779
     40          6           0        6.325487   -4.048423   -0.623019
     41          8           0        6.891894   -5.116570   -0.888317
     42          6           0        4.715908   -3.789387   -0.512633
     43          6           0        4.063885   -4.369688   -1.687077
     44          8           0        4.167682   -3.961114   -2.843591
     45          8           0        3.376056   -5.552832   -1.291160
     46          6           0        2.597548   -6.242214   -2.368612
     47          6           0       -2.373903   -4.124539   -0.307973
     48          6           0       -3.707975   -3.860961    0.380468
     49          6           0       -4.907958   -4.439536    0.185067
     50          6           0       -5.309610   -5.430099   -0.910968
     51          6           0       -5.972077   -4.220598    1.264752
     52          6           0       -7.042133   -3.078554    0.984654
     53          6           0       -7.213492   -1.895748    2.020268
     54          6           0       -8.690812   -1.481282    2.174137
     55          6           0       -9.073413   -1.817265    3.645761
     56          6           0       -8.802739    0.069042    1.876104
     57          6           0       -9.690538    0.188420    0.634517
     58          6           0      -11.191859   -0.281524    0.790243
     59          6           0      -12.248671    0.780855    0.902888
     60          6           0      -13.040035    0.724079    2.274184
     61          6           0      -13.254641    0.780495   -0.330235
     62          6           0      -14.025721    2.106736   -0.482564
     63          6           0      -13.568588    3.025594   -1.638688
     64          6           0      -14.435203    4.241399   -2.243251
     65          6           0      -13.566425    5.566580   -2.403007
     66          6           0      -15.790240    4.560886   -1.543244
     67          1           0        0.840340    1.875483   -0.258390
     68          1           0        6.324549    5.455174    0.465900
     69          1           0        9.714751    0.251783    0.602546
     70          1           0        1.820966   -2.647829   -1.085976
     71          1           0        0.564920   -0.497195    0.414325
     72          1           0       -0.690179   -0.281741   -1.324546
     73          1           0        0.096349   -1.605300   -2.128541
     74          1           0        0.603860    0.082269   -2.391285
     75          1           0        1.305790   -2.281508    1.867046
     76          1           0        2.729756   -3.206019    1.519514
     77          1           0        0.868307   -4.382702    2.105072
     78          1           0        1.876868   -5.029408    0.857738
     79          1           0        0.109308    3.940763   -0.694966
     80          1           0        0.906420    4.983157   -1.896064
     81          1           0        0.562202    5.541369   -0.288271
     82          1           0        1.958859    7.457009   -1.503917
     83          1           0        3.016295    8.535667   -0.600858
     84          1           0        1.854257    7.475433    0.290620
     85          1           0        8.489511    4.679699    1.708286
     86          1           0       10.256546    2.825748    0.502866
     87          1           0        8.471479    5.518326   -1.055025
     88          1           0        9.892757    4.402766   -0.868341
     89          1           0        9.835327    5.899819    0.047140
     90          1           0        9.557042    1.467010    2.779464
     91          1           0        8.540704    2.951340    3.030712
     92          1           0       11.302256    3.599804    2.478350
     93          1           0       11.027510    2.351446    3.804651
     94          1           0       10.279106    3.982000    3.897507
     95          1           0       10.054549   -2.112151    0.544156
     96          1           0       10.011420   -2.764811   -1.098839
     97          1           0        9.280338   -3.756739    0.105618
     98          1           0        4.473223   -4.426257    0.338328
     99          1           0        2.420096   -5.589098   -3.222357
    100          1           0        1.699557   -6.552568   -1.833662
    101          1           0        3.029409   -7.186803   -2.699238
    102          1           0       -2.357750   -5.019761   -0.929630
    103          1           0       -2.070702   -3.191509   -0.783966
    104          1           0       -3.678020   -3.199285    1.245572
    105          1           0       -6.134159   -4.954515   -1.441935
    106          1           0       -5.676063   -6.319717   -0.398157
    107          1           0       -4.559940   -5.754343   -1.633215
    108          1           0       -5.449413   -3.993486    2.193060
    109          1           0       -6.491941   -5.175577    1.352965
    110          1           0       -7.986901   -3.541426    0.700865
    111          1           0       -6.622191   -2.664718    0.067076
    112          1           0       -6.689593   -1.041469    1.593008
    113          1           0       -6.738347   -2.140455    2.969524
    114          1           0       -9.409220   -2.020279    1.557183
    115          1           0       -8.472589   -2.676594    3.942779
    116          1           0      -10.149584   -1.977873    3.583670
    117          1           0       -8.823577   -0.949377    4.255275
    118          1           0       -7.883212    0.628822    1.706406
    119          1           0       -9.228419    0.497909    2.783637
    120          1           0       -9.394873   -0.555224   -0.105555
    121          1           0       -9.466556    1.222426    0.370854
    122          1           0      -11.280123   -0.925609    1.664958
    123          1           0      -11.488640   -1.053837    0.080822
    124          1           0      -11.865320    1.800053    0.873352
    125          1           0      -14.035295    0.287790    2.184083
    126          1           0      -13.299056    1.714433    2.649151
    127          1           0      -12.431073    0.201218    3.011221
    128          1           0      -14.069926    0.072390   -0.181894
    129          1           0      -12.916846    0.452433   -1.313437
    130          1           0      -14.027555    2.700548    0.432228
    131          1           0      -15.100767    1.939388   -0.551532
    132          1           0      -13.302274    2.307171   -2.413808
    133          1           0      -12.611651    3.372506   -1.247242
    134          1           0      -14.705632    3.904930   -3.244275
    135          1           0      -13.487446    5.881491   -3.443562
    136          1           0      -12.578684    5.352190   -1.997110
    137          1           0      -13.955954    6.466286   -1.926798
    138          1           0      -15.953233    4.149418   -0.546694
    139          1           0      -16.520853    4.160614   -2.245681
    140          1           0      -16.004659    5.628420   -1.485141
 ---------------------------------------------------------------------

 SCF Done:  E(RZINDO/S) =  -473.759649591     A.U. after   20 cycles

 Excitation energies and oscillator strengths:

 Excited State   1:      Singlet-A      1.2057 eV 1028.28 nm  f=0.5849  <S**2>=0.000
     175 ->178         0.19098
     176 ->177         0.66269
 This state for optimization and/or second-order correction.
 Total Energy, E(CIS/TDA) =  -473.715339495
 Copying the excited state density for this state as the 1-particle RhoCI density.

 Excited State   2:      Singlet-A      1.8951 eV  654.25 nm  f=0.0435  <S**2>=0.000
     175 ->177         0.54876
     176 ->178        -0.41958

 Excited State   3:      Singlet-A      2.9701 eV  417.44 nm  f=0.7945  <S**2>=0.000
     168 ->177         0.10421
     168 ->179        -0.13119
     169 ->177         0.15313
     169 ->179        -0.14638
     171 ->177        -0.11324
     175 ->177         0.31043
     176 ->178         0.44447
     176 ->179         0.22171

 Excited State   4:      Singlet-A      3.0225 eV  410.21 nm  f=0.2812  <S**2>=0.000
     168 ->177        -0.22251
     168 ->179         0.24506
     168 ->180        -0.14691
     168 ->186         0.11690
     169 ->177        -0.21251
     169 ->179         0.26275
     169 ->180        -0.12977
     169 ->186         0.13162
     171 ->177        -0.12702
     175 ->177         0.18222
     176 ->178         0.25346

 Excited State   5:      Singlet-A      3.0465 eV  406.98 nm  f=0.1795  <S**2>=0.000
     170 ->180         0.10075
     175 ->177        -0.14055
     176 ->178        -0.13334
     176 ->179         0.58325
     176 ->180         0.21751

 The electronic state is 1-A.
 Alpha  occ. eigenvalues --   -1.83227  -1.79646  -1.77713  -1.74068  -1.69611
 Alpha  occ. eigenvalues --   -1.68129  -1.65342  -1.58704  -1.57616  -1.56019
 Alpha  occ. eigenvalues --   -1.53597  -1.49565  -1.48298  -1.47953  -1.47195
 Alpha  occ. eigenvalues --   -1.43695  -1.43129  -1.39304  -1.38368  -1.38304
 Alpha  occ. eigenvalues --   -1.35871  -1.32925  -1.31966  -1.30823  -1.28953
 Alpha  occ. eigenvalues --   -1.27127  -1.23940  -1.21891  -1.20802  -1.18431
 Alpha  occ. eigenvalues --   -1.18016  -1.15624  -1.15214  -1.14691  -1.13336
 Alpha  occ. eigenvalues --   -1.12921  -1.10618  -1.08554  -1.04269  -1.03312
 Alpha  occ. eigenvalues --   -1.02983  -1.00687  -0.98851  -0.97704  -0.96532
 Alpha  occ. eigenvalues --   -0.94968  -0.94228  -0.92884  -0.92489  -0.92179
 Alpha  occ. eigenvalues --   -0.91044  -0.90548  -0.88604  -0.87472  -0.85773
 Alpha  occ. eigenvalues --   -0.85194  -0.83368  -0.82202  -0.81671  -0.80760
 Alpha  occ. eigenvalues --   -0.79495  -0.78336  -0.77089  -0.76536  -0.76175
 Alpha  occ. eigenvalues --   -0.75853  -0.74929  -0.74635  -0.73632  -0.73162
 Alpha  occ. eigenvalues --   -0.72889  -0.72358  -0.71621  -0.71058  -0.70632
 Alpha  occ. eigenvalues --   -0.69977  -0.69431  -0.68707  -0.68513  -0.68055
 Alpha  occ. eigenvalues --   -0.67459  -0.66768  -0.66485  -0.65910  -0.65337
 Alpha  occ. eigenvalues --   -0.64982  -0.64331  -0.64102  -0.63683  -0.63514
 Alpha  occ. eigenvalues --   -0.63258  -0.62498  -0.62005  -0.61843  -0.61815
 Alpha  occ. eigenvalues --   -0.61099  -0.60952  -0.60226  -0.60098  -0.59774
 Alpha  occ. eigenvalues --   -0.59659  -0.59285  -0.58792  -0.58433  -0.58221
 Alpha  occ. eigenvalues --   -0.57953  -0.57589  -0.57201  -0.57051  -0.56712
 Alpha  occ. eigenvalues --   -0.56259  -0.56061  -0.56015  -0.55603  -0.55539
 Alpha  occ. eigenvalues --   -0.54983  -0.54016  -0.53969  -0.53133  -0.52896
 Alpha  occ. eigenvalues --   -0.52545  -0.52364  -0.51846  -0.51459  -0.50905
 Alpha  occ. eigenvalues --   -0.50844  -0.50389  -0.50168  -0.50040  -0.49976
 Alpha  occ. eigenvalues --   -0.49587  -0.49452  -0.49379  -0.49136  -0.48985
 Alpha  occ. eigenvalues --   -0.48845  -0.48816  -0.47996  -0.47832  -0.47603
 Alpha  occ. eigenvalues --   -0.47403  -0.47256  -0.46969  -0.46833  -0.46499
 Alpha  occ. eigenvalues --   -0.46314  -0.46193  -0.46018  -0.45937  -0.45582
 Alpha  occ. eigenvalues --   -0.45202  -0.45008  -0.44643  -0.44282  -0.43888
 Alpha  occ. eigenvalues --   -0.43506  -0.43463  -0.43197  -0.43003  -0.42861
 Alpha  occ. eigenvalues --   -0.41566  -0.41522  -0.41330  -0.39034  -0.38770
 Alpha  occ. eigenvalues --   -0.38017  -0.37182  -0.35522  -0.35219  -0.34301
 Alpha  occ. eigenvalues --   -0.32808  -0.32576  -0.32275  -0.31728  -0.26388
 Alpha  occ. eigenvalues --   -0.21338
 Alpha virt. eigenvalues --   -0.08376  -0.01780  -0.00223   0.01339   0.01626
 Alpha virt. eigenvalues --    0.02564   0.02827   0.03268   0.04374   0.04718
 Alpha virt. eigenvalues --    0.06140   0.06843   0.07133   0.07512   0.07789

 Mulliken charges:
               1
     1  Mg   0.425464
     2  C   -0.061605
     3  C   -0.076230
     4  C   -0.043608
     5  C   -0.079128
     6  N   -0.291922
     7  C    0.157584
     8  C    0.012784
     9  C    0.011481
    10  C    0.118484
    11  C   -0.048464
    12  C   -0.021234
    13  C    0.003294
    14  C    0.470845
    15  O   -0.511467
    16  O   -0.280301
    17  N   -0.295227
    18  C    0.088868
    19  C   -0.005778
    20  C   -0.077346
    21  C    0.116301
    22  C   -0.035755
    23  C    0.331384
    24  O   -0.519032
    25  C   -0.032948
    26  N   -0.265202
    27  C    0.106953
    28  C   -0.005901
    29  C   -0.004562
    30  C    0.152405
    31  C   -0.053160
    32  C   -0.031650
    33  C   -0.060737
    34  N   -0.360293
    35  C    0.102533
    36  C    0.039185
    37  C   -0.037104
    38  C    0.132403
    39  C   -0.039970
    40  C    0.327895
    41  O   -0.510160
    42  C    0.062035
    43  C    0.489332
    44  O   -0.509138
    45  O   -0.285843
    46  C    0.070555
    47  C    0.107074
    48  C   -0.097138
    49  C   -0.000423
    50  C   -0.041911
    51  C   -0.026906
    52  C   -0.046070
    53  C   -0.031759
    54  C   -0.024747
    55  C   -0.066580
    56  C   -0.039738
    57  C   -0.039187
    58  C   -0.031893
    59  C   -0.002314
    60  C   -0.061778
    61  C   -0.038901
    62  C   -0.036717
    63  C   -0.041702
    64  C   -0.008362
    65  C   -0.062114
    66  C   -0.057134
    67  H    0.024737
    68  H    0.036278
    69  H    0.033194
    70  H    0.047801
    71  H    0.023710
    72  H    0.010798
    73  H    0.029329
    74  H    0.025160
    75  H    0.025884
    76  H    0.020974
    77  H    0.031405
    78  H    0.042379
    79  H    0.026844
    80  H    0.031144
    81  H    0.017882
    82  H    0.042415
    83  H    0.035346
    84  H    0.041900
    85  H    0.034781
    86  H    0.039444
    87  H    0.038552
    88  H    0.020433
    89  H    0.023040
    90  H    0.022992
    91  H    0.025843
    92  H    0.026143
    93  H    0.023525
    94  H    0.021565
    95  H    0.029377
    96  H    0.036227
    97  H    0.040202
    98  H    0.046983
    99  H    0.059524
   100  H    0.034325
   101  H    0.040207
   102  H    0.057604
   103  H    0.047984
   104  H    0.026953
   105  H    0.028244
   106  H    0.026506
   107  H    0.027401
   108  H    0.023076
   109  H    0.020729
   110  H    0.023437
   111  H    0.014353
   112  H    0.016214
   113  H    0.026981
   114  H    0.034050
   115  H    0.024164
   116  H    0.019446
   117  H    0.022933
   118  H    0.023692
   119  H    0.017339
   120  H    0.021012
   121  H    0.025010
   122  H    0.013838
   123  H    0.018613
   124  H    0.021953
   125  H    0.020797
   126  H    0.014823
   127  H    0.021969
   128  H    0.009331
   129  H    0.025558
   130  H    0.011639
   131  H    0.009777
   132  H    0.014998
   133  H    0.014463
   134  H    0.020198
   135  H    0.017020
   136  H    0.019906
   137  H    0.021278
   138  H    0.027068
   139  H    0.013539
   140  H    0.018041
 Sum of Mulliken charges =  -0.00000

 Dipole moment (field-independent basis, Debye):
    X=             -5.7667    Y=              1.5123    Z=              6.9193  Tot=              9.1334
 N-N= 4.242184964152D+03 E-N= 0.000000000000D+00  KE=-9.158503198766D+03
 Leave Link  601 at Fri Apr 29 02:19:36 2022, MaxMem=  6710886400 cpu:               0.8 elap:               0.0
 (Enter /sw/apps/gaussian-16.0/g16/l9999.exe)
 1\1\GINC-BP1-COMPUTE070\SP\RZINDO CIS\STO-3G\C55H74Mg1N4O6\OF15641\29-
 Apr-2022\0\\#p ZINDO=(nstates=5)\\step_1801_chromophore_24 ZINDO\\0,1\
 Mg,0,-0.685,43.306,24.841\C,0,1.524,43.181,27.691\C,0,-3.158,42.209,26
 .924\C,0,-2.614,43.41,22.137\C,0,2.047,44.309,22.875\N,0,-0.766,42.829
 ,27.033\C,0,0.184,42.895,27.995\C,0,-0.368,42.644,29.366\C,0,-1.806,42
 .181,29.059\C,0,-1.948,42.377,27.581\C,0,-2.237,40.797,29.57\C,0,-0.13
 9,43.931,30.244\C,0,0.466,43.857,31.681\C,0,0.057,42.677,32.586\O,0,0.

 Normal termination of Gaussian 16 at Fri Apr 29 02:19:36 2022.
