 Gaussian 16, Revision A.03,
 Gaussian 16:  ES64L-G16RevA.03 25-Dec-2016

 ------------------------------
 #p blyp/Def2SVP td=(nstates=5)
 ------------------------------

 ---------------------------------------------------
 step_1701_chromophore_12 TDDFT with blyp functional
 ---------------------------------------------------
 Symbolic Z-matrix:
 Charge =  0 Multiplicity = 1

                         Standard orientation:
 ---------------------------------------------------------------------
 Center     Atomic      Atomic             Coordinates (Angstroms)
 Number     Number       Type             X           Y           Z
 ---------------------------------------------------------------------
      1         12           0        4.344726    0.371483    0.290218
      2          6           0        3.438333   -2.932163   -0.567215
      3          6           0        1.078721    1.190933    0.097899
      4          6           0        5.248828    3.642906    0.630047
      5          6           0        7.752314   -0.515985    0.058981
      6          7           0        2.557460   -0.788673   -0.098159
      7          6           0        2.297070   -2.151312   -0.414491
      8          6           0        0.840446   -2.451833   -0.436918
      9          6           0        0.188669   -1.059369   -0.512678
     10          6           0        1.361557   -0.148379   -0.178305
     11          6           0       -0.544789   -0.713669   -1.884531
     12          6           0        0.210888   -3.334583    0.698976
     13          6           0       -1.324290   -3.627440    0.489775
     14          6           0       -2.179880   -3.892822    1.765096
     15          8           0       -1.825146   -3.871414    2.955001
     16          8           0       -3.494488   -3.993332    1.368510
     17          7           0        3.290333    2.140986    0.371209
     18          6           0        1.934862    2.259793    0.342345
     19          6           0        1.495433    3.704655    0.455576
     20          6           0        2.737211    4.451393    0.633191
     21          6           0        3.861452    3.413797    0.565261
     22          6           0        0.052384    4.148426    0.365130
     23          6           0        2.992907    5.958928    0.733631
     24          8           0        4.106557    6.418463    1.016159
     25          6           0        1.958958    6.876409    0.319976
     26          7           0        6.227278    1.359153    0.375790
     27          6           0        6.345337    2.724692    0.562206
     28          6           0        7.813546    3.153598    0.873066
     29          6           0        8.528421    1.755983    0.992703
     30          6           0        7.418148    0.795341    0.487812
     31          6           0        8.366600    4.112071   -0.268427
     32          6           0        9.089275    1.465001    2.396028
     33          6           0        9.531356    2.588038    3.343557
     34          7           0        5.366161   -1.291144   -0.197665
     35          6           0        6.754844   -1.513038   -0.364481
     36          6           0        6.998009   -2.874054   -0.789346
     37          6           0        5.744012   -3.452788   -0.802760
     38          6           0        4.794441   -2.507255   -0.477004
     39          6           0        8.245643   -3.566923   -1.094466
     40          6           0        5.031800   -4.679568   -1.100267
     41          8           0        5.447833   -5.774520   -1.501202
     42          6           0        3.474296   -4.445359   -0.855260
     43          6           0        2.737107   -4.853592   -2.021998
     44          8           0        3.050742   -4.594537   -3.181021
     45          8           0        1.530532   -5.421906   -1.647035
     46          6           0        0.735465   -5.876297   -2.822748
     47          6           0       -4.463901   -3.925930    2.362955
     48          6           0       -5.871176   -4.031372    1.760123
     49          6           0       -7.021991   -3.524415    2.251729
     50          6           0       -7.212068   -2.756840    3.503655
     51          6           0       -8.312047   -3.729733    1.390763
     52          6           0       -8.637611   -2.427567    0.552387
     53          6           0      -10.068540   -1.889394    0.782652
     54          6           0      -10.061334   -0.330255    0.713982
     55          6           0      -11.261741    0.196753    1.567048
     56          6           0      -10.155801    0.130369   -0.731922
     57          6           0       -8.927612    0.836539   -1.320959
     58          6           0       -9.114325    2.337901   -1.632921
     59          6           0       -8.388418    3.304590   -0.579622
     60          6           0       -9.296788    3.550607    0.557165
     61          6           0       -7.761945    4.590921   -1.211605
     62          6           0       -6.307204    4.681322   -0.994325
     63          6           0       -5.597772    4.059851   -2.233937
     64          6           0       -4.084455    4.108314   -2.016269
     65          6           0       -3.521599    5.536561   -2.301635
     66          6           0       -3.372684    3.049747   -2.903759
     67          1           0        0.038491    1.517234    0.031356
     68          1           0        5.655352    4.616444    0.913282
     69          1           0        8.818001   -0.748072    0.109913
     70          1           0        0.538848   -2.950436   -1.357633
     71          1           0       -0.574032   -0.894370    0.248420
     72          1           0       -0.390352   -1.426045   -2.695530
     73          1           0       -0.356312    0.282779   -2.281615
     74          1           0       -1.605099   -0.769659   -1.638747
     75          1           0        0.222473   -2.683064    1.572033
     76          1           0        0.693507   -4.282853    0.937508
     77          1           0       -1.339843   -4.539062   -0.108109
     78          1           0       -1.876773   -2.838295   -0.020259
     79          1           0       -0.692955    3.374078    0.184859
     80          1           0       -0.292042    4.828674   -0.413637
     81          1           0       -0.245735    4.637727    1.292431
     82          1           0        1.656936    6.716857   -0.714986
     83          1           0        2.409579    7.869310    0.300660
     84          1           0        1.189015    6.983752    1.084126
     85          1           0        7.746326    3.753924    1.780123
     86          1           0        9.341877    1.689150    0.270081
     87          1           0        9.231549    3.659181   -0.754355
     88          1           0        8.642360    5.074498    0.161145
     89          1           0        7.693656    4.436698   -1.062148
     90          1           0        9.916913    0.762198    2.310132
     91          1           0        8.292251    0.992452    2.968947
     92          1           0       10.542259    2.390426    3.701543
     93          1           0        8.907778    2.623652    4.235570
     94          1           0        9.469800    3.621309    3.001065
     95          1           0        9.034643   -2.933116   -0.690336
     96          1           0        8.310319   -3.670068   -2.178415
     97          1           0        8.276691   -4.602512   -0.755119
     98          1           0        3.109277   -4.995074    0.012281
     99          1           0       -0.159538   -6.277107   -2.346264
    100          1           0        1.129708   -6.633306   -3.500650
    101          1           0        0.443834   -5.025145   -3.438963
    102          1           0       -4.376056   -2.929518    2.796383
    103          1           0       -4.291332   -4.756986    3.046202
    104          1           0       -5.818997   -4.516983    0.785603
    105          1           0       -7.788814   -3.297429    4.254221
    106          1           0       -7.758482   -1.865749    3.195104
    107          1           0       -6.224563   -2.478967    3.872897
    108          1           0       -9.127982   -3.982185    2.067247
    109          1           0       -8.085132   -4.543673    0.702008
    110          1           0       -8.663810   -2.789699   -0.475291
    111          1           0       -7.875921   -1.653499    0.640666
    112          1           0      -10.512730   -2.227699    1.718626
    113          1           0      -10.879095   -2.223123    0.135790
    114          1           0       -9.170753    0.096418    1.175444
    115          1           0      -12.071661   -0.530040    1.622783
    116          1           0      -11.732358    1.147208    1.317326
    117          1           0      -11.024798    0.230404    2.630425
    118          1           0      -11.092906    0.647765   -0.936890
    119          1           0      -10.283581   -0.788823   -1.303292
    120          1           0       -8.652555    0.351897   -2.257874
    121          1           0       -8.074145    0.637578   -0.672198
    122          1           0      -10.200611    2.413088   -1.687602
    123          1           0       -8.814055    2.499717   -2.668154
    124          1           0       -7.664727    2.636913   -0.112487
    125          1           0      -10.357214    3.713323    0.365442
    126          1           0       -8.882467    4.391394    1.114539
    127          1           0       -9.217874    2.752519    1.296007
    128          1           0       -8.116458    5.542984   -0.815933
    129          1           0       -8.033970    4.579857   -2.266732
    130          1           0       -6.000854    4.329349   -0.010261
    131          1           0       -6.014629    5.729557   -0.922555
    132          1           0       -5.838144    4.703157   -3.080712
    133          1           0       -5.929754    3.054839   -2.497174
    134          1           0       -3.894560    3.695040   -1.025544
    135          1           0       -3.406876    6.025978   -1.334331
    136          1           0       -4.169047    6.100524   -2.971867
    137          1           0       -2.508885    5.548258   -2.706845
    138          1           0       -2.946811    2.303762   -2.232607
    139          1           0       -2.535305    3.486097   -3.447795
    140          1           0       -3.916613    2.421469   -3.608601
 ---------------------------------------------------------------------

 SCF Done:  E(RB-LYP) =  -3007.39162414     A.U. after   21 cycles

 Excitation energies and oscillator strengths:

 Excited State   1:      Singlet-A      1.7535 eV  707.06 nm  f=0.2863  <S**2>=0.000
     245 -> 248       -0.17207
     246 -> 247        0.69027
     246 <- 247       -0.14846
 This state for optimization and/or second-order correction.
 Total Energy, E(TD-HF/TD-DFT) =  -3007.32718368
 Copying the excited state density for this state as the 1-particle RhoCI density.

 Excited State   2:      Singlet-A      1.8066 eV  686.30 nm  f=0.0016  <S**2>=0.000
     244 -> 247        0.69049
     245 -> 247        0.14803

 Excited State   3:      Singlet-A      2.0168 eV  614.76 nm  f=0.0777  <S**2>=0.000
     244 -> 247       -0.14507
     245 -> 247        0.62773
     246 -> 248        0.23819
     246 -> 249       -0.13112

 Excited State   4:      Singlet-A      2.0962 eV  591.47 nm  f=0.0001  <S**2>=0.000
     243 -> 247        0.70610

 Excited State   5:      Singlet-A      2.4620 eV  503.60 nm  f=0.0001  <S**2>=0.000
     241 -> 247        0.70678

 The electronic state is 1-A.
 Alpha  occ. eigenvalues --  -46.26106 -18.82592 -18.82473 -18.77757 -18.76334
 Alpha  occ. eigenvalues --  -18.75879 -18.74938 -14.03335 -14.03029 -14.01688
 Alpha  occ. eigenvalues --  -14.00642 -10.05147 -10.03297 -10.00117  -9.99043
 Alpha  occ. eigenvalues --   -9.97878  -9.97872  -9.96887  -9.96694  -9.96514
 Alpha  occ. eigenvalues --   -9.96434  -9.96202  -9.96113  -9.95740  -9.95552
 Alpha  occ. eigenvalues --   -9.94624  -9.94361  -9.94288  -9.94265  -9.94178
 Alpha  occ. eigenvalues --   -9.94144  -9.93920  -9.93904  -9.93791  -9.93584
 Alpha  occ. eigenvalues --   -9.93242  -9.93222  -9.93191  -9.92980  -9.92738
 Alpha  occ. eigenvalues --   -9.92719  -9.92612  -9.92545  -9.92497  -9.92453
 Alpha  occ. eigenvalues --   -9.92380  -9.92350  -9.92269  -9.92200  -9.92060
 Alpha  occ. eigenvalues --   -9.91997  -9.91985  -9.91848  -9.91796  -9.91687
 Alpha  occ. eigenvalues --   -9.91628  -9.91491  -9.91244  -9.91191  -9.91163
 Alpha  occ. eigenvalues --   -9.90926  -9.90871  -9.90843  -9.90767  -9.90604
 Alpha  occ. eigenvalues --   -9.90098  -2.90946  -1.71366  -1.70817  -1.70673
 Alpha  occ. eigenvalues --   -0.99157  -0.97189  -0.91324  -0.90326  -0.89923
 Alpha  occ. eigenvalues --   -0.88994  -0.86280  -0.85722  -0.84636  -0.84046
 Alpha  occ. eigenvalues --   -0.74900  -0.73939  -0.73571  -0.73024  -0.72548
 Alpha  occ. eigenvalues --   -0.71908  -0.71446  -0.71265  -0.70556  -0.70073
 Alpha  occ. eigenvalues --   -0.69902  -0.69431  -0.68286  -0.67446  -0.67214
 Alpha  occ. eigenvalues --   -0.66693  -0.66475  -0.65889  -0.65307  -0.64803
 Alpha  occ. eigenvalues --   -0.64301  -0.62716  -0.62551  -0.61812  -0.60934
 Alpha  occ. eigenvalues --   -0.60737  -0.60716  -0.59864  -0.59804  -0.59537
 Alpha  occ. eigenvalues --   -0.58634  -0.57510  -0.56782  -0.55557  -0.54886
 Alpha  occ. eigenvalues --   -0.54148  -0.53566  -0.52793  -0.52677  -0.51426
 Alpha  occ. eigenvalues --   -0.51127  -0.50747  -0.50662  -0.50490  -0.50130
 Alpha  occ. eigenvalues --   -0.49957  -0.49764  -0.49422  -0.48195  -0.46948
 Alpha  occ. eigenvalues --   -0.46527  -0.46176  -0.45230  -0.45054  -0.44831
 Alpha  occ. eigenvalues --   -0.44142  -0.43816  -0.43273  -0.42886  -0.42163
 Alpha  occ. eigenvalues --   -0.42139  -0.41980  -0.41837  -0.41512  -0.41308
 Alpha  occ. eigenvalues --   -0.41239  -0.40915  -0.40728  -0.40646  -0.40303
 Alpha  occ. eigenvalues --   -0.40119  -0.39786  -0.39746  -0.39337  -0.38973
 Alpha  occ. eigenvalues --   -0.38930  -0.38748  -0.38611  -0.38266  -0.38195
 Alpha  occ. eigenvalues --   -0.38074  -0.37847  -0.37800  -0.37511  -0.37145
 Alpha  occ. eigenvalues --   -0.37013  -0.36900  -0.36667  -0.36458  -0.36417
 Alpha  occ. eigenvalues --   -0.36314  -0.36217  -0.35959  -0.35787  -0.35517
 Alpha  occ. eigenvalues --   -0.35450  -0.35268  -0.35044  -0.34950  -0.34636
 Alpha  occ. eigenvalues --   -0.34531  -0.34402  -0.34209  -0.34058  -0.33928
 Alpha  occ. eigenvalues --   -0.33812  -0.33804  -0.33697  -0.33425  -0.33329
 Alpha  occ. eigenvalues --   -0.33205  -0.32973  -0.32934  -0.32428  -0.32250
 Alpha  occ. eigenvalues --   -0.32236  -0.32108  -0.31852  -0.31615  -0.31579
 Alpha  occ. eigenvalues --   -0.31432  -0.31355  -0.31223  -0.30977  -0.30941
 Alpha  occ. eigenvalues --   -0.30724  -0.30559  -0.30372  -0.30267  -0.29967
 Alpha  occ. eigenvalues --   -0.29853  -0.29748  -0.29630  -0.29324  -0.29236
 Alpha  occ. eigenvalues --   -0.28857  -0.28527  -0.28460  -0.28429  -0.27745
 Alpha  occ. eigenvalues --   -0.27723  -0.27687  -0.27392  -0.27068  -0.26756
 Alpha  occ. eigenvalues --   -0.26452  -0.26376  -0.25950  -0.25904  -0.25733
 Alpha  occ. eigenvalues --   -0.25497  -0.25226  -0.24403  -0.24210  -0.23892
 Alpha  occ. eigenvalues --   -0.23498  -0.22580  -0.22084  -0.21454  -0.20951
 Alpha  occ. eigenvalues --   -0.20523  -0.20150  -0.19070  -0.18060  -0.17226
 Alpha  occ. eigenvalues --   -0.15638
 Alpha virt. eigenvalues --   -0.11476  -0.07223  -0.06032  -0.04542  -0.03810
 Alpha virt. eigenvalues --   -0.03050  -0.02368  -0.01529  -0.01232  -0.00241
 Alpha virt. eigenvalues --    0.00199   0.01006   0.01528   0.01905   0.02086

 Mulliken charges:
               1
     1  Mg   0.716358
     2  C   -0.049804
     3  C   -0.087466
     4  C   -0.027180
     5  C   -0.059741
     6  N   -0.247548
     7  C   -0.028353
     8  C    0.115052
     9  C   -0.073600
    10  C    0.105528
    11  C    0.103090
    12  C    0.128780
    13  C    0.048055
    14  C    0.108368
    15  O   -0.199225
    16  O   -0.261813
    17  N   -0.312398
    18  C    0.129412
    19  C   -0.091995
    20  C    0.020720
    21  C    0.134915
    22  C    0.129941
    23  C   -0.080558
    24  O   -0.171881
    25  C    0.155982
    26  N   -0.200571
    27  C   -0.017120
    28  C   -0.019675
    29  C    0.067582
    30  C   -0.001928
    31  C    0.109046
    32  C    0.103936
    33  C    0.058442
    34  N   -0.304037
    35  C    0.126645
    36  C   -0.199842
    37  C    0.134799
    38  C    0.098773
    39  C    0.190415
    40  C   -0.062589
    41  O   -0.149917
    42  C    0.112038
    43  C    0.094021
    44  O   -0.182415
    45  O   -0.288586
    46  C    0.218624
    47  C    0.310226
    48  C   -0.116267
    49  C   -0.177333
    50  C    0.181201
    51  C    0.133067
    52  C    0.091612
    53  C    0.086098
    54  C   -0.093404
    55  C    0.093002
    56  C    0.143807
    57  C    0.052041
    58  C    0.109053
    59  C   -0.035508
    60  C    0.108070
    61  C    0.185545
    62  C    0.051192
    63  C    0.071886
    64  C   -0.063000
    65  C    0.104717
    66  C    0.087536
    67  H   -0.078824
    68  H   -0.041843
    69  H   -0.054903
    70  H   -0.035828
    71  H   -0.017665
    72  H   -0.000393
    73  H    0.004363
    74  H   -0.010084
    75  H   -0.019872
    76  H    0.001290
    77  H    0.010936
    78  H    0.005306
    79  H   -0.019400
    80  H    0.002695
    81  H    0.004163
    82  H    0.019559
    83  H   -0.020520
    84  H    0.007553
    85  H   -0.003258
    86  H   -0.033165
    87  H   -0.009242
    88  H   -0.009178
    89  H    0.000043
    90  H   -0.019124
    91  H   -0.022639
    92  H   -0.010074
    93  H   -0.016352
    94  H   -0.005838
    95  H   -0.016792
    96  H    0.007443
    97  H    0.005826
    98  H   -0.001027
    99  H    0.004250
   100  H    0.028196
   101  H    0.010572
   102  H   -0.008146
   103  H    0.003767
   104  H   -0.035780
   105  H    0.009445
   106  H   -0.007337
   107  H   -0.018684
   108  H   -0.022668
   109  H   -0.029919
   110  H   -0.024762
   111  H   -0.002481
   112  H   -0.046784
   113  H   -0.034324
   114  H   -0.031056
   115  H   -0.032882
   116  H   -0.013423
   117  H   -0.031177
   118  H   -0.041658
   119  H   -0.050565
   120  H   -0.043626
   121  H   -0.037440
   122  H   -0.044897
   123  H   -0.043752
   124  H   -0.041222
   125  H   -0.007628
   126  H   -0.036561
   127  H   -0.027444
   128  H   -0.047660
   129  H   -0.043848
   130  H   -0.036972
   131  H   -0.051180
   132  H   -0.031569
   133  H   -0.026439
   134  H   -0.036231
   135  H   -0.012495
   136  H   -0.003260
   137  H   -0.016014
   138  H   -0.030403
   139  H   -0.025687
   140  H   -0.019233
 Sum of Mulliken charges =  -0.00000

 Dipole moment (field-independent basis, Debye):
    X=             -5.1017    Y=              3.5129    Z=              0.9456  Tot=              6.2659
 Quadrupole moment (field-independent basis, Debye-Ang):
   XX=           -377.4970   YY=           -432.4271   ZZ=           -415.4968
   XY=             24.4977   XZ=             16.5498   YZ=             -5.9365

 Normal termination of Gaussian 16 at Wed May  4 12:42:52 2022.
