 Gaussian 16, Revision A.03,
 Gaussian 16:  ES64L-G16RevA.03 25-Dec-2016

 -----------------------------------
 #p cam-b3lyp/Def2SVP td=(nstates=5)
 -----------------------------------

 --------------------------------------------------------
 step_1701_chromophore_12 TDDFT with cam-b3lyp functional
 --------------------------------------------------------
 Symbolic Z-matrix:
 Charge =  0 Multiplicity = 1

                         Standard orientation:
 ---------------------------------------------------------------------
 Center     Atomic      Atomic             Coordinates (Angstroms)
 Number     Number       Type             X           Y           Z
 ---------------------------------------------------------------------
      1         12           0        4.344726    0.371483    0.290218
      2          6           0        3.438333   -2.932163   -0.567215
      3          6           0        1.078721    1.190933    0.097899
      4          6           0        5.248828    3.642906    0.630047
      5          6           0        7.752314   -0.515985    0.058981
      6          7           0        2.557460   -0.788673   -0.098159
      7          6           0        2.297070   -2.151312   -0.414491
      8          6           0        0.840446   -2.451833   -0.436918
      9          6           0        0.188669   -1.059369   -0.512678
     10          6           0        1.361557   -0.148379   -0.178305
     11          6           0       -0.544789   -0.713669   -1.884531
     12          6           0        0.210888   -3.334583    0.698976
     13          6           0       -1.324290   -3.627440    0.489775
     14          6           0       -2.179880   -3.892822    1.765096
     15          8           0       -1.825146   -3.871414    2.955001
     16          8           0       -3.494488   -3.993332    1.368510
     17          7           0        3.290333    2.140986    0.371209
     18          6           0        1.934862    2.259793    0.342345
     19          6           0        1.495433    3.704655    0.455576
     20          6           0        2.737211    4.451393    0.633191
     21          6           0        3.861452    3.413797    0.565261
     22          6           0        0.052384    4.148426    0.365130
     23          6           0        2.992907    5.958928    0.733631
     24          8           0        4.106557    6.418463    1.016159
     25          6           0        1.958958    6.876409    0.319976
     26          7           0        6.227278    1.359153    0.375790
     27          6           0        6.345337    2.724692    0.562206
     28          6           0        7.813546    3.153598    0.873066
     29          6           0        8.528421    1.755983    0.992703
     30          6           0        7.418148    0.795341    0.487812
     31          6           0        8.366600    4.112071   -0.268427
     32          6           0        9.089275    1.465001    2.396028
     33          6           0        9.531356    2.588038    3.343557
     34          7           0        5.366161   -1.291144   -0.197665
     35          6           0        6.754844   -1.513038   -0.364481
     36          6           0        6.998009   -2.874054   -0.789346
     37          6           0        5.744012   -3.452788   -0.802760
     38          6           0        4.794441   -2.507255   -0.477004
     39          6           0        8.245643   -3.566923   -1.094466
     40          6           0        5.031800   -4.679568   -1.100267
     41          8           0        5.447833   -5.774520   -1.501202
     42          6           0        3.474296   -4.445359   -0.855260
     43          6           0        2.737107   -4.853592   -2.021998
     44          8           0        3.050742   -4.594537   -3.181021
     45          8           0        1.530532   -5.421906   -1.647035
     46          6           0        0.735465   -5.876297   -2.822748
     47          6           0       -4.463901   -3.925930    2.362955
     48          6           0       -5.871176   -4.031372    1.760123
     49          6           0       -7.021991   -3.524415    2.251729
     50          6           0       -7.212068   -2.756840    3.503655
     51          6           0       -8.312047   -3.729733    1.390763
     52          6           0       -8.637611   -2.427567    0.552387
     53          6           0      -10.068540   -1.889394    0.782652
     54          6           0      -10.061334   -0.330255    0.713982
     55          6           0      -11.261741    0.196753    1.567048
     56          6           0      -10.155801    0.130369   -0.731922
     57          6           0       -8.927612    0.836539   -1.320959
     58          6           0       -9.114325    2.337901   -1.632921
     59          6           0       -8.388418    3.304590   -0.579622
     60          6           0       -9.296788    3.550607    0.557165
     61          6           0       -7.761945    4.590921   -1.211605
     62          6           0       -6.307204    4.681322   -0.994325
     63          6           0       -5.597772    4.059851   -2.233937
     64          6           0       -4.084455    4.108314   -2.016269
     65          6           0       -3.521599    5.536561   -2.301635
     66          6           0       -3.372684    3.049747   -2.903759
     67          1           0        0.038491    1.517234    0.031356
     68          1           0        5.655352    4.616444    0.913282
     69          1           0        8.818001   -0.748072    0.109913
     70          1           0        0.538848   -2.950436   -1.357633
     71          1           0       -0.574032   -0.894370    0.248420
     72          1           0       -0.390352   -1.426045   -2.695530
     73          1           0       -0.356312    0.282779   -2.281615
     74          1           0       -1.605099   -0.769659   -1.638747
     75          1           0        0.222473   -2.683064    1.572033
     76          1           0        0.693507   -4.282853    0.937508
     77          1           0       -1.339843   -4.539062   -0.108109
     78          1           0       -1.876773   -2.838295   -0.020259
     79          1           0       -0.692955    3.374078    0.184859
     80          1           0       -0.292042    4.828674   -0.413637
     81          1           0       -0.245735    4.637727    1.292431
     82          1           0        1.656936    6.716857   -0.714986
     83          1           0        2.409579    7.869310    0.300660
     84          1           0        1.189015    6.983752    1.084126
     85          1           0        7.746326    3.753924    1.780123
     86          1           0        9.341877    1.689150    0.270081
     87          1           0        9.231549    3.659181   -0.754355
     88          1           0        8.642360    5.074498    0.161145
     89          1           0        7.693656    4.436698   -1.062148
     90          1           0        9.916913    0.762198    2.310132
     91          1           0        8.292251    0.992452    2.968947
     92          1           0       10.542259    2.390426    3.701543
     93          1           0        8.907778    2.623652    4.235570
     94          1           0        9.469800    3.621309    3.001065
     95          1           0        9.034643   -2.933116   -0.690336
     96          1           0        8.310319   -3.670068   -2.178415
     97          1           0        8.276691   -4.602512   -0.755119
     98          1           0        3.109277   -4.995074    0.012281
     99          1           0       -0.159538   -6.277107   -2.346264
    100          1           0        1.129708   -6.633306   -3.500650
    101          1           0        0.443834   -5.025145   -3.438963
    102          1           0       -4.376056   -2.929518    2.796383
    103          1           0       -4.291332   -4.756986    3.046202
    104          1           0       -5.818997   -4.516983    0.785603
    105          1           0       -7.788814   -3.297429    4.254221
    106          1           0       -7.758482   -1.865749    3.195104
    107          1           0       -6.224563   -2.478967    3.872897
    108          1           0       -9.127982   -3.982185    2.067247
    109          1           0       -8.085132   -4.543673    0.702008
    110          1           0       -8.663810   -2.789699   -0.475291
    111          1           0       -7.875921   -1.653499    0.640666
    112          1           0      -10.512730   -2.227699    1.718626
    113          1           0      -10.879095   -2.223123    0.135790
    114          1           0       -9.170753    0.096418    1.175444
    115          1           0      -12.071661   -0.530040    1.622783
    116          1           0      -11.732358    1.147208    1.317326
    117          1           0      -11.024798    0.230404    2.630425
    118          1           0      -11.092906    0.647765   -0.936890
    119          1           0      -10.283581   -0.788823   -1.303292
    120          1           0       -8.652555    0.351897   -2.257874
    121          1           0       -8.074145    0.637578   -0.672198
    122          1           0      -10.200611    2.413088   -1.687602
    123          1           0       -8.814055    2.499717   -2.668154
    124          1           0       -7.664727    2.636913   -0.112487
    125          1           0      -10.357214    3.713323    0.365442
    126          1           0       -8.882467    4.391394    1.114539
    127          1           0       -9.217874    2.752519    1.296007
    128          1           0       -8.116458    5.542984   -0.815933
    129          1           0       -8.033970    4.579857   -2.266732
    130          1           0       -6.000854    4.329349   -0.010261
    131          1           0       -6.014629    5.729557   -0.922555
    132          1           0       -5.838144    4.703157   -3.080712
    133          1           0       -5.929754    3.054839   -2.497174
    134          1           0       -3.894560    3.695040   -1.025544
    135          1           0       -3.406876    6.025978   -1.334331
    136          1           0       -4.169047    6.100524   -2.971867
    137          1           0       -2.508885    5.548258   -2.706845
    138          1           0       -2.946811    2.303762   -2.232607
    139          1           0       -2.535305    3.486097   -3.447795
    140          1           0       -3.916613    2.421469   -3.608601
 ---------------------------------------------------------------------

 SCF Done:  E(RCAM-B3LYP) =  -3007.18213872     A.U. after   18 cycles

 Excitation energies and oscillator strengths:

 Excited State   1:      Singlet-A      1.7106 eV  724.79 nm  f=0.3590  <S**2>=0.000
     245 -> 248        0.16359
     246 -> 247        0.68747
 This state for optimization and/or second-order correction.
 Total Energy, E(TD-HF/TD-DFT) =  -3007.11927409
 Copying the excited state density for this state as the 1-particle RhoCI density.

 Excited State   2:      Singlet-A      2.2542 eV  550.02 nm  f=0.1002  <S**2>=0.000
     245 -> 247        0.62825
     246 -> 248       -0.30002

 Excited State   3:      Singlet-A      3.4266 eV  361.83 nm  f=0.2133  <S**2>=0.000
     240 -> 247       -0.10703
     241 -> 247       -0.26248
     244 -> 247        0.51206
     245 -> 247       -0.16366
     246 -> 248       -0.34036

 Excited State   4:      Singlet-A      3.4536 eV  359.00 nm  f=0.3729  <S**2>=0.000
     244 -> 247        0.41728
     245 -> 247        0.22652
     246 -> 248        0.50795

 Excited State   5:      Singlet-A      3.6224 eV  342.27 nm  f=0.0003  <S**2>=0.000
     243 -> 247        0.55558
     243 -> 249       -0.23465
     243 -> 250       -0.30869

 The electronic state is 1-A.
 Alpha  occ. eigenvalues --  -46.87495 -19.25503 -19.25295 -19.20744 -19.19652
 Alpha  occ. eigenvalues --  -19.19279 -19.17632 -14.42222 -14.41876 -14.40413
 Alpha  occ. eigenvalues --  -14.38723 -10.40525 -10.38574 -10.35808 -10.33962
 Alpha  occ. eigenvalues --  -10.31959 -10.31881 -10.31784 -10.31603 -10.31313
 Alpha  occ. eigenvalues --  -10.31250 -10.31041 -10.30660 -10.30059 -10.29357
 Alpha  occ. eigenvalues --  -10.29325 -10.28680 -10.28408 -10.28340 -10.28289
 Alpha  occ. eigenvalues --  -10.28275 -10.27923 -10.27882 -10.27725 -10.27447
 Alpha  occ. eigenvalues --  -10.27337 -10.27323 -10.27129 -10.26866 -10.26742
 Alpha  occ. eigenvalues --  -10.26542 -10.26439 -10.26370 -10.26368 -10.26295
 Alpha  occ. eigenvalues --  -10.26266 -10.26240 -10.26099 -10.26052 -10.25969
 Alpha  occ. eigenvalues --  -10.25968 -10.25861 -10.25613 -10.25417 -10.25394
 Alpha  occ. eigenvalues --  -10.25289 -10.24944 -10.24930 -10.24928 -10.24807
 Alpha  occ. eigenvalues --  -10.24710 -10.24563 -10.24552 -10.24449 -10.24230
 Alpha  occ. eigenvalues --  -10.23521  -3.16251  -1.91145  -1.90697  -1.90580
 Alpha  occ. eigenvalues --   -1.17572  -1.15608  -1.10226  -1.08213  -1.07845
 Alpha  occ. eigenvalues --   -1.06784  -1.03940  -1.03399  -1.02169  -1.01465
 Alpha  occ. eigenvalues --   -0.91716  -0.90864  -0.90459  -0.89786  -0.89322
 Alpha  occ. eigenvalues --   -0.88517  -0.88288  -0.87942  -0.87350  -0.86867
 Alpha  occ. eigenvalues --   -0.86068  -0.85730  -0.84617  -0.83807  -0.83318
 Alpha  occ. eigenvalues --   -0.83039  -0.82646  -0.81797  -0.81177  -0.80612
 Alpha  occ. eigenvalues --   -0.80074  -0.78675  -0.78232  -0.77236  -0.76269
 Alpha  occ. eigenvalues --   -0.76258  -0.76062  -0.75198  -0.75105  -0.74917
 Alpha  occ. eigenvalues --   -0.73702  -0.72351  -0.71708  -0.70406  -0.69451
 Alpha  occ. eigenvalues --   -0.68817  -0.68297  -0.67160  -0.67106  -0.65714
 Alpha  occ. eigenvalues --   -0.65194  -0.64788  -0.64663  -0.64608  -0.64258
 Alpha  occ. eigenvalues --   -0.63853  -0.63628  -0.63447  -0.61793  -0.60602
 Alpha  occ. eigenvalues --   -0.60448  -0.59570  -0.58620  -0.58448  -0.58281
 Alpha  occ. eigenvalues --   -0.57538  -0.56974  -0.56527  -0.56051  -0.55470
 Alpha  occ. eigenvalues --   -0.55007  -0.54890  -0.54847  -0.54647  -0.54317
 Alpha  occ. eigenvalues --   -0.54213  -0.53899  -0.53743  -0.53498  -0.52930
 Alpha  occ. eigenvalues --   -0.52894  -0.52452  -0.52304  -0.52251  -0.51513
 Alpha  occ. eigenvalues --   -0.51412  -0.51383  -0.51006  -0.50859  -0.50627
 Alpha  occ. eigenvalues --   -0.50491  -0.50406  -0.50216  -0.49977  -0.49599
 Alpha  occ. eigenvalues --   -0.49286  -0.49150  -0.48859  -0.48735  -0.48679
 Alpha  occ. eigenvalues --   -0.48542  -0.48338  -0.48040  -0.47959  -0.47931
 Alpha  occ. eigenvalues --   -0.47409  -0.47309  -0.47170  -0.46944  -0.46646
 Alpha  occ. eigenvalues --   -0.46355  -0.46349  -0.46303  -0.46016  -0.45749
 Alpha  occ. eigenvalues --   -0.45590  -0.45531  -0.45515  -0.45233  -0.44899
 Alpha  occ. eigenvalues --   -0.44852  -0.44642  -0.44533  -0.44149  -0.43966
 Alpha  occ. eigenvalues --   -0.43899  -0.43740  -0.43488  -0.43295  -0.43153
 Alpha  occ. eigenvalues --   -0.42958  -0.42838  -0.42772  -0.42559  -0.42433
 Alpha  occ. eigenvalues --   -0.42336  -0.42120  -0.41797  -0.41563  -0.41406
 Alpha  occ. eigenvalues --   -0.41182  -0.40930  -0.40791  -0.40609  -0.40388
 Alpha  occ. eigenvalues --   -0.39989  -0.39558  -0.39502  -0.39390  -0.38705
 Alpha  occ. eigenvalues --   -0.38666  -0.38582  -0.38316  -0.38080  -0.37888
 Alpha  occ. eigenvalues --   -0.37444  -0.37239  -0.37188  -0.36884  -0.36495
 Alpha  occ. eigenvalues --   -0.36316  -0.36158  -0.34997  -0.34838  -0.34725
 Alpha  occ. eigenvalues --   -0.34675  -0.34151  -0.32497  -0.32012  -0.31384
 Alpha  occ. eigenvalues --   -0.30485  -0.30165  -0.29741  -0.28960  -0.24053
 Alpha  occ. eigenvalues --   -0.20934
 Alpha virt. eigenvalues --   -0.08456  -0.01892   0.00194   0.02585   0.03136
 Alpha virt. eigenvalues --    0.04164   0.04913   0.05386   0.05665   0.06068
 Alpha virt. eigenvalues --    0.06572   0.07513   0.07977   0.08128   0.08618

 Mulliken charges:
               1
     1  Mg   0.849990
     2  C   -0.070342
     3  C   -0.105842
     4  C   -0.051627
     5  C   -0.059311
     6  N   -0.316540
     7  C   -0.000231
     8  C    0.069933
     9  C   -0.130592
    10  C    0.129088
    11  C    0.051930
    12  C    0.082136
    13  C   -0.016914
    14  C    0.191175
    15  O   -0.239939
    16  O   -0.325960
    17  N   -0.401841
    18  C    0.148572
    19  C   -0.098833
    20  C   -0.039950
    21  C    0.159834
    22  C    0.080910
    23  C    0.004372
    24  O   -0.208761
    25  C    0.062721
    26  N   -0.272496
    27  C    0.012348
    28  C   -0.076890
    29  C    0.012089
    30  C    0.008930
    31  C    0.053613
    32  C    0.050077
    33  C   -0.006794
    34  N   -0.391596
    35  C    0.124890
    36  C   -0.201322
    37  C    0.049694
    38  C    0.131004
    39  C    0.138295
    40  C    0.040920
    41  O   -0.192297
    42  C    0.031947
    43  C    0.184084
    44  O   -0.219342
    45  O   -0.353104
    46  C    0.178499
    47  C    0.274551
    48  C   -0.135750
    49  C   -0.201170
    50  C    0.122152
    51  C    0.078321
    52  C    0.034154
    53  C    0.033523
    54  C   -0.148719
    55  C    0.036722
    56  C    0.085057
    57  C    0.000602
    58  C    0.055117
    59  C   -0.092626
    60  C    0.055042
    61  C    0.119033
    62  C   -0.002187
    63  C    0.021701
    64  C   -0.125327
    65  C    0.044556
    66  C    0.033751
    67  H   -0.045458
    68  H   -0.001552
    69  H   -0.020527
    70  H   -0.003254
    71  H    0.016917
    72  H    0.025620
    73  H    0.028577
    74  H    0.011642
    75  H    0.010335
    76  H    0.030743
    77  H    0.041056
    78  H    0.033826
    79  H    0.008894
    80  H    0.029311
    81  H    0.032081
    82  H    0.049058
    83  H    0.018885
    84  H    0.037859
    85  H    0.029837
    86  H    0.002381
    87  H    0.015935
    88  H    0.014544
    89  H    0.025860
    90  H    0.008911
    91  H    0.006769
    92  H    0.014937
    93  H    0.008249
    94  H    0.015215
    95  H    0.003376
    96  H    0.032431
    97  H    0.031304
    98  H    0.041837
    99  H    0.026915
   100  H    0.052213
   101  H    0.032989
   102  H    0.017132
   103  H    0.033247
   104  H   -0.000093
   105  H    0.034265
   106  H    0.013477
   107  H    0.005289
   108  H    0.005362
   109  H    0.001536
   110  H    0.004445
   111  H    0.022611
   112  H   -0.017383
   113  H   -0.004900
   114  H   -0.003829
   115  H   -0.008297
   116  H    0.009808
   117  H   -0.005317
   118  H   -0.011417
   119  H   -0.018789
   120  H   -0.011730
   121  H   -0.012420
   122  H   -0.016368
   123  H   -0.014135
   124  H   -0.009826
   125  H    0.014696
   126  H   -0.010777
   127  H   -0.004959
   128  H   -0.014947
   129  H   -0.012774
   130  H   -0.008991
   131  H   -0.019874
   132  H   -0.003630
   133  H    0.000284
   134  H   -0.005990
   135  H    0.009268
   136  H    0.020794
   137  H    0.006808
   138  H   -0.010540
   139  H   -0.001598
   140  H    0.006811
 Sum of Mulliken charges =  -0.00000

 Dipole moment (field-independent basis, Debye):
    X=             -6.1473    Y=              5.0444    Z=              1.0336  Tot=              8.0190
 Quadrupole moment (field-independent basis, Debye-Ang):
   XX=           -381.1720   YY=           -427.3612   ZZ=           -416.2083
   XY=             29.7255   XZ=             18.1894   YZ=             -5.3874

 Normal termination of Gaussian 16 at Wed May  4 11:29:44 2022.
