 Gaussian 16, Revision A.03,
 Gaussian 16:  ES64L-G16RevA.03 25-Dec-2016

 ---------------------------------
 #p PBE1PBE/Def2SVP td=(nstates=5)
 ---------------------------------

 ------------------------------------------------------
 step_1701_chromophore_12 TDDFT with PBE1PBE functional
 ------------------------------------------------------
 Symbolic Z-matrix:
 Charge =  0 Multiplicity = 1

                         Standard orientation:
 ---------------------------------------------------------------------
 Center     Atomic      Atomic             Coordinates (Angstroms)
 Number     Number       Type             X           Y           Z
 ---------------------------------------------------------------------
      1         12           0        4.344726    0.371483    0.290218
      2          6           0        3.438333   -2.932163   -0.567215
      3          6           0        1.078721    1.190933    0.097899
      4          6           0        5.248828    3.642906    0.630047
      5          6           0        7.752314   -0.515985    0.058981
      6          7           0        2.557460   -0.788673   -0.098159
      7          6           0        2.297070   -2.151312   -0.414491
      8          6           0        0.840446   -2.451833   -0.436918
      9          6           0        0.188669   -1.059369   -0.512678
     10          6           0        1.361557   -0.148379   -0.178305
     11          6           0       -0.544789   -0.713669   -1.884531
     12          6           0        0.210888   -3.334583    0.698976
     13          6           0       -1.324290   -3.627440    0.489775
     14          6           0       -2.179880   -3.892822    1.765096
     15          8           0       -1.825146   -3.871414    2.955001
     16          8           0       -3.494488   -3.993332    1.368510
     17          7           0        3.290333    2.140986    0.371209
     18          6           0        1.934862    2.259793    0.342345
     19          6           0        1.495433    3.704655    0.455576
     20          6           0        2.737211    4.451393    0.633191
     21          6           0        3.861452    3.413797    0.565261
     22          6           0        0.052384    4.148426    0.365130
     23          6           0        2.992907    5.958928    0.733631
     24          8           0        4.106557    6.418463    1.016159
     25          6           0        1.958958    6.876409    0.319976
     26          7           0        6.227278    1.359153    0.375790
     27          6           0        6.345337    2.724692    0.562206
     28          6           0        7.813546    3.153598    0.873066
     29          6           0        8.528421    1.755983    0.992703
     30          6           0        7.418148    0.795341    0.487812
     31          6           0        8.366600    4.112071   -0.268427
     32          6           0        9.089275    1.465001    2.396028
     33          6           0        9.531356    2.588038    3.343557
     34          7           0        5.366161   -1.291144   -0.197665
     35          6           0        6.754844   -1.513038   -0.364481
     36          6           0        6.998009   -2.874054   -0.789346
     37          6           0        5.744012   -3.452788   -0.802760
     38          6           0        4.794441   -2.507255   -0.477004
     39          6           0        8.245643   -3.566923   -1.094466
     40          6           0        5.031800   -4.679568   -1.100267
     41          8           0        5.447833   -5.774520   -1.501202
     42          6           0        3.474296   -4.445359   -0.855260
     43          6           0        2.737107   -4.853592   -2.021998
     44          8           0        3.050742   -4.594537   -3.181021
     45          8           0        1.530532   -5.421906   -1.647035
     46          6           0        0.735465   -5.876297   -2.822748
     47          6           0       -4.463901   -3.925930    2.362955
     48          6           0       -5.871176   -4.031372    1.760123
     49          6           0       -7.021991   -3.524415    2.251729
     50          6           0       -7.212068   -2.756840    3.503655
     51          6           0       -8.312047   -3.729733    1.390763
     52          6           0       -8.637611   -2.427567    0.552387
     53          6           0      -10.068540   -1.889394    0.782652
     54          6           0      -10.061334   -0.330255    0.713982
     55          6           0      -11.261741    0.196753    1.567048
     56          6           0      -10.155801    0.130369   -0.731922
     57          6           0       -8.927612    0.836539   -1.320959
     58          6           0       -9.114325    2.337901   -1.632921
     59          6           0       -8.388418    3.304590   -0.579622
     60          6           0       -9.296788    3.550607    0.557165
     61          6           0       -7.761945    4.590921   -1.211605
     62          6           0       -6.307204    4.681322   -0.994325
     63          6           0       -5.597772    4.059851   -2.233937
     64          6           0       -4.084455    4.108314   -2.016269
     65          6           0       -3.521599    5.536561   -2.301635
     66          6           0       -3.372684    3.049747   -2.903759
     67          1           0        0.038491    1.517234    0.031356
     68          1           0        5.655352    4.616444    0.913282
     69          1           0        8.818001   -0.748072    0.109913
     70          1           0        0.538848   -2.950436   -1.357633
     71          1           0       -0.574032   -0.894370    0.248420
     72          1           0       -0.390352   -1.426045   -2.695530
     73          1           0       -0.356312    0.282779   -2.281615
     74          1           0       -1.605099   -0.769659   -1.638747
     75          1           0        0.222473   -2.683064    1.572033
     76          1           0        0.693507   -4.282853    0.937508
     77          1           0       -1.339843   -4.539062   -0.108109
     78          1           0       -1.876773   -2.838295   -0.020259
     79          1           0       -0.692955    3.374078    0.184859
     80          1           0       -0.292042    4.828674   -0.413637
     81          1           0       -0.245735    4.637727    1.292431
     82          1           0        1.656936    6.716857   -0.714986
     83          1           0        2.409579    7.869310    0.300660
     84          1           0        1.189015    6.983752    1.084126
     85          1           0        7.746326    3.753924    1.780123
     86          1           0        9.341877    1.689150    0.270081
     87          1           0        9.231549    3.659181   -0.754355
     88          1           0        8.642360    5.074498    0.161145
     89          1           0        7.693656    4.436698   -1.062148
     90          1           0        9.916913    0.762198    2.310132
     91          1           0        8.292251    0.992452    2.968947
     92          1           0       10.542259    2.390426    3.701543
     93          1           0        8.907778    2.623652    4.235570
     94          1           0        9.469800    3.621309    3.001065
     95          1           0        9.034643   -2.933116   -0.690336
     96          1           0        8.310319   -3.670068   -2.178415
     97          1           0        8.276691   -4.602512   -0.755119
     98          1           0        3.109277   -4.995074    0.012281
     99          1           0       -0.159538   -6.277107   -2.346264
    100          1           0        1.129708   -6.633306   -3.500650
    101          1           0        0.443834   -5.025145   -3.438963
    102          1           0       -4.376056   -2.929518    2.796383
    103          1           0       -4.291332   -4.756986    3.046202
    104          1           0       -5.818997   -4.516983    0.785603
    105          1           0       -7.788814   -3.297429    4.254221
    106          1           0       -7.758482   -1.865749    3.195104
    107          1           0       -6.224563   -2.478967    3.872897
    108          1           0       -9.127982   -3.982185    2.067247
    109          1           0       -8.085132   -4.543673    0.702008
    110          1           0       -8.663810   -2.789699   -0.475291
    111          1           0       -7.875921   -1.653499    0.640666
    112          1           0      -10.512730   -2.227699    1.718626
    113          1           0      -10.879095   -2.223123    0.135790
    114          1           0       -9.170753    0.096418    1.175444
    115          1           0      -12.071661   -0.530040    1.622783
    116          1           0      -11.732358    1.147208    1.317326
    117          1           0      -11.024798    0.230404    2.630425
    118          1           0      -11.092906    0.647765   -0.936890
    119          1           0      -10.283581   -0.788823   -1.303292
    120          1           0       -8.652555    0.351897   -2.257874
    121          1           0       -8.074145    0.637578   -0.672198
    122          1           0      -10.200611    2.413088   -1.687602
    123          1           0       -8.814055    2.499717   -2.668154
    124          1           0       -7.664727    2.636913   -0.112487
    125          1           0      -10.357214    3.713323    0.365442
    126          1           0       -8.882467    4.391394    1.114539
    127          1           0       -9.217874    2.752519    1.296007
    128          1           0       -8.116458    5.542984   -0.815933
    129          1           0       -8.033970    4.579857   -2.266732
    130          1           0       -6.000854    4.329349   -0.010261
    131          1           0       -6.014629    5.729557   -0.922555
    132          1           0       -5.838144    4.703157   -3.080712
    133          1           0       -5.929754    3.054839   -2.497174
    134          1           0       -3.894560    3.695040   -1.025544
    135          1           0       -3.406876    6.025978   -1.334331
    136          1           0       -4.169047    6.100524   -2.971867
    137          1           0       -2.508885    5.548258   -2.706845
    138          1           0       -2.946811    2.303762   -2.232607
    139          1           0       -2.535305    3.486097   -3.447795
    140          1           0       -3.916613    2.421469   -3.608601
 ---------------------------------------------------------------------

 SCF Done:  E(RPBE1PBE) =  -3005.36991343     A.U. after   16 cycles

 Excitation energies and oscillator strengths:

 Excited State   1:      Singlet-A      1.8156 eV  682.88 nm  f=0.3493  <S**2>=0.000
     245 -> 248       -0.15894
     246 -> 247        0.69369
     246 <- 247       -0.10492
 This state for optimization and/or second-order correction.
 Total Energy, E(TD-HF/TD-DFT) =  -3005.30319114
 Copying the excited state density for this state as the 1-particle RhoCI density.

 Excited State   2:      Singlet-A      2.2415 eV  553.12 nm  f=0.0996  <S**2>=0.000
     245 -> 247        0.64212
     246 -> 248        0.27133
     246 -> 249        0.10015

 Excited State   3:      Singlet-A      2.9632 eV  418.42 nm  f=0.0001  <S**2>=0.000
     243 -> 247        0.14575
     244 -> 247        0.66734

 Excited State   4:      Singlet-A      3.0540 eV  405.98 nm  f=0.0024  <S**2>=0.000
     243 -> 247        0.67493
     244 -> 247       -0.16407

 Excited State   5:      Singlet-A      3.1884 eV  388.87 nm  f=0.2641  <S**2>=0.000
     239 -> 247       -0.12140
     240 -> 247        0.10234
     241 -> 247       -0.10499
     245 -> 247       -0.21333
     246 -> 248        0.60193
     246 -> 249       -0.19190

 The electronic state is 1-A.
 Alpha  occ. eigenvalues --  -46.90955 -19.26222 -19.26033 -19.21076 -19.19609
 Alpha  occ. eigenvalues --  -19.19535 -19.18209 -14.41791 -14.41362 -14.39924
 Alpha  occ. eigenvalues --  -14.38660 -10.37632 -10.35672 -10.32595 -10.31431
 Alpha  occ. eigenvalues --  -10.29314 -10.29193 -10.29172 -10.29108 -10.28732
 Alpha  occ. eigenvalues --  -10.28648 -10.28492 -10.28261 -10.28064 -10.27583
 Alpha  occ. eigenvalues --  -10.26667 -10.26244 -10.26160 -10.26135 -10.26132
 Alpha  occ. eigenvalues --  -10.25986 -10.25827 -10.25625 -10.25424 -10.25142
 Alpha  occ. eigenvalues --  -10.25105 -10.25012 -10.24949 -10.24379 -10.24291
 Alpha  occ. eigenvalues --  -10.24271 -10.24087 -10.24043 -10.23948 -10.23881
 Alpha  occ. eigenvalues --  -10.23760 -10.23731 -10.23679 -10.23541 -10.23513
 Alpha  occ. eigenvalues --  -10.23406 -10.23378 -10.23008 -10.22936 -10.22867
 Alpha  occ. eigenvalues --  -10.22778 -10.22524 -10.22488 -10.22467 -10.22390
 Alpha  occ. eigenvalues --  -10.22057 -10.22048 -10.21990 -10.21963 -10.21633
 Alpha  occ. eigenvalues --  -10.21532  -3.13282  -1.86118  -1.85647  -1.85537
 Alpha  occ. eigenvalues --   -1.12466  -1.10447  -1.04621  -1.03110  -1.02847
 Alpha  occ. eigenvalues --   -1.01729  -0.98557  -0.97987  -0.96781  -0.96218
 Alpha  occ. eigenvalues --   -0.86261  -0.84933  -0.84549  -0.84015  -0.83448
 Alpha  occ. eigenvalues --   -0.82772  -0.82490  -0.82014  -0.81466  -0.81087
 Alpha  occ. eigenvalues --   -0.80632  -0.79996  -0.78742  -0.77950  -0.77640
 Alpha  occ. eigenvalues --   -0.77112  -0.76825  -0.76053  -0.75474  -0.74815
 Alpha  occ. eigenvalues --   -0.74451  -0.72706  -0.72569  -0.71572  -0.70601
 Alpha  occ. eigenvalues --   -0.70320  -0.70276  -0.69472  -0.69304  -0.69030
 Alpha  occ. eigenvalues --   -0.68041  -0.66891  -0.66109  -0.64689  -0.63843
 Alpha  occ. eigenvalues --   -0.63025  -0.62608  -0.61712  -0.61345  -0.59905
 Alpha  occ. eigenvalues --   -0.59680  -0.59350  -0.59158  -0.58690  -0.58440
 Alpha  occ. eigenvalues --   -0.58362  -0.58107  -0.57613  -0.56444  -0.55076
 Alpha  occ. eigenvalues --   -0.54791  -0.54081  -0.53279  -0.53029  -0.52620
 Alpha  occ. eigenvalues --   -0.52091  -0.51697  -0.51031  -0.50607  -0.49893
 Alpha  occ. eigenvalues --   -0.49635  -0.49444  -0.49318  -0.49037  -0.48913
 Alpha  occ. eigenvalues --   -0.48796  -0.48238  -0.47948  -0.47926  -0.47494
 Alpha  occ. eigenvalues --   -0.47389  -0.47096  -0.46776  -0.46750  -0.46163
 Alpha  occ. eigenvalues --   -0.45986  -0.45902  -0.45510  -0.45379  -0.45243
 Alpha  occ. eigenvalues --   -0.45014  -0.44951  -0.44843  -0.44479  -0.44177
 Alpha  occ. eigenvalues --   -0.43860  -0.43713  -0.43507  -0.43360  -0.43257
 Alpha  occ. eigenvalues --   -0.43202  -0.42980  -0.42681  -0.42596  -0.42469
 Alpha  occ. eigenvalues --   -0.42108  -0.41983  -0.41705  -0.41433  -0.41348
 Alpha  occ. eigenvalues --   -0.41052  -0.40944  -0.40888  -0.40779  -0.40528
 Alpha  occ. eigenvalues --   -0.40375  -0.40286  -0.40153  -0.40016  -0.39791
 Alpha  occ. eigenvalues --   -0.39593  -0.39576  -0.39217  -0.38915  -0.38763
 Alpha  occ. eigenvalues --   -0.38496  -0.38472  -0.38233  -0.38005  -0.37951
 Alpha  occ. eigenvalues --   -0.37807  -0.37642  -0.37502  -0.37414  -0.37289
 Alpha  occ. eigenvalues --   -0.37042  -0.36886  -0.36554  -0.36464  -0.36181
 Alpha  occ. eigenvalues --   -0.36109  -0.35799  -0.35640  -0.35527  -0.35368
 Alpha  occ. eigenvalues --   -0.34741  -0.34475  -0.34374  -0.34248  -0.33543
 Alpha  occ. eigenvalues --   -0.33361  -0.33334  -0.33131  -0.33107  -0.32614
 Alpha  occ. eigenvalues --   -0.32459  -0.32217  -0.32082  -0.31899  -0.31394
 Alpha  occ. eigenvalues --   -0.31376  -0.31029  -0.30021  -0.29885  -0.29600
 Alpha  occ. eigenvalues --   -0.29588  -0.29118  -0.28080  -0.26835  -0.26400
 Alpha  occ. eigenvalues --   -0.26002  -0.25467  -0.25020  -0.24783  -0.20916
 Alpha  occ. eigenvalues --   -0.18536
 Alpha virt. eigenvalues --   -0.11000  -0.05465  -0.03870  -0.01914  -0.00537
 Alpha virt. eigenvalues --   -0.00017   0.00268   0.01283   0.01541   0.02554
 Alpha virt. eigenvalues --    0.02864   0.04046   0.04217   0.04753   0.04900

 Mulliken charges:
               1
     1  Mg   1.007261
     2  C   -0.090329
     3  C   -0.092857
     4  C   -0.044652
     5  C   -0.051540
     6  N   -0.418466
     7  C    0.068290
     8  C    0.001563
     9  C   -0.205059
    10  C    0.160849
    11  C   -0.002245
    12  C    0.028398
    13  C   -0.093912
    14  C    0.255662
    15  O   -0.272203
    16  O   -0.359119
    17  N   -0.514270
    18  C    0.168299
    19  C   -0.127355
    20  C   -0.085684
    21  C    0.181628
    22  C    0.028706
    23  C    0.051682
    24  O   -0.247641
    25  C   -0.009196
    26  N   -0.378206
    27  C    0.044147
    28  C   -0.153068
    29  C   -0.067436
    30  C    0.050855
    31  C    0.001638
    32  C   -0.008201
    33  C   -0.078012
    34  N   -0.516898
    35  C    0.153599
    36  C   -0.224096
    37  C   -0.007104
    38  C    0.186271
    39  C    0.082245
    40  C    0.146493
    41  O   -0.234441
    42  C   -0.080276
    43  C    0.280049
    44  O   -0.253595
    45  O   -0.384642
    46  C    0.120215
    47  C    0.238612
    48  C   -0.143756
    49  C   -0.248745
    50  C    0.056293
    51  C    0.016925
    52  C   -0.028221
    53  C   -0.019568
    54  C   -0.241662
    55  C   -0.020966
    56  C    0.038207
    57  C   -0.060219
    58  C    0.002012
    59  C   -0.179289
    60  C   -0.000651
    61  C    0.057773
    62  C   -0.064024
    63  C   -0.032453
    64  C   -0.222318
    65  C   -0.016032
    66  C   -0.021907
    67  H   -0.011550
    68  H    0.029746
    69  H    0.010713
    70  H    0.041562
    71  H    0.052942
    72  H    0.050940
    73  H    0.055830
    74  H    0.037836
    75  H    0.045482
    76  H    0.062024
    77  H    0.074479
    78  H    0.066504
    79  H    0.033252
    80  H    0.053663
    81  H    0.057894
    82  H    0.073892
    83  H    0.045597
    84  H    0.063434
    85  H    0.065726
    86  H    0.038954
    87  H    0.042054
    88  H    0.041151
    89  H    0.052574
    90  H    0.040757
    91  H    0.040353
    92  H    0.043049
    93  H    0.036673
    94  H    0.042557
    95  H    0.033726
    96  H    0.062638
    97  H    0.059799
    98  H    0.078671
    99  H    0.049241
   100  H    0.074223
   101  H    0.054873
   102  H    0.044149
   103  H    0.060632
   104  H    0.029451
   105  H    0.061508
   106  H    0.043789
   107  H    0.033253
   108  H    0.037298
   109  H    0.033473
   110  H    0.038183
   111  H    0.053274
   112  H    0.014568
   113  H    0.026966
   114  H    0.032992
   115  H    0.019534
   116  H    0.036845
   117  H    0.023335
   118  H    0.019197
   119  H    0.014615
   120  H    0.021516
   121  H    0.019344
   122  H    0.016563
   123  H    0.017177
   124  H    0.027846
   125  H    0.040478
   126  H    0.018411
   127  H    0.025244
   128  H    0.017326
   129  H    0.019791
   130  H    0.022126
   131  H    0.014304
   132  H    0.029527
   133  H    0.033295
   134  H    0.031959
   135  H    0.036928
   136  H    0.046588
   137  H    0.034237
   138  H    0.017363
   139  H    0.025666
   140  H    0.032633
 Sum of Mulliken charges =  -0.00000

 Dipole moment (field-independent basis, Debye):
    X=             -5.7272    Y=              4.3380    Z=              0.9688  Tot=              7.2497
 Quadrupole moment (field-independent basis, Debye-Ang):
   XX=           -371.5080   YY=           -425.8404   ZZ=           -413.5111
   XY=             27.3644   XZ=             18.0028   YZ=             -5.0729

 Normal termination of Gaussian 16 at Wed May  4 11:54:17 2022.
