 Gaussian 16, Revision A.03,
 Gaussian 16:  ES64L-G16RevA.03 25-Dec-2016

 --------------------------------
 #p wB97XD/Def2SVP td=(nstates=5)
 --------------------------------

 -----------------------------------------------------
 step_1701_chromophore_12 TDDFT with wB97XD functional
 -----------------------------------------------------
 Symbolic Z-matrix:
 Charge =  0 Multiplicity = 1

                         Standard orientation:
 ---------------------------------------------------------------------
 Center     Atomic      Atomic             Coordinates (Angstroms)
 Number     Number       Type             X           Y           Z
 ---------------------------------------------------------------------
      1         12           0        4.344726    0.371483    0.290218
      2          6           0        3.438333   -2.932163   -0.567215
      3          6           0        1.078721    1.190933    0.097899
      4          6           0        5.248828    3.642906    0.630047
      5          6           0        7.752314   -0.515985    0.058981
      6          7           0        2.557460   -0.788673   -0.098159
      7          6           0        2.297070   -2.151312   -0.414491
      8          6           0        0.840446   -2.451833   -0.436918
      9          6           0        0.188669   -1.059369   -0.512678
     10          6           0        1.361557   -0.148379   -0.178305
     11          6           0       -0.544789   -0.713669   -1.884531
     12          6           0        0.210888   -3.334583    0.698976
     13          6           0       -1.324290   -3.627440    0.489775
     14          6           0       -2.179880   -3.892822    1.765096
     15          8           0       -1.825146   -3.871414    2.955001
     16          8           0       -3.494488   -3.993332    1.368510
     17          7           0        3.290333    2.140986    0.371209
     18          6           0        1.934862    2.259793    0.342345
     19          6           0        1.495433    3.704655    0.455576
     20          6           0        2.737211    4.451393    0.633191
     21          6           0        3.861452    3.413797    0.565261
     22          6           0        0.052384    4.148426    0.365130
     23          6           0        2.992907    5.958928    0.733631
     24          8           0        4.106557    6.418463    1.016159
     25          6           0        1.958958    6.876409    0.319976
     26          7           0        6.227278    1.359153    0.375790
     27          6           0        6.345337    2.724692    0.562206
     28          6           0        7.813546    3.153598    0.873066
     29          6           0        8.528421    1.755983    0.992703
     30          6           0        7.418148    0.795341    0.487812
     31          6           0        8.366600    4.112071   -0.268427
     32          6           0        9.089275    1.465001    2.396028
     33          6           0        9.531356    2.588038    3.343557
     34          7           0        5.366161   -1.291144   -0.197665
     35          6           0        6.754844   -1.513038   -0.364481
     36          6           0        6.998009   -2.874054   -0.789346
     37          6           0        5.744012   -3.452788   -0.802760
     38          6           0        4.794441   -2.507255   -0.477004
     39          6           0        8.245643   -3.566923   -1.094466
     40          6           0        5.031800   -4.679568   -1.100267
     41          8           0        5.447833   -5.774520   -1.501202
     42          6           0        3.474296   -4.445359   -0.855260
     43          6           0        2.737107   -4.853592   -2.021998
     44          8           0        3.050742   -4.594537   -3.181021
     45          8           0        1.530532   -5.421906   -1.647035
     46          6           0        0.735465   -5.876297   -2.822748
     47          6           0       -4.463901   -3.925930    2.362955
     48          6           0       -5.871176   -4.031372    1.760123
     49          6           0       -7.021991   -3.524415    2.251729
     50          6           0       -7.212068   -2.756840    3.503655
     51          6           0       -8.312047   -3.729733    1.390763
     52          6           0       -8.637611   -2.427567    0.552387
     53          6           0      -10.068540   -1.889394    0.782652
     54          6           0      -10.061334   -0.330255    0.713982
     55          6           0      -11.261741    0.196753    1.567048
     56          6           0      -10.155801    0.130369   -0.731922
     57          6           0       -8.927612    0.836539   -1.320959
     58          6           0       -9.114325    2.337901   -1.632921
     59          6           0       -8.388418    3.304590   -0.579622
     60          6           0       -9.296788    3.550607    0.557165
     61          6           0       -7.761945    4.590921   -1.211605
     62          6           0       -6.307204    4.681322   -0.994325
     63          6           0       -5.597772    4.059851   -2.233937
     64          6           0       -4.084455    4.108314   -2.016269
     65          6           0       -3.521599    5.536561   -2.301635
     66          6           0       -3.372684    3.049747   -2.903759
     67          1           0        0.038491    1.517234    0.031356
     68          1           0        5.655352    4.616444    0.913282
     69          1           0        8.818001   -0.748072    0.109913
     70          1           0        0.538848   -2.950436   -1.357633
     71          1           0       -0.574032   -0.894370    0.248420
     72          1           0       -0.390352   -1.426045   -2.695530
     73          1           0       -0.356312    0.282779   -2.281615
     74          1           0       -1.605099   -0.769659   -1.638747
     75          1           0        0.222473   -2.683064    1.572033
     76          1           0        0.693507   -4.282853    0.937508
     77          1           0       -1.339843   -4.539062   -0.108109
     78          1           0       -1.876773   -2.838295   -0.020259
     79          1           0       -0.692955    3.374078    0.184859
     80          1           0       -0.292042    4.828674   -0.413637
     81          1           0       -0.245735    4.637727    1.292431
     82          1           0        1.656936    6.716857   -0.714986
     83          1           0        2.409579    7.869310    0.300660
     84          1           0        1.189015    6.983752    1.084126
     85          1           0        7.746326    3.753924    1.780123
     86          1           0        9.341877    1.689150    0.270081
     87          1           0        9.231549    3.659181   -0.754355
     88          1           0        8.642360    5.074498    0.161145
     89          1           0        7.693656    4.436698   -1.062148
     90          1           0        9.916913    0.762198    2.310132
     91          1           0        8.292251    0.992452    2.968947
     92          1           0       10.542259    2.390426    3.701543
     93          1           0        8.907778    2.623652    4.235570
     94          1           0        9.469800    3.621309    3.001065
     95          1           0        9.034643   -2.933116   -0.690336
     96          1           0        8.310319   -3.670068   -2.178415
     97          1           0        8.276691   -4.602512   -0.755119
     98          1           0        3.109277   -4.995074    0.012281
     99          1           0       -0.159538   -6.277107   -2.346264
    100          1           0        1.129708   -6.633306   -3.500650
    101          1           0        0.443834   -5.025145   -3.438963
    102          1           0       -4.376056   -2.929518    2.796383
    103          1           0       -4.291332   -4.756986    3.046202
    104          1           0       -5.818997   -4.516983    0.785603
    105          1           0       -7.788814   -3.297429    4.254221
    106          1           0       -7.758482   -1.865749    3.195104
    107          1           0       -6.224563   -2.478967    3.872897
    108          1           0       -9.127982   -3.982185    2.067247
    109          1           0       -8.085132   -4.543673    0.702008
    110          1           0       -8.663810   -2.789699   -0.475291
    111          1           0       -7.875921   -1.653499    0.640666
    112          1           0      -10.512730   -2.227699    1.718626
    113          1           0      -10.879095   -2.223123    0.135790
    114          1           0       -9.170753    0.096418    1.175444
    115          1           0      -12.071661   -0.530040    1.622783
    116          1           0      -11.732358    1.147208    1.317326
    117          1           0      -11.024798    0.230404    2.630425
    118          1           0      -11.092906    0.647765   -0.936890
    119          1           0      -10.283581   -0.788823   -1.303292
    120          1           0       -8.652555    0.351897   -2.257874
    121          1           0       -8.074145    0.637578   -0.672198
    122          1           0      -10.200611    2.413088   -1.687602
    123          1           0       -8.814055    2.499717   -2.668154
    124          1           0       -7.664727    2.636913   -0.112487
    125          1           0      -10.357214    3.713323    0.365442
    126          1           0       -8.882467    4.391394    1.114539
    127          1           0       -9.217874    2.752519    1.296007
    128          1           0       -8.116458    5.542984   -0.815933
    129          1           0       -8.033970    4.579857   -2.266732
    130          1           0       -6.000854    4.329349   -0.010261
    131          1           0       -6.014629    5.729557   -0.922555
    132          1           0       -5.838144    4.703157   -3.080712
    133          1           0       -5.929754    3.054839   -2.497174
    134          1           0       -3.894560    3.695040   -1.025544
    135          1           0       -3.406876    6.025978   -1.334331
    136          1           0       -4.169047    6.100524   -2.971867
    137          1           0       -2.508885    5.548258   -2.706845
    138          1           0       -2.946811    2.303762   -2.232607
    139          1           0       -2.535305    3.486097   -3.447795
    140          1           0       -3.916613    2.421469   -3.608601
 ---------------------------------------------------------------------

 SCF Done:  E(RwB97XD) =  -3007.88127633     A.U. after   19 cycles

 Excitation energies and oscillator strengths:

 Excited State   1:      Singlet-A      1.6821 eV  737.10 nm  f=0.3577  <S**2>=0.000
     245 -> 248        0.16669
     246 -> 247        0.68532
     245 <- 248        0.10518
 This state for optimization and/or second-order correction.
 Total Energy, E(TD-HF/TD-DFT) =  -3007.81946193
 Copying the excited state density for this state as the 1-particle RhoCI density.

 Excited State   2:      Singlet-A      2.2062 eV  561.98 nm  f=0.0986  <S**2>=0.000
     245 -> 247        0.62627
     246 -> 248       -0.29982

 Excited State   3:      Singlet-A      3.4516 eV  359.21 nm  f=0.4184  <S**2>=0.000
     240 -> 247        0.15013
     241 -> 247        0.31042
     244 -> 247       -0.27909
     245 -> 247        0.22352
     246 -> 248        0.49033

 Excited State   4:      Singlet-A      3.5011 eV  354.13 nm  f=0.1713  <S**2>=0.000
     241 -> 247       -0.11356
     244 -> 247        0.56879
     245 -> 247        0.15302
     246 -> 248        0.34274

 Excited State   5:      Singlet-A      3.6177 eV  342.71 nm  f=0.0004  <S**2>=0.000
     239 -> 247        0.51272
     239 -> 248       -0.24579
     239 -> 249        0.36792
     239 -> 250        0.12728

 The electronic state is 1-A.
 Alpha  occ. eigenvalues --  -46.93855 -19.30681 -19.30557 -19.25701 -19.24760
 Alpha  occ. eigenvalues --  -19.24171 -19.22611 -14.46851 -14.46462 -14.45070
 Alpha  occ. eigenvalues --  -14.43309 -10.44361 -10.42356 -10.39836 -10.37919
 Alpha  occ. eigenvalues --  -10.36153 -10.35729 -10.35665 -10.35614 -10.35415
 Alpha  occ. eigenvalues --  -10.35406 -10.35355 -10.34646 -10.33998 -10.33599
 Alpha  occ. eigenvalues --  -10.33271 -10.32618 -10.32494 -10.32427 -10.32336
 Alpha  occ. eigenvalues --  -10.32300 -10.31971 -10.31822 -10.31759 -10.31430
 Alpha  occ. eigenvalues --  -10.31349 -10.31289 -10.31152 -10.30844 -10.30768
 Alpha  occ. eigenvalues --  -10.30625 -10.30423 -10.30273 -10.30262 -10.30208
 Alpha  occ. eigenvalues --  -10.30197 -10.30166 -10.30068 -10.30066 -10.29927
 Alpha  occ. eigenvalues --  -10.29859 -10.29853 -10.29482 -10.29389 -10.29232
 Alpha  occ. eigenvalues --  -10.29209 -10.28884 -10.28867 -10.28849 -10.28581
 Alpha  occ. eigenvalues --  -10.28554 -10.28493 -10.28420 -10.28390 -10.28051
 Alpha  occ. eigenvalues --  -10.27445  -3.20017  -1.93607  -1.93137  -1.93022
 Alpha  occ. eigenvalues --   -1.19794  -1.17727  -1.12511  -1.10417  -1.09992
 Alpha  occ. eigenvalues --   -1.08941  -1.05937  -1.05407  -1.04252  -1.03463
 Alpha  occ. eigenvalues --   -0.93638  -0.92644  -0.92261  -0.91635  -0.91138
 Alpha  occ. eigenvalues --   -0.90430  -0.90206  -0.89738  -0.89367  -0.88801
 Alpha  occ. eigenvalues --   -0.87951  -0.87638  -0.86453  -0.85767  -0.85226
 Alpha  occ. eigenvalues --   -0.84931  -0.84521  -0.83677  -0.83061  -0.82485
 Alpha  occ. eigenvalues --   -0.82038  -0.80701  -0.80116  -0.79117  -0.78140
 Alpha  occ. eigenvalues --   -0.78088  -0.77948  -0.77079  -0.77016  -0.76767
 Alpha  occ. eigenvalues --   -0.75637  -0.74307  -0.73680  -0.72358  -0.71370
 Alpha  occ. eigenvalues --   -0.70717  -0.70297  -0.69176  -0.69004  -0.67584
 Alpha  occ. eigenvalues --   -0.67151  -0.66779  -0.66617  -0.66420  -0.66100
 Alpha  occ. eigenvalues --   -0.65852  -0.65586  -0.65302  -0.63745  -0.62607
 Alpha  occ. eigenvalues --   -0.62451  -0.61518  -0.60610  -0.60414  -0.60138
 Alpha  occ. eigenvalues --   -0.59436  -0.58965  -0.58532  -0.58006  -0.57435
 Alpha  occ. eigenvalues --   -0.56950  -0.56819  -0.56741  -0.56540  -0.56172
 Alpha  occ. eigenvalues --   -0.56124  -0.55878  -0.55663  -0.55389  -0.54878
 Alpha  occ. eigenvalues --   -0.54800  -0.54378  -0.54224  -0.54187  -0.53486
 Alpha  occ. eigenvalues --   -0.53322  -0.53296  -0.52899  -0.52816  -0.52543
 Alpha  occ. eigenvalues --   -0.52413  -0.52318  -0.52166  -0.51913  -0.51527
 Alpha  occ. eigenvalues --   -0.51204  -0.51056  -0.50792  -0.50679  -0.50573
 Alpha  occ. eigenvalues --   -0.50446  -0.50244  -0.49947  -0.49879  -0.49820
 Alpha  occ. eigenvalues --   -0.49307  -0.49219  -0.49149  -0.48805  -0.48591
 Alpha  occ. eigenvalues --   -0.48323  -0.48250  -0.48192  -0.47940  -0.47663
 Alpha  occ. eigenvalues --   -0.47489  -0.47418  -0.47406  -0.47180  -0.46792
 Alpha  occ. eigenvalues --   -0.46744  -0.46485  -0.46401  -0.46097  -0.45883
 Alpha  occ. eigenvalues --   -0.45781  -0.45679  -0.45433  -0.45176  -0.45120
 Alpha  occ. eigenvalues --   -0.44879  -0.44786  -0.44673  -0.44471  -0.44432
 Alpha  occ. eigenvalues --   -0.44274  -0.44021  -0.43678  -0.43518  -0.43319
 Alpha  occ. eigenvalues --   -0.43091  -0.42803  -0.42727  -0.42494  -0.42293
 Alpha  occ. eigenvalues --   -0.41857  -0.41476  -0.41372  -0.41279  -0.40557
 Alpha  occ. eigenvalues --   -0.40552  -0.40432  -0.40186  -0.40009  -0.39731
 Alpha  occ. eigenvalues --   -0.39437  -0.39249  -0.39085  -0.38876  -0.38424
 Alpha  occ. eigenvalues --   -0.38370  -0.38016  -0.36846  -0.36785  -0.36621
 Alpha  occ. eigenvalues --   -0.36582  -0.36086  -0.34694  -0.34005  -0.33635
 Alpha  occ. eigenvalues --   -0.32720  -0.32205  -0.31651  -0.31049  -0.25998
 Alpha  occ. eigenvalues --   -0.22766
 Alpha virt. eigenvalues --   -0.06775   0.00039   0.02210   0.04735   0.06147
 Alpha virt. eigenvalues --    0.06422   0.07126   0.07776   0.08269   0.09071
 Alpha virt. eigenvalues --    0.09493   0.10309   0.11146   0.11383   0.11703

 Mulliken charges:
               1
     1  Mg   0.992644
     2  C   -0.085479
     3  C   -0.112547
     4  C   -0.064929
     5  C   -0.065505
     6  N   -0.386795
     7  C    0.031683
     8  C    0.033893
     9  C   -0.180916
    10  C    0.153612
    11  C    0.007963
    12  C    0.042799
    13  C   -0.076731
    14  C    0.246118
    15  O   -0.269537
    16  O   -0.357487
    17  N   -0.484243
    18  C    0.167816
    19  C   -0.116878
    20  C   -0.079257
    21  C    0.180838
    22  C    0.036383
    23  C    0.052618
    24  O   -0.239320
    25  C   -0.003698
    26  N   -0.344631
    27  C    0.037903
    28  C   -0.128197
    29  C   -0.038500
    30  C    0.029489
    31  C    0.010023
    32  C    0.003397
    33  C   -0.063182
    34  N   -0.481534
    35  C    0.139025
    36  C   -0.219243
    37  C    0.000850
    38  C    0.166435
    39  C    0.094219
    40  C    0.122027
    41  O   -0.228269
    42  C   -0.041108
    43  C    0.255440
    44  O   -0.248879
    45  O   -0.382903
    46  C    0.134936
    47  C    0.250295
    48  C   -0.155077
    49  C   -0.232382
    50  C    0.072048
    51  C    0.035535
    52  C   -0.013866
    53  C   -0.002041
    54  C   -0.206420
    55  C   -0.008973
    56  C    0.047429
    57  C   -0.042388
    58  C    0.017373
    59  C   -0.147614
    60  C    0.010287
    61  C    0.074165
    62  C   -0.047870
    63  C   -0.015692
    64  C   -0.190918
    65  C   -0.004484
    66  C   -0.011541
    67  H   -0.023060
    68  H    0.025914
    69  H    0.005969
    70  H    0.019718
    71  H    0.041619
    72  H    0.047472
    73  H    0.049839
    74  H    0.031812
    75  H    0.034130
    76  H    0.056614
    77  H    0.068563
    78  H    0.057145
    79  H    0.032624
    80  H    0.052142
    81  H    0.054927
    82  H    0.071029
    83  H    0.045463
    84  H    0.061074
    85  H    0.054056
    86  H    0.028901
    87  H    0.037372
    88  H    0.035949
    89  H    0.046934
    90  H    0.034391
    91  H    0.031617
    92  H    0.038047
    93  H    0.030520
    94  H    0.034383
    95  H    0.024736
    96  H    0.055690
    97  H    0.054496
    98  H    0.072360
    99  H    0.045587
   100  H    0.070924
   101  H    0.050183
   102  H    0.036705
   103  H    0.056338
   104  H    0.026928
   105  H    0.057135
   106  H    0.034951
   107  H    0.026867
   108  H    0.028974
   109  H    0.026955
   110  H    0.030561
   111  H    0.042174
   112  H    0.003862
   113  H    0.018206
   114  H    0.016455
   115  H    0.012551
   116  H    0.031059
   117  H    0.017304
   118  H    0.010619
   119  H    0.004772
   120  H    0.015296
   121  H    0.006531
   122  H    0.005419
   123  H    0.009547
   124  H    0.012017
   125  H    0.035165
   126  H    0.011559
   127  H    0.016318
   128  H    0.010980
   129  H    0.010058
   130  H    0.013433
   131  H    0.005541
   132  H    0.018406
   133  H    0.023221
   134  H    0.019917
   135  H    0.030041
   136  H    0.041217
   137  H    0.027606
   138  H    0.011232
   139  H    0.018668
   140  H    0.028062
 Sum of Mulliken charges =  -0.00000

 Dipole moment (field-independent basis, Debye):
    X=             -6.3807    Y=              5.3567    Z=              1.0739  Tot=              8.4001
 Quadrupole moment (field-independent basis, Debye-Ang):
   XX=           -376.6842   YY=           -423.0950   ZZ=           -413.4842
   XY=             30.7141   XZ=             18.5556   YZ=             -5.1117

 Normal termination of Gaussian 16 at Wed May  4 12:30:13 2022.
