 Gaussian 16, Revision A.03,
 Gaussian 16:  ES64L-G16RevA.03 25-Dec-2016

 --------------------
 #p ZINDO=(nstates=5)
 --------------------

 ------------------------------
 step_1701_chromophore_12 ZINDO
 ------------------------------
 Symbolic Z-matrix:
 Charge =  0 Multiplicity = 1

                         Standard orientation:
 ---------------------------------------------------------------------
 Center     Atomic      Atomic             Coordinates (Angstroms)
 Number     Number       Type             X           Y           Z
 ---------------------------------------------------------------------
      1         12           0        4.344726    0.371483    0.290218
      2          6           0        3.438333   -2.932163   -0.567215
      3          6           0        1.078721    1.190933    0.097899
      4          6           0        5.248828    3.642906    0.630047
      5          6           0        7.752314   -0.515985    0.058981
      6          7           0        2.557460   -0.788673   -0.098159
      7          6           0        2.297070   -2.151312   -0.414491
      8          6           0        0.840446   -2.451833   -0.436918
      9          6           0        0.188669   -1.059369   -0.512678
     10          6           0        1.361557   -0.148379   -0.178305
     11          6           0       -0.544789   -0.713669   -1.884531
     12          6           0        0.210888   -3.334583    0.698976
     13          6           0       -1.324290   -3.627440    0.489775
     14          6           0       -2.179880   -3.892822    1.765096
     15          8           0       -1.825146   -3.871414    2.955001
     16          8           0       -3.494488   -3.993332    1.368510
     17          7           0        3.290333    2.140986    0.371209
     18          6           0        1.934862    2.259793    0.342345
     19          6           0        1.495433    3.704655    0.455576
     20          6           0        2.737211    4.451393    0.633191
     21          6           0        3.861452    3.413797    0.565261
     22          6           0        0.052384    4.148426    0.365130
     23          6           0        2.992907    5.958928    0.733631
     24          8           0        4.106557    6.418463    1.016159
     25          6           0        1.958958    6.876409    0.319976
     26          7           0        6.227278    1.359153    0.375790
     27          6           0        6.345337    2.724692    0.562206
     28          6           0        7.813546    3.153598    0.873066
     29          6           0        8.528421    1.755983    0.992703
     30          6           0        7.418148    0.795341    0.487812
     31          6           0        8.366600    4.112071   -0.268427
     32          6           0        9.089275    1.465001    2.396028
     33          6           0        9.531356    2.588038    3.343557
     34          7           0        5.366161   -1.291144   -0.197665
     35          6           0        6.754844   -1.513038   -0.364481
     36          6           0        6.998009   -2.874054   -0.789346
     37          6           0        5.744012   -3.452788   -0.802760
     38          6           0        4.794441   -2.507255   -0.477004
     39          6           0        8.245643   -3.566923   -1.094466
     40          6           0        5.031800   -4.679568   -1.100267
     41          8           0        5.447833   -5.774520   -1.501202
     42          6           0        3.474296   -4.445359   -0.855260
     43          6           0        2.737107   -4.853592   -2.021998
     44          8           0        3.050742   -4.594537   -3.181021
     45          8           0        1.530532   -5.421906   -1.647035
     46          6           0        0.735465   -5.876297   -2.822748
     47          6           0       -4.463901   -3.925930    2.362955
     48          6           0       -5.871176   -4.031372    1.760123
     49          6           0       -7.021991   -3.524415    2.251729
     50          6           0       -7.212068   -2.756840    3.503655
     51          6           0       -8.312047   -3.729733    1.390763
     52          6           0       -8.637611   -2.427567    0.552387
     53          6           0      -10.068540   -1.889394    0.782652
     54          6           0      -10.061334   -0.330255    0.713982
     55          6           0      -11.261741    0.196753    1.567048
     56          6           0      -10.155801    0.130369   -0.731922
     57          6           0       -8.927612    0.836539   -1.320959
     58          6           0       -9.114325    2.337901   -1.632921
     59          6           0       -8.388418    3.304590   -0.579622
     60          6           0       -9.296788    3.550607    0.557165
     61          6           0       -7.761945    4.590921   -1.211605
     62          6           0       -6.307204    4.681322   -0.994325
     63          6           0       -5.597772    4.059851   -2.233937
     64          6           0       -4.084455    4.108314   -2.016269
     65          6           0       -3.521599    5.536561   -2.301635
     66          6           0       -3.372684    3.049747   -2.903759
     67          1           0        0.038491    1.517234    0.031356
     68          1           0        5.655352    4.616444    0.913282
     69          1           0        8.818001   -0.748072    0.109913
     70          1           0        0.538848   -2.950436   -1.357633
     71          1           0       -0.574032   -0.894370    0.248420
     72          1           0       -0.390352   -1.426045   -2.695530
     73          1           0       -0.356312    0.282779   -2.281615
     74          1           0       -1.605099   -0.769659   -1.638747
     75          1           0        0.222473   -2.683064    1.572033
     76          1           0        0.693507   -4.282853    0.937508
     77          1           0       -1.339843   -4.539062   -0.108109
     78          1           0       -1.876773   -2.838295   -0.020259
     79          1           0       -0.692955    3.374078    0.184859
     80          1           0       -0.292042    4.828674   -0.413637
     81          1           0       -0.245735    4.637727    1.292431
     82          1           0        1.656936    6.716857   -0.714986
     83          1           0        2.409579    7.869310    0.300660
     84          1           0        1.189015    6.983752    1.084126
     85          1           0        7.746326    3.753924    1.780123
     86          1           0        9.341877    1.689150    0.270081
     87          1           0        9.231549    3.659181   -0.754355
     88          1           0        8.642360    5.074498    0.161145
     89          1           0        7.693656    4.436698   -1.062148
     90          1           0        9.916913    0.762198    2.310132
     91          1           0        8.292251    0.992452    2.968947
     92          1           0       10.542259    2.390426    3.701543
     93          1           0        8.907778    2.623652    4.235570
     94          1           0        9.469800    3.621309    3.001065
     95          1           0        9.034643   -2.933116   -0.690336
     96          1           0        8.310319   -3.670068   -2.178415
     97          1           0        8.276691   -4.602512   -0.755119
     98          1           0        3.109277   -4.995074    0.012281
     99          1           0       -0.159538   -6.277107   -2.346264
    100          1           0        1.129708   -6.633306   -3.500650
    101          1           0        0.443834   -5.025145   -3.438963
    102          1           0       -4.376056   -2.929518    2.796383
    103          1           0       -4.291332   -4.756986    3.046202
    104          1           0       -5.818997   -4.516983    0.785603
    105          1           0       -7.788814   -3.297429    4.254221
    106          1           0       -7.758482   -1.865749    3.195104
    107          1           0       -6.224563   -2.478967    3.872897
    108          1           0       -9.127982   -3.982185    2.067247
    109          1           0       -8.085132   -4.543673    0.702008
    110          1           0       -8.663810   -2.789699   -0.475291
    111          1           0       -7.875921   -1.653499    0.640666
    112          1           0      -10.512730   -2.227699    1.718626
    113          1           0      -10.879095   -2.223123    0.135790
    114          1           0       -9.170753    0.096418    1.175444
    115          1           0      -12.071661   -0.530040    1.622783
    116          1           0      -11.732358    1.147208    1.317326
    117          1           0      -11.024798    0.230404    2.630425
    118          1           0      -11.092906    0.647765   -0.936890
    119          1           0      -10.283581   -0.788823   -1.303292
    120          1           0       -8.652555    0.351897   -2.257874
    121          1           0       -8.074145    0.637578   -0.672198
    122          1           0      -10.200611    2.413088   -1.687602
    123          1           0       -8.814055    2.499717   -2.668154
    124          1           0       -7.664727    2.636913   -0.112487
    125          1           0      -10.357214    3.713323    0.365442
    126          1           0       -8.882467    4.391394    1.114539
    127          1           0       -9.217874    2.752519    1.296007
    128          1           0       -8.116458    5.542984   -0.815933
    129          1           0       -8.033970    4.579857   -2.266732
    130          1           0       -6.000854    4.329349   -0.010261
    131          1           0       -6.014629    5.729557   -0.922555
    132          1           0       -5.838144    4.703157   -3.080712
    133          1           0       -5.929754    3.054839   -2.497174
    134          1           0       -3.894560    3.695040   -1.025544
    135          1           0       -3.406876    6.025978   -1.334331
    136          1           0       -4.169047    6.100524   -2.971867
    137          1           0       -2.508885    5.548258   -2.706845
    138          1           0       -2.946811    2.303762   -2.232607
    139          1           0       -2.535305    3.486097   -3.447795
    140          1           0       -3.916613    2.421469   -3.608601
 ---------------------------------------------------------------------

 SCF Done:  E(RZINDO/S) =  -474.183199278     A.U. after   19 cycles

 Excitation energies and oscillator strengths:

 Excited State   1:      Singlet-A      1.3242 eV  936.29 nm  f=0.5211  <S**2>=0.000
     175 ->178         0.15388
     176 ->177         0.67160
 This state for optimization and/or second-order correction.
 Total Energy, E(CIS/TDA) =  -474.134535558
 Copying the excited state density for this state as the 1-particle RhoCI density.

 Excited State   2:      Singlet-A      1.9712 eV  628.99 nm  f=0.0189  <S**2>=0.000
     175 ->177         0.51066
     176 ->178        -0.44430
     176 ->179         0.11035

 Excited State   3:      Singlet-A      2.9154 eV  425.27 nm  f=0.0007  <S**2>=0.000
     167 ->179        -0.10026
     168 ->177         0.32586
     168 ->178        -0.22408
     168 ->179        -0.42746
     168 ->181         0.17797
     168 ->185        -0.21353

 Excited State   4:      Singlet-A      2.9724 eV  417.12 nm  f=0.8458  <S**2>=0.000
     175 ->177         0.37077
     176 ->178         0.50165
     176 ->179         0.25696

 Excited State   5:      Singlet-A      3.0683 eV  404.08 nm  f=0.2511  <S**2>=0.000
     171 ->177        -0.15437
     171 ->179        -0.14579
     171 ->181        -0.26132
     171 ->185        -0.13923
     171 ->188        -0.12021
     175 ->177        -0.18172
     176 ->178        -0.10906
     176 ->179         0.42028
     176 ->181         0.24088

 The electronic state is 1-A.
 Alpha  occ. eigenvalues --   -1.83032  -1.79764  -1.78359  -1.75142  -1.71609
 Alpha  occ. eigenvalues --   -1.69429  -1.66800  -1.62428  -1.60494  -1.56839
 Alpha  occ. eigenvalues --   -1.55407  -1.51740  -1.49218  -1.46187  -1.45540
 Alpha  occ. eigenvalues --   -1.43480  -1.43226  -1.40217  -1.39404  -1.37510
 Alpha  occ. eigenvalues --   -1.34831  -1.33557  -1.32443  -1.31494  -1.29812
 Alpha  occ. eigenvalues --   -1.27805  -1.24791  -1.22821  -1.21738  -1.18769
 Alpha  occ. eigenvalues --   -1.17200  -1.16709  -1.15797  -1.14884  -1.14067
 Alpha  occ. eigenvalues --   -1.12986  -1.12039  -1.11182  -1.04867  -1.03982
 Alpha  occ. eigenvalues --   -1.03166  -1.01154  -0.99499  -0.98577  -0.97193
 Alpha  occ. eigenvalues --   -0.96061  -0.95150  -0.94277  -0.92278  -0.91519
 Alpha  occ. eigenvalues --   -0.91345  -0.90679  -0.90132  -0.88266  -0.87792
 Alpha  occ. eigenvalues --   -0.85829  -0.83866  -0.83439  -0.82175  -0.80340
 Alpha  occ. eigenvalues --   -0.79968  -0.78755  -0.77580  -0.77257  -0.76294
 Alpha  occ. eigenvalues --   -0.75567  -0.75309  -0.74670  -0.74117  -0.73778
 Alpha  occ. eigenvalues --   -0.73610  -0.72928  -0.72428  -0.71907  -0.70649
 Alpha  occ. eigenvalues --   -0.70204  -0.69929  -0.69748  -0.68752  -0.68028
 Alpha  occ. eigenvalues --   -0.67632  -0.67204  -0.66956  -0.66448  -0.66323
 Alpha  occ. eigenvalues --   -0.65603  -0.64443  -0.64080  -0.63996  -0.63577
 Alpha  occ. eigenvalues --   -0.63228  -0.62846  -0.62292  -0.62201  -0.61394
 Alpha  occ. eigenvalues --   -0.61321  -0.60950  -0.60619  -0.60498  -0.60037
 Alpha  occ. eigenvalues --   -0.59815  -0.59701  -0.59258  -0.58800  -0.58604
 Alpha  occ. eigenvalues --   -0.58448  -0.57756  -0.57356  -0.56935  -0.56708
 Alpha  occ. eigenvalues --   -0.56076  -0.55478  -0.55199  -0.55085  -0.54824
 Alpha  occ. eigenvalues --   -0.54604  -0.54236  -0.53938  -0.53715  -0.52956
 Alpha  occ. eigenvalues --   -0.52750  -0.52481  -0.52298  -0.52146  -0.51912
 Alpha  occ. eigenvalues --   -0.51355  -0.51168  -0.50814  -0.50668  -0.50610
 Alpha  occ. eigenvalues --   -0.50122  -0.50060  -0.49903  -0.49494  -0.49282
 Alpha  occ. eigenvalues --   -0.49100  -0.48797  -0.48533  -0.48319  -0.48046
 Alpha  occ. eigenvalues --   -0.47405  -0.47382  -0.46997  -0.46663  -0.46507
 Alpha  occ. eigenvalues --   -0.46309  -0.46139  -0.46104  -0.45805  -0.45476
 Alpha  occ. eigenvalues --   -0.45263  -0.44964  -0.44614  -0.44363  -0.44298
 Alpha  occ. eigenvalues --   -0.43711  -0.43358  -0.42678  -0.42459  -0.42356
 Alpha  occ. eigenvalues --   -0.42299  -0.42183  -0.41197  -0.39603  -0.38933
 Alpha  occ. eigenvalues --   -0.37803  -0.37516  -0.36636  -0.34541  -0.34131
 Alpha  occ. eigenvalues --   -0.33648  -0.32474  -0.32432  -0.31571  -0.26965
 Alpha  occ. eigenvalues --   -0.21818
 Alpha virt. eigenvalues --   -0.08182  -0.02300  -0.00925   0.01112   0.01477
 Alpha virt. eigenvalues --    0.02703   0.02869   0.02958   0.04117   0.04731
 Alpha virt. eigenvalues --    0.05333   0.06318   0.07303   0.07520   0.07964

 Mulliken charges:
               1
     1  Mg   0.426880
     2  C   -0.021749
     3  C   -0.101156
     4  C   -0.064123
     5  C   -0.070493
     6  N   -0.294937
     7  C    0.084327
     8  C    0.020098
     9  C    0.000717
    10  C    0.184930
    11  C   -0.053592
    12  C   -0.024331
    13  C    0.000879
    14  C    0.458119
    15  O   -0.516315
    16  O   -0.270582
    17  N   -0.328850
    18  C    0.153298
    19  C    0.023134
    20  C   -0.039595
    21  C    0.141573
    22  C   -0.038377
    23  C    0.344393
    24  O   -0.518165
    25  C   -0.027764
    26  N   -0.251341
    27  C    0.152384
    28  C    0.003558
    29  C    0.007903
    30  C    0.094835
    31  C   -0.054736
    32  C   -0.023154
    33  C   -0.058162
    34  N   -0.328349
    35  C    0.048633
    36  C    0.022095
    37  C   -0.051940
    38  C    0.103265
    39  C   -0.036239
    40  C    0.325555
    41  O   -0.535309
    42  C    0.051094
    43  C    0.494133
    44  O   -0.518869
    45  O   -0.279077
    46  C    0.074267
    47  C    0.106885
    48  C   -0.101246
    49  C   -0.009765
    50  C   -0.037571
    51  C   -0.031589
    52  C   -0.031208
    53  C   -0.034222
    54  C   -0.006029
    55  C   -0.067937
    56  C   -0.031662
    57  C   -0.035381
    58  C   -0.044491
    59  C   -0.006163
    60  C   -0.049985
    61  C   -0.026136
    62  C   -0.031631
    63  C   -0.029300
    64  C   -0.012507
    65  C   -0.052144
    66  C   -0.067642
    67  H    0.019960
    68  H    0.046405
    69  H    0.034459
    70  H    0.027651
    71  H    0.031014
    72  H    0.029235
    73  H    0.027156
    74  H    0.012016
    75  H    0.024889
    76  H    0.040379
    77  H    0.042941
    78  H    0.045240
    79  H    0.025464
    80  H    0.033736
    81  H    0.029347
    82  H    0.044440
    83  H    0.028048
    84  H    0.045937
    85  H    0.043367
    86  H    0.028052
    87  H    0.022637
    88  H    0.018285
    89  H    0.028036
    90  H    0.020862
    91  H    0.020011
    92  H    0.016884
    93  H    0.014436
    94  H    0.022375
    95  H    0.019951
    96  H    0.035768
    97  H    0.038063
    98  H    0.052083
    99  H    0.018473
   100  H    0.057757
   101  H    0.039166
   102  H    0.043434
   103  H    0.055139
   104  H    0.030838
   105  H    0.036515
   106  H    0.027395
   107  H    0.023055
   108  H    0.027942
   109  H    0.023586
   110  H    0.015641
   111  H    0.034963
   112  H    0.011499
   113  H    0.024643
   114  H    0.023165
   115  H    0.011813
   116  H    0.021201
   117  H    0.008234
   118  H    0.022371
   119  H    0.007779
   120  H    0.010284
   121  H    0.017196
   122  H    0.020769
   123  H    0.014238
   124  H    0.023495
   125  H    0.024581
   126  H    0.006256
   127  H    0.010070
   128  H    0.015262
   129  H    0.019260
   130  H    0.022983
   131  H    0.007683
   132  H    0.019296
   133  H    0.023689
   134  H    0.023583
   135  H    0.012396
   136  H    0.029006
   137  H    0.016440
   138  H    0.003773
   139  H    0.013896
   140  H    0.022964
 Sum of Mulliken charges =  -0.00000

 Dipole moment (field-independent basis, Debye):
    X=            -10.0475    Y=              8.3184    Z=              1.7811  Tot=             13.1651
 N-N= 4.480669311770D+03 E-N= 0.000000000000D+00  KE=-9.634956791015D+03
 Leave Link  601 at Wed May  4 12:43:00 2022, MaxMem=  6710886400 cpu:               0.8 elap:               0.1
 (Enter /sw/apps/gaussian-16.0/g16/l9999.exe)
 1\1\GINC-BP1-COMPUTE040\SP\RZINDO CIS\STO-3G\C55H74Mg1N4O6\OF15641\04-
 May-2022\0\\#p ZINDO=(nstates=5)\\step_1701_chromophore_12 ZINDO\\0,1\
 Mg,0,47.608,15.977,28.618\C,0,45.348,15.613,31.307\C,0,49.334,18.163,3
 0.52\C,0,49.505,16.708,25.879\C,0,45.5,13.999,26.594\N,0,47.36,16.67,3
 0.655\C,0,46.406,16.434,31.684\C,0,46.802,17.068,32.97\C,0,47.889,18.0
 75,32.553\C,0,48.198,17.628,31.131\C,0,47.495,19.613,32.69\C,0,47.264,
 16.168,34.171\C,0,47.573,16.983,35.485\C,0,48.606,16.37,36.478\O,0,49.

 Normal termination of Gaussian 16 at Wed May  4 12:43:00 2022.
