 Gaussian 16, Revision A.03,
 Gaussian 16:  ES64L-G16RevA.03 25-Dec-2016

 ------------------------------
 #p blyp/Def2SVP td=(nstates=5)
 ------------------------------

 --------------------------------------------------
 step_701_chromophore_13 TDDFT with blyp functional
 --------------------------------------------------
 Symbolic Z-matrix:
 Charge =  0 Multiplicity = 1

                         Standard orientation:
 ---------------------------------------------------------------------
 Center     Atomic      Atomic             Coordinates (Angstroms)
 Number     Number       Type             X           Y           Z
 ---------------------------------------------------------------------
      1         12           0       -6.152073    0.357221    0.270722
      2          6           0       -3.678176   -2.221466    0.210127
      3          6           0       -3.733903    2.579360    0.949990
      4          6           0       -8.499642    2.542131    0.210820
      5          6           0       -8.541294   -2.235235   -0.585051
      6          7           0       -3.895290    0.276506    0.440941
      7          6           0       -3.151422   -0.888255    0.439769
      8          6           0       -1.705549   -0.611452    0.622332
      9          6           0       -1.707972    0.966186    1.004548
     10          6           0       -3.150128    1.330351    0.796130
     11          6           0       -1.013898    1.334656    2.391768
     12          6           0       -0.921430   -1.064456   -0.710022
     13          6           0        0.400586   -1.859339   -0.523767
     14          6           0        1.672496   -1.460710   -1.209615
     15          8           0        1.785337   -0.675857   -2.150741
     16          8           0        2.801694   -2.141903   -0.668446
     17          7           0       -6.159792    2.408313    0.588676
     18          6           0       -5.103197    3.145391    0.808017
     19          6           0       -5.500395    4.538520    0.767888
     20          6           0       -6.883207    4.587222    0.603452
     21          6           0       -7.265490    3.142576    0.515652
     22          6           0       -4.520959    5.667069    1.058674
     23          6           0       -7.829407    5.779590    0.456978
     24          8           0       -9.042789    5.537146    0.398006
     25          6           0       -7.351315    7.258687    0.543462
     26          7           0       -8.298522    0.099823    0.078233
     27          6           0       -8.983649    1.220356    0.055252
     28          6           0      -10.482061    0.985087   -0.384839
     29          6           0      -10.494291   -0.511822   -0.845191
     30          6           0       -9.091460   -0.940032   -0.349542
     31          6           0      -11.594324    1.438493    0.678801
     32          6           0      -10.635024   -0.694453   -2.352956
     33          6           0       -9.476491   -0.427479   -3.268506
     34          7           0       -6.148220   -1.739449   -0.093328
     35          6           0       -7.192193   -2.651208   -0.355718
     36          6           0       -6.632881   -4.019869   -0.590064
     37          6           0       -5.242054   -3.843389   -0.251058
     38          6           0       -5.034395   -2.492488   -0.017411
     39          6           0       -7.339017   -5.305193   -0.832460
     40          6           0       -3.994057   -4.570983   -0.178494
     41          8           0       -3.791690   -5.769157   -0.368152
     42          6           0       -2.943727   -3.502110    0.167346
     43          6           0       -2.350755   -3.850567    1.468511
     44          8           0       -2.895413   -3.589532    2.515793
     45          8           0       -1.021412   -4.292000    1.392147
     46          6           0       -0.277547   -4.220267    2.684842
     47          6           0        4.077296   -2.106330   -1.386125
     48          6           0        5.101346   -1.226401   -0.647380
     49          6           0        6.417737   -1.284784   -0.781889
     50          6           0        7.108933   -1.887402   -1.908273
     51          6           0        7.278174   -0.356204    0.011901
     52          6           0        7.405393    1.134179   -0.531127
     53          6           0        8.871741    1.690431   -0.089419
     54          6           0        9.572756    2.656209   -1.035433
     55          6           0        8.920860    3.977383   -1.344128
     56          6           0       10.059257    1.968123   -2.377893
     57          6           0       11.572326    1.899258   -2.498339
     58          6           0       12.281589    0.642141   -1.983470
     59          6           0       13.538397    1.088210   -1.176735
     60          6           0       14.519725    1.925229   -2.040126
     61          6           0       14.176216   -0.147430   -0.577555
     62          6           0       14.948007   -0.033761    0.703202
     63          6           0       14.351079   -0.999976    1.835795
     64          6           0       13.632005   -0.192267    2.970323
     65          6           0       13.286043   -1.103944    4.166629
     66          6           0       12.339053    0.555369    2.550639
     67          1           0       -2.898901    3.273274    1.061666
     68          1           0       -9.285714    3.269572    0.000992
     69          1           0       -9.216850   -3.058868   -0.824817
     70          1           0       -1.407037   -1.244372    1.458237
     71          1           0       -1.058036    1.358297    0.221816
     72          1           0       -1.119330    0.564203    3.154959
     73          1           0       -1.548938    2.207934    2.762271
     74          1           0        0.020861    1.567176    2.140860
     75          1           0       -0.574250   -0.169437   -1.226033
     76          1           0       -1.531384   -1.763009   -1.282476
     77          1           0        0.377661   -2.935772   -0.694430
     78          1           0        0.660557   -1.941314    0.531023
     79          1           0       -4.985227    6.275904    1.835418
     80          1           0       -4.366417    6.204754    0.123773
     81          1           0       -3.537292    5.481191    1.491064
     82          1           0       -6.975010    7.489109    1.540655
     83          1           0       -8.127915    7.972437    0.269667
     84          1           0       -6.568929    7.442123   -0.192875
     85          1           0      -10.644728    1.656046   -1.228639
     86          1           0      -11.257713   -1.022860   -0.258679
     87          1           0      -12.223772    2.163858    0.163803
     88          1           0      -11.198429    1.960489    1.549717
     89          1           0      -12.314967    0.660271    0.929164
     90          1           0      -11.412530    0.029966   -2.595745
     91          1           0      -11.082886   -1.654268   -2.608161
     92          1           0       -9.142660   -1.267162   -3.876411
     93          1           0       -8.688222   -0.060640   -2.610619
     94          1           0       -9.794604    0.376120   -3.932597
     95          1           0       -6.782358   -6.233046   -0.698861
     96          1           0       -7.572087   -5.289109   -1.896880
     97          1           0       -8.309209   -5.253521   -0.337717
     98          1           0       -2.201200   -3.736228   -0.596435
     99          1           0       -0.471001   -3.234858    3.108660
    100          1           0        0.797796   -4.293325    2.519765
    101          1           0       -0.685191   -4.915327    3.419644
    102          1           0        4.050081   -1.753754   -2.417641
    103          1           0        4.492163   -3.112674   -1.429624
    104          1           0        4.791752   -0.805373    0.309590
    105          1           0        6.618348   -2.765817   -2.328456
    106          1           0        8.122280   -2.185198   -1.637177
    107          1           0        7.070572   -1.199710   -2.753489
    108          1           0        8.278171   -0.787933    0.041973
    109          1           0        6.898365   -0.388359    1.032916
    110          1           0        6.631837    1.675439    0.014006
    111          1           0        7.221462    1.068321   -1.603841
    112          1           0        9.656473    0.944019    0.030785
    113          1           0        8.733000    2.105113    0.909109
    114          1           0       10.412896    2.955621   -0.408882
    115          1           0        8.931168    4.276964   -2.392949
    116          1           0        9.374689    4.748623   -0.721650
    117          1           0        7.863897    3.869938   -1.101175
    118          1           0        9.887762    2.523626   -3.300199
    119          1           0        9.676662    0.947819   -2.419247
    120          1           0       11.948585    2.811813   -2.036610
    121          1           0       11.911210    2.052943   -3.523992
    122          1           0       12.607474    0.041535   -2.832369
    123          1           0       11.583322    0.108630   -1.339071
    124          1           0       13.147130    1.781227   -0.431665
    125          1           0       14.429455    2.924074   -1.612627
    126          1           0       14.332154    1.928924   -3.113337
    127          1           0       15.516772    1.527523   -1.850782
    128          1           0       14.955734   -0.426381   -1.286897
    129          1           0       13.496473   -0.999383   -0.605023
    130          1           0       14.921778    0.985352    1.089603
    131          1           0       15.938871   -0.422694    0.471226
    132          1           0       15.280310   -1.297641    2.320867
    133          1           0       13.828013   -1.807401    1.322632
    134          1           0       14.410476    0.491316    3.309927
    135          1           0       12.247076   -1.408839    4.046067
    136          1           0       13.297236   -0.604848    5.135586
    137          1           0       13.882744   -2.004032    4.015053
    138          1           0       12.615154    1.545809    2.190649
    139          1           0       11.609311    0.613723    3.358249
    140          1           0       11.848677   -0.048136    1.785966
 ---------------------------------------------------------------------

 SCF Done:  E(RB-LYP) =  -3007.35424348     A.U. after   21 cycles

 Excitation energies and oscillator strengths:

 Excited State   1:      Singlet-A      1.8276 eV  678.39 nm  f=0.3111  <S**2>=0.000
     245 -> 248       -0.18679
     245 -> 249        0.10733
     246 -> 247        0.68424
     246 <- 247       -0.14345
 This state for optimization and/or second-order correction.
 Total Energy, E(TD-HF/TD-DFT) =  -3007.28707998
 Copying the excited state density for this state as the 1-particle RhoCI density.

 Excited State   2:      Singlet-A      2.0023 eV  619.21 nm  f=0.0643  <S**2>=0.000
     243 -> 247        0.20588
     245 -> 247        0.62517
     246 -> 248        0.21217
     246 -> 249       -0.11911

 Excited State   3:      Singlet-A      2.0980 eV  590.95 nm  f=0.0011  <S**2>=0.000
     244 -> 247        0.70569

 Excited State   4:      Singlet-A      2.1123 eV  586.97 nm  f=0.0091  <S**2>=0.000
     243 -> 247        0.67446
     245 -> 247       -0.17757

 Excited State   5:      Singlet-A      2.2849 eV  542.62 nm  f=0.0000  <S**2>=0.000
     242 -> 247        0.70711

 The electronic state is 1-A.
 Alpha  occ. eigenvalues --  -46.28428 -18.82152 -18.81461 -18.77142 -18.77025
 Alpha  occ. eigenvalues --  -18.75921 -18.75796 -14.03346 -14.03179 -14.01397
 Alpha  occ. eigenvalues --  -14.01042 -10.04522 -10.04019 -10.00775  -9.99491
 Alpha  occ. eigenvalues --   -9.98095  -9.97920  -9.96771  -9.96577  -9.96329
 Alpha  occ. eigenvalues --   -9.96311  -9.96099  -9.96022  -9.95835  -9.94880
 Alpha  occ. eigenvalues --   -9.94503  -9.94264  -9.94158  -9.94029  -9.94005
 Alpha  occ. eigenvalues --   -9.93991  -9.93862  -9.93849  -9.93835  -9.93671
 Alpha  occ. eigenvalues --   -9.93256  -9.93101  -9.93093  -9.93075  -9.92915
 Alpha  occ. eigenvalues --   -9.92734  -9.92471  -9.92450  -9.92319  -9.92189
 Alpha  occ. eigenvalues --   -9.92085  -9.91912  -9.91826  -9.91739  -9.91530
 Alpha  occ. eigenvalues --   -9.91515  -9.91432  -9.91389  -9.91300  -9.91268
 Alpha  occ. eigenvalues --   -9.91015  -9.90931  -9.90847  -9.90842  -9.90726
 Alpha  occ. eigenvalues --   -9.90670  -9.90645  -9.90538  -9.90264  -9.90218
 Alpha  occ. eigenvalues --   -9.89953  -2.92829  -1.73277  -1.72720  -1.72521
 Alpha  occ. eigenvalues --   -0.97412  -0.96110  -0.91074  -0.91073  -0.89906
 Alpha  occ. eigenvalues --   -0.89128  -0.88010  -0.86620  -0.86269  -0.84947
 Alpha  occ. eigenvalues --   -0.76411  -0.73940  -0.73312  -0.72734  -0.72394
 Alpha  occ. eigenvalues --   -0.72065  -0.71274  -0.70842  -0.70534  -0.70111
 Alpha  occ. eigenvalues --   -0.69655  -0.69223  -0.67858  -0.67595  -0.67157
 Alpha  occ. eigenvalues --   -0.66341  -0.65777  -0.64916  -0.64876  -0.64299
 Alpha  occ. eigenvalues --   -0.63977  -0.62632  -0.62489  -0.62017  -0.61203
 Alpha  occ. eigenvalues --   -0.60583  -0.60132  -0.59963  -0.59494  -0.58947
 Alpha  occ. eigenvalues --   -0.58670  -0.57559  -0.56873  -0.56210  -0.55144
 Alpha  occ. eigenvalues --   -0.54097  -0.53774  -0.53136  -0.53059  -0.51771
 Alpha  occ. eigenvalues --   -0.51132  -0.50630  -0.50090  -0.50011  -0.49112
 Alpha  occ. eigenvalues --   -0.48775  -0.48585  -0.48217  -0.47581  -0.46923
 Alpha  occ. eigenvalues --   -0.46183  -0.45832  -0.45626  -0.45405  -0.44885
 Alpha  occ. eigenvalues --   -0.44396  -0.44076  -0.43033  -0.42876  -0.42219
 Alpha  occ. eigenvalues --   -0.42014  -0.41768  -0.41648  -0.41285  -0.41060
 Alpha  occ. eigenvalues --   -0.40866  -0.40424  -0.40335  -0.40070  -0.40002
 Alpha  occ. eigenvalues --   -0.39955  -0.39787  -0.39600  -0.39299  -0.39189
 Alpha  occ. eigenvalues --   -0.39117  -0.38877  -0.38690  -0.38407  -0.38158
 Alpha  occ. eigenvalues --   -0.38000  -0.37886  -0.37649  -0.37307  -0.37113
 Alpha  occ. eigenvalues --   -0.37095  -0.36915  -0.36852  -0.36693  -0.36519
 Alpha  occ. eigenvalues --   -0.36404  -0.36297  -0.36259  -0.36156  -0.35936
 Alpha  occ. eigenvalues --   -0.35797  -0.35378  -0.35103  -0.34915  -0.34675
 Alpha  occ. eigenvalues --   -0.34448  -0.34416  -0.34328  -0.34200  -0.33925
 Alpha  occ. eigenvalues --   -0.33863  -0.33550  -0.33227  -0.33134  -0.32943
 Alpha  occ. eigenvalues --   -0.32781  -0.32607  -0.32410  -0.32304  -0.32130
 Alpha  occ. eigenvalues --   -0.31972  -0.31737  -0.31581  -0.31413  -0.31381
 Alpha  occ. eigenvalues --   -0.31300  -0.31115  -0.30999  -0.30730  -0.30589
 Alpha  occ. eigenvalues --   -0.30461  -0.30401  -0.30324  -0.30172  -0.29941
 Alpha  occ. eigenvalues --   -0.29910  -0.29529  -0.29449  -0.29261  -0.29084
 Alpha  occ. eigenvalues --   -0.28436  -0.28238  -0.28169  -0.28109  -0.27841
 Alpha  occ. eigenvalues --   -0.27597  -0.27447  -0.27150  -0.26842  -0.26582
 Alpha  occ. eigenvalues --   -0.26349  -0.26119  -0.25821  -0.25554  -0.25327
 Alpha  occ. eigenvalues --   -0.24615  -0.24206  -0.24081  -0.23787  -0.23563
 Alpha  occ. eigenvalues --   -0.23275  -0.22307  -0.22048  -0.22008  -0.21268
 Alpha  occ. eigenvalues --   -0.20277  -0.19749  -0.18984  -0.18953  -0.17043
 Alpha  occ. eigenvalues --   -0.15740
 Alpha virt. eigenvalues --   -0.11352  -0.07049  -0.06212  -0.05039  -0.03150
 Alpha virt. eigenvalues --   -0.02925  -0.01829  -0.01726  -0.01040  -0.00401
 Alpha virt. eigenvalues --    0.00408   0.01059   0.01537   0.02344   0.02455

 Mulliken charges:
               1
     1  Mg   0.678849
     2  C   -0.001398
     3  C   -0.044837
     4  C   -0.046046
     5  C   -0.047616
     6  N   -0.193671
     7  C   -0.089925
     8  C   -0.017094
     9  C    0.051312
    10  C   -0.027334
    11  C    0.129030
    12  C    0.169856
    13  C    0.078592
    14  C    0.076295
    15  O   -0.186420
    16  O   -0.307258
    17  N   -0.228927
    18  C    0.104293
    19  C   -0.135755
    20  C    0.048910
    21  C    0.080533
    22  C    0.150392
    23  C   -0.057383
    24  O   -0.175429
    25  C    0.118477
    26  N   -0.182632
    27  C    0.018126
    28  C   -0.031580
    29  C    0.092230
    30  C   -0.029871
    31  C    0.115761
    32  C    0.078361
    33  C    0.091046
    34  N   -0.250819
    35  C    0.098321
    36  C   -0.187979
    37  C    0.066207
    38  C    0.123327
    39  C    0.194709
    40  C   -0.092760
    41  O   -0.134732
    42  C    0.097234
    43  C    0.097209
    44  O   -0.169292
    45  O   -0.299966
    46  C    0.226876
    47  C    0.319005
    48  C   -0.083778
    49  C   -0.171768
    50  C    0.143115
    51  C    0.101314
    52  C    0.100025
    53  C    0.054997
    54  C   -0.041022
    55  C    0.117413
    56  C    0.133191
    57  C    0.023148
    58  C    0.103298
    59  C   -0.143532
    60  C    0.135170
    61  C    0.128607
    62  C    0.099320
    63  C    0.080911
    64  C   -0.120845
    65  C    0.125418
    66  C    0.102699
    67  H   -0.068839
    68  H   -0.043684
    69  H   -0.061021
    70  H   -0.008200
    71  H   -0.021013
    72  H    0.003792
    73  H   -0.012045
    74  H    0.002848
    75  H   -0.000593
    76  H    0.001849
    77  H    0.012851
    78  H   -0.017556
    79  H   -0.000099
    80  H    0.005795
    81  H   -0.008018
    82  H    0.022234
    83  H   -0.006351
    84  H   -0.003770
    85  H   -0.015780
    86  H   -0.034568
    87  H   -0.014655
    88  H    0.009462
    89  H   -0.011663
    90  H   -0.031104
    91  H   -0.025875
    92  H    0.000442
    93  H    0.007084
    94  H   -0.013904
    95  H    0.015283
    96  H   -0.010677
    97  H    0.000109
    98  H   -0.005577
    99  H   -0.000820
   100  H    0.027647
   101  H    0.021389
   102  H    0.001806
   103  H    0.003715
   104  H   -0.041644
   105  H   -0.028888
   106  H   -0.008259
   107  H    0.010098
   108  H   -0.044922
   109  H   -0.029444
   110  H   -0.012633
   111  H   -0.010970
   112  H   -0.018697
   113  H   -0.034585
   114  H   -0.039724
   115  H   -0.019543
   116  H   -0.019282
   117  H   -0.025107
   118  H   -0.032470
   119  H   -0.032325
   120  H   -0.042311
   121  H   -0.047886
   122  H   -0.032349
   123  H   -0.030747
   124  H   -0.034957
   125  H   -0.016134
   126  H   -0.008094
   127  H   -0.021566
   128  H   -0.056345
   129  H   -0.044467
   130  H   -0.027596
   131  H   -0.037506
   132  H   -0.033521
   133  H   -0.022186
   134  H   -0.035041
   135  H   -0.034134
   136  H   -0.008352
   137  H   -0.024220
   138  H   -0.002301
   139  H   -0.018129
   140  H   -0.008163
 Sum of Mulliken charges =  -0.00000

 Dipole moment (field-independent basis, Debye):
    X=              2.1343    Y=              2.7303    Z=              0.2176  Tot=              3.4723
 Quadrupole moment (field-independent basis, Debye-Ang):
   XX=           -375.8216   YY=           -420.9471   ZZ=           -405.8495
   XY=              2.4978   XZ=             14.8658   YZ=              7.0131

 Normal termination of Gaussian 16 at Sat Apr 30 10:17:10 2022.
