 Gaussian 16, Revision A.03,
 Gaussian 16:  ES64L-G16RevA.03 25-Dec-2016

 -----------------------------------
 #p cam-b3lyp/Def2SVP td=(nstates=5)
 -----------------------------------

 -------------------------------------------------------
 step_701_chromophore_13 TDDFT with cam-b3lyp functional
 -------------------------------------------------------
 Symbolic Z-matrix:
 Charge =  0 Multiplicity = 1

                         Standard orientation:
 ---------------------------------------------------------------------
 Center     Atomic      Atomic             Coordinates (Angstroms)
 Number     Number       Type             X           Y           Z
 ---------------------------------------------------------------------
      1         12           0       -6.152073    0.357221    0.270722
      2          6           0       -3.678176   -2.221466    0.210127
      3          6           0       -3.733903    2.579360    0.949990
      4          6           0       -8.499642    2.542131    0.210820
      5          6           0       -8.541294   -2.235235   -0.585051
      6          7           0       -3.895290    0.276506    0.440941
      7          6           0       -3.151422   -0.888255    0.439769
      8          6           0       -1.705549   -0.611452    0.622332
      9          6           0       -1.707972    0.966186    1.004548
     10          6           0       -3.150128    1.330351    0.796130
     11          6           0       -1.013898    1.334656    2.391768
     12          6           0       -0.921430   -1.064456   -0.710022
     13          6           0        0.400586   -1.859339   -0.523767
     14          6           0        1.672496   -1.460710   -1.209615
     15          8           0        1.785337   -0.675857   -2.150741
     16          8           0        2.801694   -2.141903   -0.668446
     17          7           0       -6.159792    2.408313    0.588676
     18          6           0       -5.103197    3.145391    0.808017
     19          6           0       -5.500395    4.538520    0.767888
     20          6           0       -6.883207    4.587222    0.603452
     21          6           0       -7.265490    3.142576    0.515652
     22          6           0       -4.520959    5.667069    1.058674
     23          6           0       -7.829407    5.779590    0.456978
     24          8           0       -9.042789    5.537146    0.398006
     25          6           0       -7.351315    7.258687    0.543462
     26          7           0       -8.298522    0.099823    0.078233
     27          6           0       -8.983649    1.220356    0.055252
     28          6           0      -10.482061    0.985087   -0.384839
     29          6           0      -10.494291   -0.511822   -0.845191
     30          6           0       -9.091460   -0.940032   -0.349542
     31          6           0      -11.594324    1.438493    0.678801
     32          6           0      -10.635024   -0.694453   -2.352956
     33          6           0       -9.476491   -0.427479   -3.268506
     34          7           0       -6.148220   -1.739449   -0.093328
     35          6           0       -7.192193   -2.651208   -0.355718
     36          6           0       -6.632881   -4.019869   -0.590064
     37          6           0       -5.242054   -3.843389   -0.251058
     38          6           0       -5.034395   -2.492488   -0.017411
     39          6           0       -7.339017   -5.305193   -0.832460
     40          6           0       -3.994057   -4.570983   -0.178494
     41          8           0       -3.791690   -5.769157   -0.368152
     42          6           0       -2.943727   -3.502110    0.167346
     43          6           0       -2.350755   -3.850567    1.468511
     44          8           0       -2.895413   -3.589532    2.515793
     45          8           0       -1.021412   -4.292000    1.392147
     46          6           0       -0.277547   -4.220267    2.684842
     47          6           0        4.077296   -2.106330   -1.386125
     48          6           0        5.101346   -1.226401   -0.647380
     49          6           0        6.417737   -1.284784   -0.781889
     50          6           0        7.108933   -1.887402   -1.908273
     51          6           0        7.278174   -0.356204    0.011901
     52          6           0        7.405393    1.134179   -0.531127
     53          6           0        8.871741    1.690431   -0.089419
     54          6           0        9.572756    2.656209   -1.035433
     55          6           0        8.920860    3.977383   -1.344128
     56          6           0       10.059257    1.968123   -2.377893
     57          6           0       11.572326    1.899258   -2.498339
     58          6           0       12.281589    0.642141   -1.983470
     59          6           0       13.538397    1.088210   -1.176735
     60          6           0       14.519725    1.925229   -2.040126
     61          6           0       14.176216   -0.147430   -0.577555
     62          6           0       14.948007   -0.033761    0.703202
     63          6           0       14.351079   -0.999976    1.835795
     64          6           0       13.632005   -0.192267    2.970323
     65          6           0       13.286043   -1.103944    4.166629
     66          6           0       12.339053    0.555369    2.550639
     67          1           0       -2.898901    3.273274    1.061666
     68          1           0       -9.285714    3.269572    0.000992
     69          1           0       -9.216850   -3.058868   -0.824817
     70          1           0       -1.407037   -1.244372    1.458237
     71          1           0       -1.058036    1.358297    0.221816
     72          1           0       -1.119330    0.564203    3.154959
     73          1           0       -1.548938    2.207934    2.762271
     74          1           0        0.020861    1.567176    2.140860
     75          1           0       -0.574250   -0.169437   -1.226033
     76          1           0       -1.531384   -1.763009   -1.282476
     77          1           0        0.377661   -2.935772   -0.694430
     78          1           0        0.660557   -1.941314    0.531023
     79          1           0       -4.985227    6.275904    1.835418
     80          1           0       -4.366417    6.204754    0.123773
     81          1           0       -3.537292    5.481191    1.491064
     82          1           0       -6.975010    7.489109    1.540655
     83          1           0       -8.127915    7.972437    0.269667
     84          1           0       -6.568929    7.442123   -0.192875
     85          1           0      -10.644728    1.656046   -1.228639
     86          1           0      -11.257713   -1.022860   -0.258679
     87          1           0      -12.223772    2.163858    0.163803
     88          1           0      -11.198429    1.960489    1.549717
     89          1           0      -12.314967    0.660271    0.929164
     90          1           0      -11.412530    0.029966   -2.595745
     91          1           0      -11.082886   -1.654268   -2.608161
     92          1           0       -9.142660   -1.267162   -3.876411
     93          1           0       -8.688222   -0.060640   -2.610619
     94          1           0       -9.794604    0.376120   -3.932597
     95          1           0       -6.782358   -6.233046   -0.698861
     96          1           0       -7.572087   -5.289109   -1.896880
     97          1           0       -8.309209   -5.253521   -0.337717
     98          1           0       -2.201200   -3.736228   -0.596435
     99          1           0       -0.471001   -3.234858    3.108660
    100          1           0        0.797796   -4.293325    2.519765
    101          1           0       -0.685191   -4.915327    3.419644
    102          1           0        4.050081   -1.753754   -2.417641
    103          1           0        4.492163   -3.112674   -1.429624
    104          1           0        4.791752   -0.805373    0.309590
    105          1           0        6.618348   -2.765817   -2.328456
    106          1           0        8.122280   -2.185198   -1.637177
    107          1           0        7.070572   -1.199710   -2.753489
    108          1           0        8.278171   -0.787933    0.041973
    109          1           0        6.898365   -0.388359    1.032916
    110          1           0        6.631837    1.675439    0.014006
    111          1           0        7.221462    1.068321   -1.603841
    112          1           0        9.656473    0.944019    0.030785
    113          1           0        8.733000    2.105113    0.909109
    114          1           0       10.412896    2.955621   -0.408882
    115          1           0        8.931168    4.276964   -2.392949
    116          1           0        9.374689    4.748623   -0.721650
    117          1           0        7.863897    3.869938   -1.101175
    118          1           0        9.887762    2.523626   -3.300199
    119          1           0        9.676662    0.947819   -2.419247
    120          1           0       11.948585    2.811813   -2.036610
    121          1           0       11.911210    2.052943   -3.523992
    122          1           0       12.607474    0.041535   -2.832369
    123          1           0       11.583322    0.108630   -1.339071
    124          1           0       13.147130    1.781227   -0.431665
    125          1           0       14.429455    2.924074   -1.612627
    126          1           0       14.332154    1.928924   -3.113337
    127          1           0       15.516772    1.527523   -1.850782
    128          1           0       14.955734   -0.426381   -1.286897
    129          1           0       13.496473   -0.999383   -0.605023
    130          1           0       14.921778    0.985352    1.089603
    131          1           0       15.938871   -0.422694    0.471226
    132          1           0       15.280310   -1.297641    2.320867
    133          1           0       13.828013   -1.807401    1.322632
    134          1           0       14.410476    0.491316    3.309927
    135          1           0       12.247076   -1.408839    4.046067
    136          1           0       13.297236   -0.604848    5.135586
    137          1           0       13.882744   -2.004032    4.015053
    138          1           0       12.615154    1.545809    2.190649
    139          1           0       11.609311    0.613723    3.358249
    140          1           0       11.848677   -0.048136    1.785966
 ---------------------------------------------------------------------

 SCF Done:  E(RCAM-B3LYP) =  -3007.14408790     A.U. after   19 cycles

 Excitation energies and oscillator strengths:

 Excited State   1:      Singlet-A      1.7313 eV  716.12 nm  f=0.3898  <S**2>=0.000
     245 -> 248        0.19059
     246 -> 247        0.68168
     245 <- 248        0.10828
 This state for optimization and/or second-order correction.
 Total Energy, E(TD-HF/TD-DFT) =  -3007.08046302
 Copying the excited state density for this state as the 1-particle RhoCI density.

 Excited State   2:      Singlet-A      2.2224 eV  557.89 nm  f=0.1078  <S**2>=0.000
     245 -> 247        0.63741
     246 -> 248       -0.29357

 Excited State   3:      Singlet-A      3.4583 eV  358.51 nm  f=0.0094  <S**2>=0.000
     243 -> 247        0.66957
     246 -> 248        0.15009

 Excited State   4:      Singlet-A      3.5128 eV  352.95 nm  f=0.6762  <S**2>=0.000
     242 -> 247        0.13726
     243 -> 247       -0.12386
     245 -> 247        0.28441
     246 -> 248        0.60316
     245 <- 247       -0.10897

 Excited State   5:      Singlet-A      3.6087 eV  343.57 nm  f=0.0008  <S**2>=0.000
     241 -> 247        0.54739
     241 -> 249       -0.31641
     241 -> 250        0.21055
     242 -> 247       -0.13533

 The electronic state is 1-A.
 Alpha  occ. eigenvalues --  -46.89995 -19.25117 -19.24368 -19.20194 -19.20163
 Alpha  occ. eigenvalues --  -19.19261 -19.18993 -14.42320 -14.41855 -14.39897
 Alpha  occ. eigenvalues --  -14.39399 -10.39954 -10.39495 -10.36113 -10.34841
 Alpha  occ. eigenvalues --  -10.32159 -10.31967 -10.31391 -10.30947 -10.30690
 Alpha  occ. eigenvalues --  -10.30652 -10.30378 -10.30323 -10.30116 -10.28913
 Alpha  occ. eigenvalues --  -10.28886 -10.28582 -10.28483 -10.28395 -10.28295
 Alpha  occ. eigenvalues --  -10.28011 -10.27897 -10.27845 -10.27801 -10.27728
 Alpha  occ. eigenvalues --  -10.27517 -10.27342 -10.27003 -10.26985 -10.26942
 Alpha  occ. eigenvalues --  -10.26869 -10.26217 -10.26190 -10.26138 -10.25936
 Alpha  occ. eigenvalues --  -10.25879 -10.25811 -10.25569 -10.25459 -10.25362
 Alpha  occ. eigenvalues --  -10.25234 -10.25118 -10.25027 -10.25016 -10.24993
 Alpha  occ. eigenvalues --  -10.24803 -10.24683 -10.24626 -10.24609 -10.24516
 Alpha  occ. eigenvalues --  -10.24352 -10.24332 -10.24128 -10.23874 -10.23812
 Alpha  occ. eigenvalues --  -10.23579  -3.18293  -1.93222  -1.92753  -1.92580
 Alpha  occ. eigenvalues --   -1.16021  -1.14558  -1.09542  -1.09481  -1.07823
 Alpha  occ. eigenvalues --   -1.06961  -1.05724  -1.04306  -1.03912  -1.02450
 Alpha  occ. eigenvalues --   -0.93566  -0.90880  -0.90175  -0.89409  -0.89125
 Alpha  occ. eigenvalues --   -0.88782  -0.87937  -0.87439  -0.87189  -0.86637
 Alpha  occ. eigenvalues --   -0.86142  -0.85563  -0.84114  -0.83818  -0.83271
 Alpha  occ. eigenvalues --   -0.82372  -0.81766  -0.81106  -0.80710  -0.80103
 Alpha  occ. eigenvalues --   -0.79729  -0.78339  -0.78108  -0.77508  -0.76618
 Alpha  occ. eigenvalues --   -0.75968  -0.75385  -0.75313  -0.74799  -0.74200
 Alpha  occ. eigenvalues --   -0.73765  -0.72539  -0.71761  -0.71025  -0.69776
 Alpha  occ. eigenvalues --   -0.68772  -0.68393  -0.67647  -0.67593  -0.65901
 Alpha  occ. eigenvalues --   -0.65047  -0.64630  -0.64247  -0.63996  -0.63073
 Alpha  occ. eigenvalues --   -0.62491  -0.62397  -0.61956  -0.61341  -0.60581
 Alpha  occ. eigenvalues --   -0.59880  -0.59450  -0.59118  -0.58846  -0.58239
 Alpha  occ. eigenvalues --   -0.57859  -0.57539  -0.56200  -0.55741  -0.55318
 Alpha  occ. eigenvalues --   -0.55149  -0.54988  -0.54480  -0.54260  -0.54061
 Alpha  occ. eigenvalues --   -0.54031  -0.53065  -0.52979  -0.52861  -0.52783
 Alpha  occ. eigenvalues --   -0.52523  -0.52340  -0.52274  -0.52010  -0.51863
 Alpha  occ. eigenvalues --   -0.51747  -0.51507  -0.51355  -0.51028  -0.50665
 Alpha  occ. eigenvalues --   -0.50463  -0.50287  -0.50091  -0.49731  -0.49531
 Alpha  occ. eigenvalues --   -0.49335  -0.49279  -0.49047  -0.48956  -0.48725
 Alpha  occ. eigenvalues --   -0.48600  -0.48522  -0.48461  -0.48277  -0.48193
 Alpha  occ. eigenvalues --   -0.47898  -0.47376  -0.47266  -0.47027  -0.46528
 Alpha  occ. eigenvalues --   -0.46310  -0.46179  -0.46136  -0.46094  -0.45854
 Alpha  occ. eigenvalues --   -0.45598  -0.45197  -0.45094  -0.45032  -0.44647
 Alpha  occ. eigenvalues --   -0.44456  -0.44324  -0.43986  -0.43927  -0.43640
 Alpha  occ. eigenvalues --   -0.43486  -0.43471  -0.43371  -0.43265  -0.42897
 Alpha  occ. eigenvalues --   -0.42783  -0.42679  -0.42589  -0.42420  -0.42109
 Alpha  occ. eigenvalues --   -0.41882  -0.41779  -0.41635  -0.41483  -0.41457
 Alpha  occ. eigenvalues --   -0.41190  -0.40897  -0.40665  -0.40447  -0.40272
 Alpha  occ. eigenvalues --   -0.39448  -0.39179  -0.39126  -0.38991  -0.38807
 Alpha  occ. eigenvalues --   -0.38626  -0.38283  -0.37993  -0.37865  -0.37618
 Alpha  occ. eigenvalues --   -0.37119  -0.37090  -0.36855  -0.36568  -0.36408
 Alpha  occ. eigenvalues --   -0.35380  -0.34909  -0.34711  -0.34604  -0.34588
 Alpha  occ. eigenvalues --   -0.34255  -0.33730  -0.32960  -0.31465  -0.31343
 Alpha  occ. eigenvalues --   -0.30984  -0.30481  -0.29486  -0.29341  -0.23642
 Alpha  occ. eigenvalues --   -0.21019
 Alpha virt. eigenvalues --   -0.08402  -0.01791   0.00192   0.01920   0.03696
 Alpha virt. eigenvalues --    0.04532   0.04765   0.04950   0.05565   0.06427
 Alpha virt. eigenvalues --    0.07492   0.07546   0.08426   0.08538   0.08587

 Mulliken charges:
               1
     1  Mg   0.812293
     2  C   -0.038479
     3  C   -0.061991
     4  C   -0.061288
     5  C   -0.050795
     6  N   -0.268147
     7  C   -0.033947
     8  C   -0.060810
     9  C   -0.005108
    10  C   -0.005054
    11  C    0.074624
    12  C    0.111649
    13  C    0.006478
    14  C    0.166228
    15  O   -0.228299
    16  O   -0.373532
    17  N   -0.318173
    18  C    0.115480
    19  C   -0.142545
    20  C   -0.014968
    21  C    0.099261
    22  C    0.093731
    23  C    0.015922
    24  O   -0.215934
    25  C    0.045757
    26  N   -0.249865
    27  C    0.034415
    28  C   -0.081177
    29  C    0.036225
    30  C   -0.018858
    31  C    0.059324
    32  C    0.020424
    33  C    0.030066
    34  N   -0.337726
    35  C    0.100223
    36  C   -0.168378
    37  C   -0.016491
    38  C    0.163004
    39  C    0.129540
    40  C    0.008683
    41  O   -0.174288
    42  C    0.013255
    43  C    0.189366
    44  O   -0.203328
    45  O   -0.364696
    46  C    0.185188
    47  C    0.284499
    48  C   -0.099216
    49  C   -0.192483
    50  C    0.075801
    51  C    0.046626
    52  C    0.043058
    53  C    0.015413
    54  C   -0.099875
    55  C    0.059348
    56  C    0.075796
    57  C   -0.025629
    58  C    0.054514
    59  C   -0.188525
    60  C    0.071574
    61  C    0.068766
    62  C    0.042882
    63  C    0.024834
    64  C   -0.172863
    65  C    0.062666
    66  C    0.044047
    67  H   -0.037810
    68  H   -0.004216
    69  H   -0.025069
    70  H    0.020244
    71  H    0.014548
    72  H    0.027131
    73  H    0.012505
    74  H    0.026152
    75  H    0.032835
    76  H    0.032629
    77  H    0.044741
    78  H    0.014859
    79  H    0.023354
    80  H    0.031160
    81  H    0.021221
    82  H    0.048235
    83  H    0.028383
    84  H    0.023804
    85  H    0.017872
    86  H    0.002619
    87  H    0.009213
    88  H    0.034522
    89  H    0.012436
    90  H   -0.001756
    91  H    0.003228
    92  H    0.024737
    93  H    0.025800
    94  H    0.010746
    95  H    0.045542
    96  H    0.016498
    97  H    0.024646
    98  H    0.036636
    99  H    0.021115
   100  H    0.050781
   101  H    0.046623
   102  H    0.033360
   103  H    0.030210
   104  H   -0.008778
   105  H   -0.002442
   106  H    0.016722
   107  H    0.033902
   108  H   -0.016263
   109  H   -0.000179
   110  H    0.014713
   111  H    0.014674
   112  H    0.002245
   113  H   -0.005363
   114  H   -0.008645
   115  H    0.005792
   116  H    0.005273
   117  H   -0.001738
   118  H   -0.002009
   119  H   -0.007017
   120  H   -0.014618
   121  H   -0.017885
   122  H   -0.003315
   123  H   -0.007450
   124  H   -0.008195
   125  H    0.008057
   126  H    0.015711
   127  H    0.003229
   128  H   -0.025159
   129  H   -0.014726
   130  H   -0.000639
   131  H   -0.005710
   132  H   -0.003443
   133  H    0.004666
   134  H   -0.004080
   135  H   -0.009634
   136  H    0.016816
   137  H    0.001388
   138  H    0.018205
   139  H    0.007447
   140  H    0.010422
 Sum of Mulliken charges =  -0.00000

 Dipole moment (field-independent basis, Debye):
    X=              2.1008    Y=              3.2157    Z=              0.2554  Tot=              3.8496
 Quadrupole moment (field-independent basis, Debye-Ang):
   XX=           -373.1547   YY=           -416.1527   ZZ=           -405.9183
   XY=             -0.7071   XZ=             15.5730   YZ=              7.7073

 Normal termination of Gaussian 16 at Sat Apr 30 08:59:22 2022.
