 Gaussian 16, Revision A.03,
 Gaussian 16:  ES64L-G16RevA.03 25-Dec-2016

 --------------------------------
 #p wB97XD/Def2SVP td=(nstates=5)
 --------------------------------

 ----------------------------------------------------
 step_701_chromophore_13 TDDFT with wB97XD functional
 ----------------------------------------------------
 Symbolic Z-matrix:
 Charge =  0 Multiplicity = 1

                         Standard orientation:
 ---------------------------------------------------------------------
 Center     Atomic      Atomic             Coordinates (Angstroms)
 Number     Number       Type             X           Y           Z
 ---------------------------------------------------------------------
      1         12           0       -6.152073    0.357221    0.270722
      2          6           0       -3.678176   -2.221466    0.210127
      3          6           0       -3.733903    2.579360    0.949990
      4          6           0       -8.499642    2.542131    0.210820
      5          6           0       -8.541294   -2.235235   -0.585051
      6          7           0       -3.895290    0.276506    0.440941
      7          6           0       -3.151422   -0.888255    0.439769
      8          6           0       -1.705549   -0.611452    0.622332
      9          6           0       -1.707972    0.966186    1.004548
     10          6           0       -3.150128    1.330351    0.796130
     11          6           0       -1.013898    1.334656    2.391768
     12          6           0       -0.921430   -1.064456   -0.710022
     13          6           0        0.400586   -1.859339   -0.523767
     14          6           0        1.672496   -1.460710   -1.209615
     15          8           0        1.785337   -0.675857   -2.150741
     16          8           0        2.801694   -2.141903   -0.668446
     17          7           0       -6.159792    2.408313    0.588676
     18          6           0       -5.103197    3.145391    0.808017
     19          6           0       -5.500395    4.538520    0.767888
     20          6           0       -6.883207    4.587222    0.603452
     21          6           0       -7.265490    3.142576    0.515652
     22          6           0       -4.520959    5.667069    1.058674
     23          6           0       -7.829407    5.779590    0.456978
     24          8           0       -9.042789    5.537146    0.398006
     25          6           0       -7.351315    7.258687    0.543462
     26          7           0       -8.298522    0.099823    0.078233
     27          6           0       -8.983649    1.220356    0.055252
     28          6           0      -10.482061    0.985087   -0.384839
     29          6           0      -10.494291   -0.511822   -0.845191
     30          6           0       -9.091460   -0.940032   -0.349542
     31          6           0      -11.594324    1.438493    0.678801
     32          6           0      -10.635024   -0.694453   -2.352956
     33          6           0       -9.476491   -0.427479   -3.268506
     34          7           0       -6.148220   -1.739449   -0.093328
     35          6           0       -7.192193   -2.651208   -0.355718
     36          6           0       -6.632881   -4.019869   -0.590064
     37          6           0       -5.242054   -3.843389   -0.251058
     38          6           0       -5.034395   -2.492488   -0.017411
     39          6           0       -7.339017   -5.305193   -0.832460
     40          6           0       -3.994057   -4.570983   -0.178494
     41          8           0       -3.791690   -5.769157   -0.368152
     42          6           0       -2.943727   -3.502110    0.167346
     43          6           0       -2.350755   -3.850567    1.468511
     44          8           0       -2.895413   -3.589532    2.515793
     45          8           0       -1.021412   -4.292000    1.392147
     46          6           0       -0.277547   -4.220267    2.684842
     47          6           0        4.077296   -2.106330   -1.386125
     48          6           0        5.101346   -1.226401   -0.647380
     49          6           0        6.417737   -1.284784   -0.781889
     50          6           0        7.108933   -1.887402   -1.908273
     51          6           0        7.278174   -0.356204    0.011901
     52          6           0        7.405393    1.134179   -0.531127
     53          6           0        8.871741    1.690431   -0.089419
     54          6           0        9.572756    2.656209   -1.035433
     55          6           0        8.920860    3.977383   -1.344128
     56          6           0       10.059257    1.968123   -2.377893
     57          6           0       11.572326    1.899258   -2.498339
     58          6           0       12.281589    0.642141   -1.983470
     59          6           0       13.538397    1.088210   -1.176735
     60          6           0       14.519725    1.925229   -2.040126
     61          6           0       14.176216   -0.147430   -0.577555
     62          6           0       14.948007   -0.033761    0.703202
     63          6           0       14.351079   -0.999976    1.835795
     64          6           0       13.632005   -0.192267    2.970323
     65          6           0       13.286043   -1.103944    4.166629
     66          6           0       12.339053    0.555369    2.550639
     67          1           0       -2.898901    3.273274    1.061666
     68          1           0       -9.285714    3.269572    0.000992
     69          1           0       -9.216850   -3.058868   -0.824817
     70          1           0       -1.407037   -1.244372    1.458237
     71          1           0       -1.058036    1.358297    0.221816
     72          1           0       -1.119330    0.564203    3.154959
     73          1           0       -1.548938    2.207934    2.762271
     74          1           0        0.020861    1.567176    2.140860
     75          1           0       -0.574250   -0.169437   -1.226033
     76          1           0       -1.531384   -1.763009   -1.282476
     77          1           0        0.377661   -2.935772   -0.694430
     78          1           0        0.660557   -1.941314    0.531023
     79          1           0       -4.985227    6.275904    1.835418
     80          1           0       -4.366417    6.204754    0.123773
     81          1           0       -3.537292    5.481191    1.491064
     82          1           0       -6.975010    7.489109    1.540655
     83          1           0       -8.127915    7.972437    0.269667
     84          1           0       -6.568929    7.442123   -0.192875
     85          1           0      -10.644728    1.656046   -1.228639
     86          1           0      -11.257713   -1.022860   -0.258679
     87          1           0      -12.223772    2.163858    0.163803
     88          1           0      -11.198429    1.960489    1.549717
     89          1           0      -12.314967    0.660271    0.929164
     90          1           0      -11.412530    0.029966   -2.595745
     91          1           0      -11.082886   -1.654268   -2.608161
     92          1           0       -9.142660   -1.267162   -3.876411
     93          1           0       -8.688222   -0.060640   -2.610619
     94          1           0       -9.794604    0.376120   -3.932597
     95          1           0       -6.782358   -6.233046   -0.698861
     96          1           0       -7.572087   -5.289109   -1.896880
     97          1           0       -8.309209   -5.253521   -0.337717
     98          1           0       -2.201200   -3.736228   -0.596435
     99          1           0       -0.471001   -3.234858    3.108660
    100          1           0        0.797796   -4.293325    2.519765
    101          1           0       -0.685191   -4.915327    3.419644
    102          1           0        4.050081   -1.753754   -2.417641
    103          1           0        4.492163   -3.112674   -1.429624
    104          1           0        4.791752   -0.805373    0.309590
    105          1           0        6.618348   -2.765817   -2.328456
    106          1           0        8.122280   -2.185198   -1.637177
    107          1           0        7.070572   -1.199710   -2.753489
    108          1           0        8.278171   -0.787933    0.041973
    109          1           0        6.898365   -0.388359    1.032916
    110          1           0        6.631837    1.675439    0.014006
    111          1           0        7.221462    1.068321   -1.603841
    112          1           0        9.656473    0.944019    0.030785
    113          1           0        8.733000    2.105113    0.909109
    114          1           0       10.412896    2.955621   -0.408882
    115          1           0        8.931168    4.276964   -2.392949
    116          1           0        9.374689    4.748623   -0.721650
    117          1           0        7.863897    3.869938   -1.101175
    118          1           0        9.887762    2.523626   -3.300199
    119          1           0        9.676662    0.947819   -2.419247
    120          1           0       11.948585    2.811813   -2.036610
    121          1           0       11.911210    2.052943   -3.523992
    122          1           0       12.607474    0.041535   -2.832369
    123          1           0       11.583322    0.108630   -1.339071
    124          1           0       13.147130    1.781227   -0.431665
    125          1           0       14.429455    2.924074   -1.612627
    126          1           0       14.332154    1.928924   -3.113337
    127          1           0       15.516772    1.527523   -1.850782
    128          1           0       14.955734   -0.426381   -1.286897
    129          1           0       13.496473   -0.999383   -0.605023
    130          1           0       14.921778    0.985352    1.089603
    131          1           0       15.938871   -0.422694    0.471226
    132          1           0       15.280310   -1.297641    2.320867
    133          1           0       13.828013   -1.807401    1.322632
    134          1           0       14.410476    0.491316    3.309927
    135          1           0       12.247076   -1.408839    4.046067
    136          1           0       13.297236   -0.604848    5.135586
    137          1           0       13.882744   -2.004032    4.015053
    138          1           0       12.615154    1.545809    2.190649
    139          1           0       11.609311    0.613723    3.358249
    140          1           0       11.848677   -0.048136    1.785966
 ---------------------------------------------------------------------

 SCF Done:  E(RwB97XD) =  -3007.84535816     A.U. after   19 cycles

 Excitation energies and oscillator strengths:

 Excited State   1:      Singlet-A      1.6715 eV  741.77 nm  f=0.3869  <S**2>=0.000
     245 -> 248        0.19684
     246 -> 247        0.67968
     245 <- 248        0.11827
 This state for optimization and/or second-order correction.
 Total Energy, E(TD-HF/TD-DFT) =  -3007.78393298
 Copying the excited state density for this state as the 1-particle RhoCI density.

 Excited State   2:      Singlet-A      2.1705 eV  571.23 nm  f=0.1050  <S**2>=0.000
     245 -> 247        0.63576
     246 -> 248       -0.29623

 Excited State   3:      Singlet-A      3.4739 eV  356.90 nm  f=0.0541  <S**2>=0.000
     243 -> 247        0.63147
     246 -> 248        0.25485

 Excited State   4:      Singlet-A      3.5408 eV  350.16 nm  f=0.6662  <S**2>=0.000
     242 -> 247        0.16144
     243 -> 247       -0.23256
     245 -> 247        0.28132
     246 -> 248        0.56396
     245 <- 247       -0.10974

 Excited State   5:      Singlet-A      3.6323 eV  341.33 nm  f=0.0011  <S**2>=0.000
     241 -> 247        0.52039
     241 -> 249       -0.33120
     241 -> 250        0.21784
     242 -> 247       -0.18042

 The electronic state is 1-A.
 Alpha  occ. eigenvalues --  -46.96317 -19.30343 -19.29643 -19.25117 -19.25117
 Alpha  occ. eigenvalues --  -19.24295 -19.24064 -14.46923 -14.46413 -14.44458
 Alpha  occ. eigenvalues --  -14.44016 -10.43792 -10.43346 -10.40110 -10.38878
 Alpha  occ. eigenvalues --  -10.35921 -10.35876 -10.35439 -10.34973 -10.34700
 Alpha  occ. eigenvalues --  -10.34659 -10.34450 -10.34360 -10.34148 -10.33099
 Alpha  occ. eigenvalues --  -10.32941 -10.32664 -10.32524 -10.32494 -10.32355
 Alpha  occ. eigenvalues --  -10.32037 -10.31943 -10.31910 -10.31840 -10.31747
 Alpha  occ. eigenvalues --  -10.31626 -10.31415 -10.30931 -10.30923 -10.30853
 Alpha  occ. eigenvalues --  -10.30807 -10.30240 -10.30185 -10.30084 -10.29856
 Alpha  occ. eigenvalues --  -10.29748 -10.29745 -10.29525 -10.29404 -10.29218
 Alpha  occ. eigenvalues --  -10.29179 -10.29064 -10.28965 -10.28960 -10.28822
 Alpha  occ. eigenvalues --  -10.28746 -10.28732 -10.28511 -10.28459 -10.28427
 Alpha  occ. eigenvalues --  -10.28284 -10.28169 -10.27934 -10.27793 -10.27618
 Alpha  occ. eigenvalues --  -10.27492  -3.22086  -1.95701  -1.95209  -1.95038
 Alpha  occ. eigenvalues --   -1.18162  -1.16739  -1.11759  -1.11728  -1.10025
 Alpha  occ. eigenvalues --   -1.09189  -1.07769  -1.06320  -1.05908  -1.04501
 Alpha  occ. eigenvalues --   -0.95568  -0.92694  -0.91931  -0.91266  -0.90993
 Alpha  occ. eigenvalues --   -0.90550  -0.89868  -0.89203  -0.89136  -0.88564
 Alpha  occ. eigenvalues --   -0.88097  -0.87464  -0.85959  -0.85741  -0.85143
 Alpha  occ. eigenvalues --   -0.84226  -0.83682  -0.83013  -0.82576  -0.82023
 Alpha  occ. eigenvalues --   -0.81606  -0.80298  -0.80024  -0.79433  -0.78558
 Alpha  occ. eigenvalues --   -0.77808  -0.77323  -0.77091  -0.76607  -0.76035
 Alpha  occ. eigenvalues --   -0.75686  -0.74535  -0.73720  -0.72976  -0.71681
 Alpha  occ. eigenvalues --   -0.70764  -0.70303  -0.69634  -0.69494  -0.67860
 Alpha  occ. eigenvalues --   -0.67054  -0.66570  -0.66105  -0.66011  -0.64867
 Alpha  occ. eigenvalues --   -0.64407  -0.64307  -0.63963  -0.63198  -0.62583
 Alpha  occ. eigenvalues --   -0.61839  -0.61433  -0.61032  -0.60810  -0.60230
 Alpha  occ. eigenvalues --   -0.59788  -0.59533  -0.58197  -0.57653  -0.57221
 Alpha  occ. eigenvalues --   -0.57100  -0.56906  -0.56329  -0.56212  -0.56030
 Alpha  occ. eigenvalues --   -0.55954  -0.54958  -0.54841  -0.54817  -0.54698
 Alpha  occ. eigenvalues --   -0.54385  -0.54245  -0.54185  -0.53916  -0.53794
 Alpha  occ. eigenvalues --   -0.53619  -0.53381  -0.53283  -0.52941  -0.52577
 Alpha  occ. eigenvalues --   -0.52342  -0.52233  -0.51997  -0.51670  -0.51478
 Alpha  occ. eigenvalues --   -0.51272  -0.51165  -0.50986  -0.50841  -0.50653
 Alpha  occ. eigenvalues --   -0.50487  -0.50447  -0.50354  -0.50205  -0.50072
 Alpha  occ. eigenvalues --   -0.49806  -0.49283  -0.49160  -0.48979  -0.48405
 Alpha  occ. eigenvalues --   -0.48254  -0.48060  -0.48040  -0.47994  -0.47792
 Alpha  occ. eigenvalues --   -0.47494  -0.47048  -0.47003  -0.46983  -0.46576
 Alpha  occ. eigenvalues --   -0.46380  -0.46233  -0.45890  -0.45798  -0.45535
 Alpha  occ. eigenvalues --   -0.45403  -0.45383  -0.45351  -0.45184  -0.44842
 Alpha  occ. eigenvalues --   -0.44678  -0.44598  -0.44574  -0.44385  -0.44043
 Alpha  occ. eigenvalues --   -0.43768  -0.43685  -0.43530  -0.43381  -0.43358
 Alpha  occ. eigenvalues --   -0.43138  -0.42787  -0.42544  -0.42312  -0.42172
 Alpha  occ. eigenvalues --   -0.41294  -0.41030  -0.41009  -0.40901  -0.40687
 Alpha  occ. eigenvalues --   -0.40523  -0.40092  -0.39830  -0.39790  -0.39445
 Alpha  occ. eigenvalues --   -0.39126  -0.38930  -0.38779  -0.38600  -0.38517
 Alpha  occ. eigenvalues --   -0.37259  -0.36775  -0.36676  -0.36551  -0.36425
 Alpha  occ. eigenvalues --   -0.36179  -0.35568  -0.35249  -0.33606  -0.33354
 Alpha  occ. eigenvalues --   -0.32973  -0.32692  -0.31686  -0.31373  -0.25560
 Alpha  occ. eigenvalues --   -0.22831
 Alpha virt. eigenvalues --   -0.06759   0.00114   0.02229   0.04015   0.06590
 Alpha virt. eigenvalues --    0.06952   0.07165   0.07577   0.07909   0.08858
 Alpha virt. eigenvalues --    0.09932   0.10867   0.11085   0.11887   0.11969

 Mulliken charges:
               1
     1  Mg   0.951016
     2  C   -0.048670
     3  C   -0.077485
     4  C   -0.069812
     5  C   -0.058386
     6  N   -0.340479
     7  C    0.013309
     8  C   -0.098170
     9  C   -0.059573
    10  C    0.024400
    11  C    0.027771
    12  C    0.072371
    13  C   -0.050600
    14  C    0.224572
    15  O   -0.258651
    16  O   -0.403885
    17  N   -0.405259
    18  C    0.137981
    19  C   -0.164855
    20  C   -0.055150
    21  C    0.120969
    22  C    0.048638
    23  C    0.059183
    24  O   -0.245818
    25  C   -0.012873
    26  N   -0.321121
    27  C    0.053506
    28  C   -0.126641
    29  C   -0.017057
    30  C    0.003256
    31  C    0.012878
    32  C   -0.027284
    33  C   -0.026092
    34  N   -0.425502
    35  C    0.110634
    36  C   -0.172322
    37  C   -0.056928
    38  C    0.192604
    39  C    0.078692
    40  C    0.083539
    41  O   -0.211029
    42  C   -0.063138
    43  C    0.258697
    44  O   -0.231395
    45  O   -0.395122
    46  C    0.142802
    47  C    0.256740
    48  C   -0.117108
    49  C   -0.220413
    50  C    0.025698
    51  C    0.006428
    52  C   -0.009030
    53  C   -0.019481
    54  C   -0.156831
    55  C    0.012565
    56  C    0.033663
    57  C   -0.062989
    58  C    0.013895
    59  C   -0.237679
    60  C    0.020906
    61  C    0.031878
    62  C   -0.004617
    63  C   -0.019409
    64  C   -0.232321
    65  C    0.012432
    66  C   -0.004952
    67  H   -0.013714
    68  H    0.022348
    69  H    0.001780
    70  H    0.042522
    71  H    0.042370
    72  H    0.048866
    73  H    0.033239
    74  H    0.048375
    75  H    0.056616
    76  H    0.056079
    77  H    0.069579
    78  H    0.039525
    79  H    0.043935
    80  H    0.053952
    81  H    0.044062
    82  H    0.069220
    83  H    0.054321
    84  H    0.045001
    85  H    0.042823
    86  H    0.031168
    87  H    0.030566
    88  H    0.056046
    89  H    0.033704
    90  H    0.023409
    91  H    0.029274
    92  H    0.047703
    93  H    0.044729
    94  H    0.034154
    95  H    0.070600
    96  H    0.039997
    97  H    0.046364
    98  H    0.064980
    99  H    0.037619
   100  H    0.069426
   101  H    0.065912
   102  H    0.055888
   103  H    0.051269
   104  H    0.016822
   105  H    0.019511
   106  H    0.038283
   107  H    0.054836
   108  H    0.004619
   109  H    0.024621
   110  H    0.039896
   111  H    0.036746
   112  H    0.021390
   113  H    0.020561
   114  H    0.016263
   115  H    0.026739
   116  H    0.027883
   117  H    0.019576
   118  H    0.022245
   119  H    0.014901
   120  H    0.004341
   121  H    0.006630
   122  H    0.021955
   123  H    0.012036
   124  H    0.012027
   125  H    0.030050
   126  H    0.036780
   127  H    0.024884
   128  H   -0.001198
   129  H    0.005468
   130  H    0.020482
   131  H    0.021337
   132  H    0.021506
   133  H    0.027404
   134  H    0.022716
   135  H    0.011415
   136  H    0.039866
   137  H    0.023102
   138  H    0.038102
   139  H    0.029803
   140  H    0.029800
 Sum of Mulliken charges =  -0.00000

 Dipole moment (field-independent basis, Debye):
    X=              2.0875    Y=              3.2630    Z=              0.2254  Tot=              3.8802
 Quadrupole moment (field-independent basis, Debye-Ang):
   XX=           -367.9489   YY=           -411.7275   ZZ=           -402.9803
   XY=             -0.6191   XZ=             16.1435   YZ=              8.0377

 Normal termination of Gaussian 16 at Sat Apr 30 09:59:16 2022.
