 Gaussian 16, Revision A.03,
 Gaussian 16:  ES64L-G16RevA.03 25-Dec-2016

 --------------------
 #p ZINDO=(nstates=5)
 --------------------

 -----------------------------
 step_701_chromophore_13 ZINDO
 -----------------------------
 Symbolic Z-matrix:
 Charge =  0 Multiplicity = 1

                         Standard orientation:
 ---------------------------------------------------------------------
 Center     Atomic      Atomic             Coordinates (Angstroms)
 Number     Number       Type             X           Y           Z
 ---------------------------------------------------------------------
      1         12           0       -6.152073    0.357221    0.270722
      2          6           0       -3.678176   -2.221466    0.210127
      3          6           0       -3.733903    2.579360    0.949990
      4          6           0       -8.499642    2.542131    0.210820
      5          6           0       -8.541294   -2.235235   -0.585051
      6          7           0       -3.895290    0.276506    0.440941
      7          6           0       -3.151422   -0.888255    0.439769
      8          6           0       -1.705549   -0.611452    0.622332
      9          6           0       -1.707972    0.966186    1.004548
     10          6           0       -3.150128    1.330351    0.796130
     11          6           0       -1.013898    1.334656    2.391768
     12          6           0       -0.921430   -1.064456   -0.710022
     13          6           0        0.400586   -1.859339   -0.523767
     14          6           0        1.672496   -1.460710   -1.209615
     15          8           0        1.785337   -0.675857   -2.150741
     16          8           0        2.801694   -2.141903   -0.668446
     17          7           0       -6.159792    2.408313    0.588676
     18          6           0       -5.103197    3.145391    0.808017
     19          6           0       -5.500395    4.538520    0.767888
     20          6           0       -6.883207    4.587222    0.603452
     21          6           0       -7.265490    3.142576    0.515652
     22          6           0       -4.520959    5.667069    1.058674
     23          6           0       -7.829407    5.779590    0.456978
     24          8           0       -9.042789    5.537146    0.398006
     25          6           0       -7.351315    7.258687    0.543462
     26          7           0       -8.298522    0.099823    0.078233
     27          6           0       -8.983649    1.220356    0.055252
     28          6           0      -10.482061    0.985087   -0.384839
     29          6           0      -10.494291   -0.511822   -0.845191
     30          6           0       -9.091460   -0.940032   -0.349542
     31          6           0      -11.594324    1.438493    0.678801
     32          6           0      -10.635024   -0.694453   -2.352956
     33          6           0       -9.476491   -0.427479   -3.268506
     34          7           0       -6.148220   -1.739449   -0.093328
     35          6           0       -7.192193   -2.651208   -0.355718
     36          6           0       -6.632881   -4.019869   -0.590064
     37          6           0       -5.242054   -3.843389   -0.251058
     38          6           0       -5.034395   -2.492488   -0.017411
     39          6           0       -7.339017   -5.305193   -0.832460
     40          6           0       -3.994057   -4.570983   -0.178494
     41          8           0       -3.791690   -5.769157   -0.368152
     42          6           0       -2.943727   -3.502110    0.167346
     43          6           0       -2.350755   -3.850567    1.468511
     44          8           0       -2.895413   -3.589532    2.515793
     45          8           0       -1.021412   -4.292000    1.392147
     46          6           0       -0.277547   -4.220267    2.684842
     47          6           0        4.077296   -2.106330   -1.386125
     48          6           0        5.101346   -1.226401   -0.647380
     49          6           0        6.417737   -1.284784   -0.781889
     50          6           0        7.108933   -1.887402   -1.908273
     51          6           0        7.278174   -0.356204    0.011901
     52          6           0        7.405393    1.134179   -0.531127
     53          6           0        8.871741    1.690431   -0.089419
     54          6           0        9.572756    2.656209   -1.035433
     55          6           0        8.920860    3.977383   -1.344128
     56          6           0       10.059257    1.968123   -2.377893
     57          6           0       11.572326    1.899258   -2.498339
     58          6           0       12.281589    0.642141   -1.983470
     59          6           0       13.538397    1.088210   -1.176735
     60          6           0       14.519725    1.925229   -2.040126
     61          6           0       14.176216   -0.147430   -0.577555
     62          6           0       14.948007   -0.033761    0.703202
     63          6           0       14.351079   -0.999976    1.835795
     64          6           0       13.632005   -0.192267    2.970323
     65          6           0       13.286043   -1.103944    4.166629
     66          6           0       12.339053    0.555369    2.550639
     67          1           0       -2.898901    3.273274    1.061666
     68          1           0       -9.285714    3.269572    0.000992
     69          1           0       -9.216850   -3.058868   -0.824817
     70          1           0       -1.407037   -1.244372    1.458237
     71          1           0       -1.058036    1.358297    0.221816
     72          1           0       -1.119330    0.564203    3.154959
     73          1           0       -1.548938    2.207934    2.762271
     74          1           0        0.020861    1.567176    2.140860
     75          1           0       -0.574250   -0.169437   -1.226033
     76          1           0       -1.531384   -1.763009   -1.282476
     77          1           0        0.377661   -2.935772   -0.694430
     78          1           0        0.660557   -1.941314    0.531023
     79          1           0       -4.985227    6.275904    1.835418
     80          1           0       -4.366417    6.204754    0.123773
     81          1           0       -3.537292    5.481191    1.491064
     82          1           0       -6.975010    7.489109    1.540655
     83          1           0       -8.127915    7.972437    0.269667
     84          1           0       -6.568929    7.442123   -0.192875
     85          1           0      -10.644728    1.656046   -1.228639
     86          1           0      -11.257713   -1.022860   -0.258679
     87          1           0      -12.223772    2.163858    0.163803
     88          1           0      -11.198429    1.960489    1.549717
     89          1           0      -12.314967    0.660271    0.929164
     90          1           0      -11.412530    0.029966   -2.595745
     91          1           0      -11.082886   -1.654268   -2.608161
     92          1           0       -9.142660   -1.267162   -3.876411
     93          1           0       -8.688222   -0.060640   -2.610619
     94          1           0       -9.794604    0.376120   -3.932597
     95          1           0       -6.782358   -6.233046   -0.698861
     96          1           0       -7.572087   -5.289109   -1.896880
     97          1           0       -8.309209   -5.253521   -0.337717
     98          1           0       -2.201200   -3.736228   -0.596435
     99          1           0       -0.471001   -3.234858    3.108660
    100          1           0        0.797796   -4.293325    2.519765
    101          1           0       -0.685191   -4.915327    3.419644
    102          1           0        4.050081   -1.753754   -2.417641
    103          1           0        4.492163   -3.112674   -1.429624
    104          1           0        4.791752   -0.805373    0.309590
    105          1           0        6.618348   -2.765817   -2.328456
    106          1           0        8.122280   -2.185198   -1.637177
    107          1           0        7.070572   -1.199710   -2.753489
    108          1           0        8.278171   -0.787933    0.041973
    109          1           0        6.898365   -0.388359    1.032916
    110          1           0        6.631837    1.675439    0.014006
    111          1           0        7.221462    1.068321   -1.603841
    112          1           0        9.656473    0.944019    0.030785
    113          1           0        8.733000    2.105113    0.909109
    114          1           0       10.412896    2.955621   -0.408882
    115          1           0        8.931168    4.276964   -2.392949
    116          1           0        9.374689    4.748623   -0.721650
    117          1           0        7.863897    3.869938   -1.101175
    118          1           0        9.887762    2.523626   -3.300199
    119          1           0        9.676662    0.947819   -2.419247
    120          1           0       11.948585    2.811813   -2.036610
    121          1           0       11.911210    2.052943   -3.523992
    122          1           0       12.607474    0.041535   -2.832369
    123          1           0       11.583322    0.108630   -1.339071
    124          1           0       13.147130    1.781227   -0.431665
    125          1           0       14.429455    2.924074   -1.612627
    126          1           0       14.332154    1.928924   -3.113337
    127          1           0       15.516772    1.527523   -1.850782
    128          1           0       14.955734   -0.426381   -1.286897
    129          1           0       13.496473   -0.999383   -0.605023
    130          1           0       14.921778    0.985352    1.089603
    131          1           0       15.938871   -0.422694    0.471226
    132          1           0       15.280310   -1.297641    2.320867
    133          1           0       13.828013   -1.807401    1.322632
    134          1           0       14.410476    0.491316    3.309927
    135          1           0       12.247076   -1.408839    4.046067
    136          1           0       13.297236   -0.604848    5.135586
    137          1           0       13.882744   -2.004032    4.015053
    138          1           0       12.615154    1.545809    2.190649
    139          1           0       11.609311    0.613723    3.358249
    140          1           0       11.848677   -0.048136    1.785966
 ---------------------------------------------------------------------

 SCF Done:  E(RZINDO/S) =  -474.202083431     A.U. after   19 cycles

 Excitation energies and oscillator strengths:

 Excited State   1:      Singlet-A      1.2454 eV  995.54 nm  f=0.6016  <S**2>=0.000
     175 ->178         0.20308
     176 ->177         0.65948
 This state for optimization and/or second-order correction.
 Total Energy, E(CIS/TDA) =  -474.156315797
 Copying the excited state density for this state as the 1-particle RhoCI density.

 Excited State   2:      Singlet-A      1.9034 eV  651.40 nm  f=0.0507  <S**2>=0.000
     175 ->177         0.55595
     176 ->178        -0.41283

 Excited State   3:      Singlet-A      2.9519 eV  420.01 nm  f=0.2010  <S**2>=0.000
     168 ->177         0.22927
     168 ->178        -0.13405
     168 ->179         0.27964
     168 ->180         0.32775
     168 ->185         0.15342
     168 ->188         0.10563
     175 ->177         0.16071
     176 ->178         0.23009
     176 ->179        -0.23831

 Excited State   4:      Singlet-A      3.0004 eV  413.22 nm  f=0.0897  <S**2>=0.000
     168 ->177         0.14106
     168 ->179         0.14474
     168 ->180         0.20416
     169 ->177        -0.15142
     169 ->179         0.18110
     169 ->185         0.10120
     176 ->178        -0.12617
     176 ->179         0.47758

 Excited State   5:      Singlet-A      3.0179 eV  410.83 nm  f=0.6244  <S**2>=0.000
     168 ->179        -0.12320
     168 ->180        -0.11708
     169 ->177        -0.19515
     169 ->179         0.23252
     169 ->180        -0.15135
     169 ->185         0.13395
     170 ->177        -0.10473
     175 ->177         0.27961
     176 ->178         0.38932

 The electronic state is 1-A.
 Alpha  occ. eigenvalues --   -1.83617  -1.83291  -1.80379  -1.72689  -1.71346
 Alpha  occ. eigenvalues --   -1.69208  -1.66907  -1.60978  -1.59009  -1.56938
 Alpha  occ. eigenvalues --   -1.56737  -1.52534  -1.49270  -1.48339  -1.47180
 Alpha  occ. eigenvalues --   -1.43442  -1.41944  -1.39825  -1.38849  -1.37209
 Alpha  occ. eigenvalues --   -1.35425  -1.33485  -1.32781  -1.31416  -1.28358
 Alpha  occ. eigenvalues --   -1.27539  -1.24300  -1.21591  -1.20762  -1.18140
 Alpha  occ. eigenvalues --   -1.16950  -1.16036  -1.15223  -1.14644  -1.13619
 Alpha  occ. eigenvalues --   -1.13169  -1.11320  -1.10652  -1.05311  -1.04405
 Alpha  occ. eigenvalues --   -1.04162  -1.01548  -1.00566  -0.97812  -0.97276
 Alpha  occ. eigenvalues --   -0.97106  -0.94399  -0.92930  -0.92365  -0.91251
 Alpha  occ. eigenvalues --   -0.89664  -0.88592  -0.88439  -0.88011  -0.85581
 Alpha  occ. eigenvalues --   -0.84298  -0.83309  -0.82492  -0.81654  -0.80321
 Alpha  occ. eigenvalues --   -0.79507  -0.79029  -0.77280  -0.77135  -0.76751
 Alpha  occ. eigenvalues --   -0.76534  -0.75397  -0.74618  -0.74238  -0.74008
 Alpha  occ. eigenvalues --   -0.73491  -0.73206  -0.72164  -0.71921  -0.71037
 Alpha  occ. eigenvalues --   -0.70266  -0.69093  -0.69071  -0.68642  -0.67665
 Alpha  occ. eigenvalues --   -0.67203  -0.66729  -0.66454  -0.66264  -0.65461
 Alpha  occ. eigenvalues --   -0.65221  -0.64246  -0.64034  -0.63899  -0.63342
 Alpha  occ. eigenvalues --   -0.63145  -0.62486  -0.62218  -0.61843  -0.61519
 Alpha  occ. eigenvalues --   -0.61511  -0.61248  -0.61146  -0.60505  -0.60419
 Alpha  occ. eigenvalues --   -0.60100  -0.59671  -0.59077  -0.58795  -0.58129
 Alpha  occ. eigenvalues --   -0.57796  -0.57453  -0.57017  -0.56662  -0.56010
 Alpha  occ. eigenvalues --   -0.55976  -0.55636  -0.55367  -0.55062  -0.54512
 Alpha  occ. eigenvalues --   -0.54304  -0.54077  -0.53536  -0.53046  -0.52465
 Alpha  occ. eigenvalues --   -0.52435  -0.52008  -0.51616  -0.51545  -0.51072
 Alpha  occ. eigenvalues --   -0.50973  -0.50572  -0.50518  -0.50322  -0.49901
 Alpha  occ. eigenvalues --   -0.49720  -0.49664  -0.49304  -0.49243  -0.48734
 Alpha  occ. eigenvalues --   -0.48641  -0.48504  -0.48353  -0.48119  -0.47716
 Alpha  occ. eigenvalues --   -0.47578  -0.47385  -0.46849  -0.46651  -0.46458
 Alpha  occ. eigenvalues --   -0.46122  -0.46042  -0.45983  -0.45496  -0.45412
 Alpha  occ. eigenvalues --   -0.45313  -0.44951  -0.44879  -0.44603  -0.43842
 Alpha  occ. eigenvalues --   -0.43519  -0.42822  -0.42582  -0.42478  -0.42168
 Alpha  occ. eigenvalues --   -0.41930  -0.41490  -0.41113  -0.39240  -0.38494
 Alpha  occ. eigenvalues --   -0.38205  -0.37240  -0.35801  -0.34802  -0.34423
 Alpha  occ. eigenvalues --   -0.33531  -0.32489  -0.32191  -0.31860  -0.26132
 Alpha  occ. eigenvalues --   -0.21649
 Alpha virt. eigenvalues --   -0.08304  -0.02018  -0.00671   0.01050   0.01715
 Alpha virt. eigenvalues --    0.02372   0.03043   0.03230   0.04669   0.04834
 Alpha virt. eigenvalues --    0.05774   0.06263   0.06970   0.07505   0.07922

 Mulliken charges:
               1
     1  Mg   0.438829
     2  C   -0.065150
     3  C   -0.110296
     4  C   -0.050316
     5  C   -0.055240
     6  N   -0.299237
     7  C    0.141364
     8  C   -0.008350
     9  C    0.003651
    10  C    0.145759
    11  C   -0.050923
    12  C   -0.024456
    13  C   -0.000028
    14  C    0.468357
    15  O   -0.517874
    16  O   -0.290162
    17  N   -0.277148
    18  C    0.116076
    19  C    0.006916
    20  C   -0.040290
    21  C    0.115345
    22  C   -0.048125
    23  C    0.324169
    24  O   -0.520300
    25  C   -0.026158
    26  N   -0.241391
    27  C    0.127075
    28  C   -0.006491
    29  C    0.013729
    30  C    0.100521
    31  C   -0.056671
    32  C   -0.018037
    33  C   -0.052024
    34  N   -0.336228
    35  C    0.076085
    36  C    0.041520
    37  C   -0.067288
    38  C    0.140328
    39  C   -0.031055
    40  C    0.333380
    41  O   -0.536854
    42  C    0.068234
    43  C    0.490417
    44  O   -0.519164
    45  O   -0.286554
    46  C    0.073642
    47  C    0.106758
    48  C   -0.095205
    49  C    0.005740
    50  C   -0.039898
    51  C   -0.030469
    52  C   -0.035352
    53  C   -0.034637
    54  C   -0.007422
    55  C   -0.055058
    56  C   -0.038429
    57  C   -0.043162
    58  C   -0.035613
    59  C   -0.012434
    60  C   -0.059447
    61  C   -0.034875
    62  C   -0.044875
    63  C   -0.047602
    64  C   -0.012146
    65  C   -0.064868
    66  C   -0.055183
    67  H    0.009472
    68  H    0.037273
    69  H    0.028275
    70  H    0.038172
    71  H    0.033854
    72  H    0.031650
    73  H    0.024042
    74  H    0.026579
    75  H    0.043714
    76  H    0.037985
    77  H    0.051164
    78  H    0.035059
    79  H    0.021722
    80  H    0.029843
    81  H    0.028036
    82  H    0.042882
    83  H    0.037224
    84  H    0.028391
    85  H    0.029280
    86  H    0.033478
    87  H    0.014823
    88  H    0.034519
    89  H    0.023893
    90  H    0.008827
    91  H    0.015503
    92  H    0.026960
    93  H    0.029158
    94  H    0.016614
    95  H    0.048031
    96  H    0.026572
    97  H    0.030611
    98  H    0.057476
    99  H    0.032904
   100  H    0.038938
   101  H    0.053733
   102  H    0.056085
   103  H    0.039173
   104  H    0.029072
   105  H    0.012880
   106  H    0.023440
   107  H    0.033536
   108  H    0.014106
   109  H    0.017785
   110  H    0.029773
   111  H    0.036225
   112  H    0.020682
   113  H    0.015334
   114  H    0.012373
   115  H    0.020852
   116  H    0.018269
   117  H    0.012884
   118  H    0.025703
   119  H    0.020022
   120  H    0.013526
   121  H    0.006933
   122  H    0.022587
   123  H    0.019180
   124  H    0.018750
   125  H    0.017600
   126  H    0.027665
   127  H    0.017783
   128  H    0.005459
   129  H    0.017937
   130  H    0.027225
   131  H    0.019600
   132  H    0.012113
   133  H    0.037076
   134  H    0.018677
   135  H    0.009941
   136  H    0.027387
   137  H    0.021865
   138  H    0.019406
   139  H    0.019539
   140  H    0.019494
 Sum of Mulliken charges =  -0.00000

 Dipole moment (field-independent basis, Debye):
    X=              3.6462    Y=              3.8623    Z=             -0.6319  Tot=              5.3490
 N-N= 4.252848991361D+03 E-N= 0.000000000000D+00  KE=-9.180063721598D+03
 Leave Link  601 at Sat Apr 30 10:17:17 2022, MaxMem=  6710886400 cpu:               0.7 elap:               0.0
 (Enter /sw/apps/gaussian-16.0/g16/l9999.exe)
 1\1\GINC-BP1-COMPUTE161\SP\RZINDO CIS\STO-3G\C55H74Mg1N4O6\OF15641\30-
 Apr-2022\0\\#p ZINDO=(nstates=5)\\step_701_chromophore_13 ZINDO\\0,1\M
 g,0,47.262,24.665,27.626\C,0,47.775,26.909,30.36\C,0,46.252,22.329,29.
 81\C,0,46.793,22.822,25.043\C,0,48.281,27.41,25.484\N,0,46.896,24.603,
 29.86\C,0,47.241,25.613,30.738\C,0,46.921,25.249,32.14\C,0,46.536,23.6
 78,32.003\C,0,46.543,23.489,30.513\C,0,47.391,22.683,32.909\C,0,45.792
 ,26.258,32.69\C,0,45.99,26.84,34.117\C,0,44.912,26.782,35.157\O,0,43.7

 Normal termination of Gaussian 16 at Sat Apr 30 10:17:17 2022.
