 Gaussian 16, Revision A.03,
 Gaussian 16:  ES64L-G16RevA.03 25-Dec-2016

 ------------------------------
 #p blyp/Def2SVP td=(nstates=5)
 ------------------------------

 ---------------------------------------------------
 step_1801_chromophore_20 TDDFT with blyp functional
 ---------------------------------------------------
 Symbolic Z-matrix:
 Charge =  0 Multiplicity = 1

                         Standard orientation:
 ---------------------------------------------------------------------
 Center     Atomic      Atomic             Coordinates (Angstroms)
 Number     Number       Type             X           Y           Z
 ---------------------------------------------------------------------
      1         12           0        4.140282    1.474193   -0.938009
      2          6           0        4.662010   -1.940891   -1.142927
      3          6           0        1.428781    1.182620   -3.052339
      4          6           0        3.267233    4.557315    0.030650
      5          6           0        6.752192    1.538891    1.584759
      6          7           0        3.176087   -0.200672   -1.869720
      7          6           0        3.469256   -1.523293   -1.763902
      8          6           0        2.388461   -2.408366   -2.480964
      9          6           0        1.703778   -1.346953   -3.444929
     10          6           0        2.081554   -0.035746   -2.712013
     11          6           0        2.365033   -1.240103   -4.830437
     12          6           0        1.428408   -2.904314   -1.335286
     13          6           0        0.702970   -4.266224   -1.756366
     14          6           0       -0.088312   -4.941192   -0.677576
     15          8           0        0.389382   -5.568058    0.265765
     16          8           0       -1.421886   -4.604691   -0.740200
     17          7           0        2.563134    2.727147   -1.417677
     18          6           0        1.603404    2.452664   -2.413764
     19          6           0        0.749313    3.575644   -2.529682
     20          6           0        1.201864    4.594578   -1.586962
     21          6           0        2.361654    4.011652   -0.872810
     22          6           0       -0.453413    3.645519   -3.465036
     23          6           0        0.694274    5.995507   -1.367182
     24          8           0       -0.244777    6.423839   -1.985270
     25          6           0        1.031350    6.878977   -0.235452
     26          7           0        4.737643    2.775300    0.820597
     27          6           0        4.316822    4.040579    0.838240
     28          6           0        5.041015    4.867741    1.911253
     29          6           0        6.048407    3.859156    2.416498
     30          6           0        5.798736    2.589671    1.576021
     31          6           0        5.796607    6.204559    1.369429
     32          6           0        5.972004    3.454331    3.927864
     33          6           0        7.296481    3.092466    4.577702
     34          7           0        5.650677    0.133013   -0.128718
     35          6           0        6.653991    0.278463    0.854843
     36          6           0        7.501068   -0.869417    0.913859
     37          6           0        6.706582   -1.814735    0.242612
     38          6           0        5.598003   -1.116401   -0.360380
     39          6           0        8.653918   -1.057373    1.839918
     40          6           0        6.560150   -3.186512   -0.115453
     41          8           0        7.240661   -4.192053    0.142591
     42          6           0        5.266776   -3.335053   -0.928080
     43          6           0        4.344659   -4.373553   -0.322992
     44          8           0        4.146026   -4.537784    0.918777
     45          8           0        4.033826   -5.260339   -1.296529
     46          6           0        3.702253   -6.581043   -0.838925
     47          6           0       -2.275855   -5.171305    0.335999
     48          6           0       -3.335059   -4.153096    0.649145
     49          6           0       -4.161059   -4.157028    1.642341
     50          6           0       -4.247014   -5.095485    2.892406
     51          6           0       -5.141099   -2.961495    1.678823
     52          6           0       -4.533002   -1.618557    2.104919
     53          6           0       -5.063098   -1.140498    3.452549
     54          6           0       -6.347343   -0.221877    3.181954
     55          6           0       -6.045921    1.199045    3.780297
     56          6           0       -7.663661   -0.905785    3.733642
     57          6           0       -8.652249   -1.005634    2.535786
     58          6           0       -9.698846    0.217450    2.560472
     59          6           0       -9.462164    1.356213    1.577855
     60          6           0       -9.628513    2.763245    2.215419
     61          6           0      -10.416627    1.123885    0.417877
     62          6           0       -9.660955    0.525807   -0.848730
     63          6           0       -9.885710    1.561744   -2.026775
     64          6           0      -10.966157    1.194326   -3.025063
     65          6           0      -10.493738    1.522534   -4.488308
     66          6           0      -12.382413    1.833970   -2.637109
     67          1           0        0.693795    0.981464   -3.835306
     68          1           0        3.222927    5.648292    0.046102
     69          1           0        7.557017    1.490512    2.321675
     70          1           0        2.885540   -3.213162   -3.023935
     71          1           0        0.625720   -1.511842   -3.440076
     72          1           0        1.639975   -1.599199   -5.560856
     73          1           0        3.299257   -1.784469   -4.971904
     74          1           0        2.495353   -0.197715   -5.118244
     75          1           0        0.838390   -2.036903   -1.040292
     76          1           0        2.123317   -3.105346   -0.520551
     77          1           0        1.315113   -4.943236   -2.353744
     78          1           0       -0.116499   -3.997669   -2.423367
     79          1           0       -1.401748    3.505274   -2.945338
     80          1           0       -0.336484    3.035525   -4.360973
     81          1           0       -0.506221    4.645751   -3.895017
     82          1           0        1.357030    6.267928    0.605930
     83          1           0        0.153602    7.426414    0.109621
     84          1           0        1.818662    7.567627   -0.542343
     85          1           0        4.384484    5.082769    2.754667
     86          1           0        7.108306    4.057590    2.256063
     87          1           0        5.787061    6.129800    0.282578
     88          1           0        6.818635    6.152184    1.746691
     89          1           0        5.311763    7.131648    1.674271
     90          1           0        5.232610    2.676594    4.117452
     91          1           0        5.605053    4.339783    4.448568
     92          1           0        7.637504    3.841862    5.291268
     93          1           0        8.078913    2.986047    3.826580
     94          1           0        7.089216    2.162216    5.106846
     95          1           0        8.943025   -0.179838    2.418329
     96          1           0        9.573365   -1.422045    1.382259
     97          1           0        8.440907   -1.801611    2.607045
     98          1           0        5.616197   -3.723978   -1.884653
     99          1           0        2.633700   -6.746069   -0.980259
    100          1           0        3.972828   -6.692976    0.210561
    101          1           0        4.314399   -7.235819   -1.458987
    102          1           0       -1.759009   -5.441058    1.256023
    103          1           0       -2.752243   -6.122174    0.095709
    104          1           0       -3.344582   -3.209920    0.103458
    105          1           0       -3.987075   -4.438566    3.722021
    106          1           0       -3.541246   -5.915259    2.754120
    107          1           0       -5.219453   -5.458952    3.222062
    108          1           0       -5.945848   -3.254024    2.353136
    109          1           0       -5.533976   -2.716533    0.691486
    110          1           0       -4.779793   -0.875893    1.347250
    111          1           0       -3.445031   -1.599780    2.150147
    112          1           0       -4.271685   -0.474201    3.794635
    113          1           0       -5.203596   -1.865906    4.253973
    114          1           0       -6.457728    0.037112    2.129230
    115          1           0       -5.832145    1.078874    4.842111
    116          1           0       -6.983443    1.727028    3.605395
    117          1           0       -5.195792    1.602395    3.230854
    118          1           0       -8.034865   -0.240788    4.513868
    119          1           0       -7.395942   -1.906094    4.073600
    120          1           0       -9.302689   -1.875422    2.625624
    121          1           0       -8.296727   -1.077664    1.508397
    122          1           0       -9.793731    0.591256    3.579982
    123          1           0      -10.650521   -0.270620    2.352744
    124          1           0       -8.439162    1.297069    1.207452
    125          1           0       -9.570326    2.736606    3.303038
    126          1           0      -10.612869    3.178190    1.999044
    127          1           0       -8.798420    3.421616    1.959262
    128          1           0      -10.797175    2.106523    0.138171
    129          1           0      -11.303410    0.535263    0.652908
    130          1           0      -10.146200   -0.414197   -1.106584
    131          1           0       -8.611214    0.358917   -0.606385
    132          1           0       -8.899214    1.688142   -2.473679
    133          1           0      -10.125293    2.579382   -1.716941
    134          1           0      -11.158583    0.121904   -2.972408
    135          1           0      -10.381645    0.579028   -5.022314
    136          1           0       -9.464101    1.877181   -4.459021
    137          1           0      -11.039380    2.319252   -4.994381
    138          1           0      -12.841326    2.446534   -3.413277
    139          1           0      -12.197902    2.526857   -1.815359
    140          1           0      -13.102180    1.109634   -2.254493
 ---------------------------------------------------------------------

 SCF Done:  E(RB-LYP) =  -3007.32944715     A.U. after   23 cycles

 Excitation energies and oscillator strengths:

 Excited State   1:      Singlet-A      1.4622 eV  847.91 nm  f=0.0010  <S**2>=0.000
     244 -> 247        0.63218
     245 -> 247       -0.31059
 This state for optimization and/or second-order correction.
 Total Energy, E(TD-HF/TD-DFT) =  -3007.27571120
 Copying the excited state density for this state as the 1-particle RhoCI density.

 Excited State   2:      Singlet-A      1.6257 eV  762.64 nm  f=0.0058  <S**2>=0.000
     243 -> 247        0.62624
     244 -> 247       -0.16236
     245 -> 247       -0.26606

 Excited State   3:      Singlet-A      1.7586 eV  705.01 nm  f=0.2403  <S**2>=0.000
     243 -> 247        0.15448
     245 -> 248       -0.16880
     246 -> 247        0.66314
     246 <- 247       -0.14574

 Excited State   4:      Singlet-A      1.9131 eV  648.07 nm  f=0.1347  <S**2>=0.000
     240 -> 247        0.12926
     243 -> 247        0.27565
     244 -> 247        0.23876
     245 -> 247        0.52621
     246 -> 247       -0.15310
     246 -> 248        0.20960

 Excited State   5:      Singlet-A      2.0547 eV  603.43 nm  f=0.0002  <S**2>=0.000
     242 -> 247        0.70657

 The electronic state is 1-A.
 Alpha  occ. eigenvalues --  -46.28547 -18.82609 -18.82274 -18.76621 -18.76052
 Alpha  occ. eigenvalues --  -18.74668 -18.74354 -14.04034 -14.03517 -14.01320
 Alpha  occ. eigenvalues --  -14.01117 -10.04102 -10.03669  -9.98767  -9.98574
 Alpha  occ. eigenvalues --   -9.97790  -9.97369  -9.97255  -9.97214  -9.96705
 Alpha  occ. eigenvalues --   -9.96462  -9.96396  -9.96143  -9.96064  -9.95002
 Alpha  occ. eigenvalues --   -9.94995  -9.94937  -9.94618  -9.94390  -9.94219
 Alpha  occ. eigenvalues --   -9.94199  -9.94158  -9.94019  -9.93765  -9.93642
 Alpha  occ. eigenvalues --   -9.93485  -9.93350  -9.93302  -9.93222  -9.93027
 Alpha  occ. eigenvalues --   -9.92972  -9.92776  -9.92752  -9.92733  -9.92142
 Alpha  occ. eigenvalues --   -9.92121  -9.92045  -9.91884  -9.91564  -9.91391
 Alpha  occ. eigenvalues --   -9.91380  -9.91352  -9.91289  -9.91235  -9.91215
 Alpha  occ. eigenvalues --   -9.91200  -9.90927  -9.90832  -9.90807  -9.90783
 Alpha  occ. eigenvalues --   -9.90701  -9.90668  -9.90663  -9.90585  -9.90298
 Alpha  occ. eigenvalues --   -9.90291  -2.92986  -1.73397  -1.72882  -1.72695
 Alpha  occ. eigenvalues --   -0.97886  -0.97564  -0.92147  -0.89722  -0.89318
 Alpha  occ. eigenvalues --   -0.88163  -0.87647  -0.87437  -0.85966  -0.83646
 Alpha  occ. eigenvalues --   -0.74670  -0.73569  -0.72878  -0.72770  -0.72605
 Alpha  occ. eigenvalues --   -0.72042  -0.71419  -0.71171  -0.70943  -0.70401
 Alpha  occ. eigenvalues --   -0.69377  -0.68651  -0.67934  -0.67488  -0.67133
 Alpha  occ. eigenvalues --   -0.66156  -0.65564  -0.65015  -0.64836  -0.64358
 Alpha  occ. eigenvalues --   -0.63784  -0.63036  -0.62303  -0.61505  -0.60681
 Alpha  occ. eigenvalues --   -0.60451  -0.60278  -0.59988  -0.59362  -0.58507
 Alpha  occ. eigenvalues --   -0.58168  -0.57714  -0.57026  -0.56087  -0.54588
 Alpha  occ. eigenvalues --   -0.54107  -0.53608  -0.52929  -0.52130  -0.51926
 Alpha  occ. eigenvalues --   -0.51414  -0.51107  -0.50825  -0.50403  -0.50285
 Alpha  occ. eigenvalues --   -0.49660  -0.49286  -0.48755  -0.48483  -0.46654
 Alpha  occ. eigenvalues --   -0.46335  -0.45953  -0.45672  -0.45185  -0.44596
 Alpha  occ. eigenvalues --   -0.43974  -0.43506  -0.42789  -0.42445  -0.42195
 Alpha  occ. eigenvalues --   -0.42069  -0.41947  -0.41338  -0.41056  -0.40977
 Alpha  occ. eigenvalues --   -0.40649  -0.40531  -0.40080  -0.39855  -0.39799
 Alpha  occ. eigenvalues --   -0.39547  -0.39478  -0.39389  -0.39153  -0.38927
 Alpha  occ. eigenvalues --   -0.38886  -0.38640  -0.38540  -0.38478  -0.38045
 Alpha  occ. eigenvalues --   -0.37895  -0.37643  -0.37380  -0.37215  -0.37049
 Alpha  occ. eigenvalues --   -0.36684  -0.36561  -0.36497  -0.36236  -0.36161
 Alpha  occ. eigenvalues --   -0.35953  -0.35857  -0.35791  -0.35695  -0.35624
 Alpha  occ. eigenvalues --   -0.35314  -0.35252  -0.34965  -0.34935  -0.34814
 Alpha  occ. eigenvalues --   -0.34661  -0.34606  -0.34145  -0.34109  -0.34091
 Alpha  occ. eigenvalues --   -0.33983  -0.33782  -0.33503  -0.33448  -0.33417
 Alpha  occ. eigenvalues --   -0.33054  -0.32833  -0.32645  -0.32522  -0.32321
 Alpha  occ. eigenvalues --   -0.32235  -0.32111  -0.31967  -0.31569  -0.31542
 Alpha  occ. eigenvalues --   -0.31474  -0.31228  -0.31151  -0.30893  -0.30751
 Alpha  occ. eigenvalues --   -0.30515  -0.30387  -0.30125  -0.29852  -0.29679
 Alpha  occ. eigenvalues --   -0.29610  -0.29398  -0.29018  -0.28905  -0.28722
 Alpha  occ. eigenvalues --   -0.28564  -0.28479  -0.28465  -0.28250  -0.28064
 Alpha  occ. eigenvalues --   -0.27741  -0.27492  -0.27329  -0.26919  -0.26470
 Alpha  occ. eigenvalues --   -0.26219  -0.26189  -0.25719  -0.25395  -0.25038
 Alpha  occ. eigenvalues --   -0.24314  -0.24208  -0.24040  -0.23622  -0.23585
 Alpha  occ. eigenvalues --   -0.22378  -0.22210  -0.21570  -0.21102  -0.20681
 Alpha  occ. eigenvalues --   -0.20010  -0.19750  -0.18128  -0.17536  -0.17359
 Alpha  occ. eigenvalues --   -0.16334
 Alpha virt. eigenvalues --   -0.12201  -0.07383  -0.06121  -0.04498  -0.03708
 Alpha virt. eigenvalues --   -0.03516  -0.03398  -0.01545  -0.00707  -0.00125
 Alpha virt. eigenvalues --    0.01283   0.01589   0.02175   0.02543   0.02690

 Mulliken charges:
               1
     1  Mg   0.693919
     2  C    0.049616
     3  C   -0.038409
     4  C   -0.036181
     5  C   -0.049553
     6  N   -0.235249
     7  C   -0.100744
     8  C    0.013703
     9  C    0.006664
    10  C   -0.030933
    11  C    0.147978
    12  C    0.107766
    13  C    0.143816
    14  C    0.096196
    15  O   -0.197391
    16  O   -0.273552
    17  N   -0.351199
    18  C    0.184475
    19  C   -0.140016
    20  C    0.060422
    21  C    0.135248
    22  C    0.178676
    23  C   -0.117096
    24  O   -0.165737
    25  C    0.145237
    26  N   -0.135563
    27  C   -0.050693
    28  C    0.094137
    29  C   -0.057881
    30  C    0.041344
    31  C    0.107911
    32  C    0.073557
    33  C    0.077588
    34  N   -0.199069
    35  C    0.039674
    36  C   -0.131131
    37  C    0.114106
    38  C   -0.008815
    39  C    0.148912
    40  C   -0.062105
    41  O   -0.153041
    42  C    0.089235
    43  C    0.133516
    44  O   -0.216412
    45  O   -0.260003
    46  C    0.203008
    47  C    0.317236
    48  C   -0.100765
    49  C   -0.131689
    50  C    0.132556
    51  C    0.127910
    52  C    0.073299
    53  C    0.108616
    54  C   -0.129763
    55  C    0.085493
    56  C    0.172777
    57  C    0.047557
    58  C    0.086382
    59  C   -0.072031
    60  C    0.109478
    61  C    0.101358
    62  C    0.069169
    63  C    0.082676
    64  C   -0.089351
    65  C    0.111791
    66  C    0.096115
    67  H   -0.056046
    68  H   -0.061773
    69  H   -0.064685
    70  H   -0.028487
    71  H   -0.021265
    72  H   -0.013735
    73  H    0.005739
    74  H   -0.008137
    75  H   -0.007688
    76  H    0.016781
    77  H    0.005474
    78  H   -0.024300
    79  H    0.010755
    80  H   -0.018673
    81  H   -0.003680
    82  H   -0.015623
    83  H    0.003379
    84  H    0.009830
    85  H   -0.018637
    86  H   -0.026037
    87  H   -0.000538
    88  H   -0.001585
    89  H    0.004363
    90  H   -0.014970
    91  H   -0.030568
    92  H   -0.009435
    93  H    0.001594
    94  H   -0.002452
    95  H   -0.020700
    96  H    0.003372
    97  H    0.014019
    98  H   -0.010240
    99  H    0.018360
   100  H    0.032466
   101  H    0.007894
   102  H    0.011635
   103  H    0.001075
   104  H   -0.035396
   105  H    0.000467
   106  H   -0.008530
   107  H   -0.003711
   108  H   -0.034734
   109  H   -0.026496
   110  H   -0.041683
   111  H   -0.031720
   112  H   -0.055890
   113  H   -0.026619
   114  H   -0.024928
   115  H   -0.011038
   116  H   -0.011348
   117  H   -0.006439
   118  H   -0.030290
   119  H   -0.030077
   120  H   -0.048618
   121  H   -0.022923
   122  H   -0.049883
   123  H   -0.044740
   124  H   -0.033933
   125  H   -0.027054
   126  H   -0.014218
   127  H   -0.013189
   128  H   -0.037231
   129  H   -0.031177
   130  H   -0.029152
   131  H   -0.017949
   132  H   -0.042138
   133  H   -0.029564
   134  H   -0.033789
   135  H   -0.013041
   136  H   -0.032407
   137  H   -0.008247
   138  H   -0.016919
   139  H   -0.027059
   140  H   -0.010567
 Sum of Mulliken charges =  -0.00000

 Dipole moment (field-independent basis, Debye):
    X=             -0.0693    Y=              2.4795    Z=             -0.9086  Tot=              2.6417
 Quadrupole moment (field-independent basis, Debye-Ang):
   XX=           -400.3650   YY=           -422.5369   ZZ=           -390.5302
   XY=             55.1806   XZ=             -5.2536   YZ=             28.8596

 Normal termination of Gaussian 16 at Fri Apr 29 01:18:18 2022.
