 Gaussian 16, Revision A.03,
 Gaussian 16:  ES64L-G16RevA.03 25-Dec-2016

 -----------------------------------
 #p cam-b3lyp/Def2SVP td=(nstates=5)
 -----------------------------------

 --------------------------------------------------------
 step_1801_chromophore_20 TDDFT with cam-b3lyp functional
 --------------------------------------------------------
 Symbolic Z-matrix:
 Charge =  0 Multiplicity = 1

                         Standard orientation:
 ---------------------------------------------------------------------
 Center     Atomic      Atomic             Coordinates (Angstroms)
 Number     Number       Type             X           Y           Z
 ---------------------------------------------------------------------
      1         12           0        4.140282    1.474193   -0.938009
      2          6           0        4.662010   -1.940891   -1.142927
      3          6           0        1.428781    1.182620   -3.052339
      4          6           0        3.267233    4.557315    0.030650
      5          6           0        6.752192    1.538891    1.584759
      6          7           0        3.176087   -0.200672   -1.869720
      7          6           0        3.469256   -1.523293   -1.763902
      8          6           0        2.388461   -2.408366   -2.480964
      9          6           0        1.703778   -1.346953   -3.444929
     10          6           0        2.081554   -0.035746   -2.712013
     11          6           0        2.365033   -1.240103   -4.830437
     12          6           0        1.428408   -2.904314   -1.335286
     13          6           0        0.702970   -4.266224   -1.756366
     14          6           0       -0.088312   -4.941192   -0.677576
     15          8           0        0.389382   -5.568058    0.265765
     16          8           0       -1.421886   -4.604691   -0.740200
     17          7           0        2.563134    2.727147   -1.417677
     18          6           0        1.603404    2.452664   -2.413764
     19          6           0        0.749313    3.575644   -2.529682
     20          6           0        1.201864    4.594578   -1.586962
     21          6           0        2.361654    4.011652   -0.872810
     22          6           0       -0.453413    3.645519   -3.465036
     23          6           0        0.694274    5.995507   -1.367182
     24          8           0       -0.244777    6.423839   -1.985270
     25          6           0        1.031350    6.878977   -0.235452
     26          7           0        4.737643    2.775300    0.820597
     27          6           0        4.316822    4.040579    0.838240
     28          6           0        5.041015    4.867741    1.911253
     29          6           0        6.048407    3.859156    2.416498
     30          6           0        5.798736    2.589671    1.576021
     31          6           0        5.796607    6.204559    1.369429
     32          6           0        5.972004    3.454331    3.927864
     33          6           0        7.296481    3.092466    4.577702
     34          7           0        5.650677    0.133013   -0.128718
     35          6           0        6.653991    0.278463    0.854843
     36          6           0        7.501068   -0.869417    0.913859
     37          6           0        6.706582   -1.814735    0.242612
     38          6           0        5.598003   -1.116401   -0.360380
     39          6           0        8.653918   -1.057373    1.839918
     40          6           0        6.560150   -3.186512   -0.115453
     41          8           0        7.240661   -4.192053    0.142591
     42          6           0        5.266776   -3.335053   -0.928080
     43          6           0        4.344659   -4.373553   -0.322992
     44          8           0        4.146026   -4.537784    0.918777
     45          8           0        4.033826   -5.260339   -1.296529
     46          6           0        3.702253   -6.581043   -0.838925
     47          6           0       -2.275855   -5.171305    0.335999
     48          6           0       -3.335059   -4.153096    0.649145
     49          6           0       -4.161059   -4.157028    1.642341
     50          6           0       -4.247014   -5.095485    2.892406
     51          6           0       -5.141099   -2.961495    1.678823
     52          6           0       -4.533002   -1.618557    2.104919
     53          6           0       -5.063098   -1.140498    3.452549
     54          6           0       -6.347343   -0.221877    3.181954
     55          6           0       -6.045921    1.199045    3.780297
     56          6           0       -7.663661   -0.905785    3.733642
     57          6           0       -8.652249   -1.005634    2.535786
     58          6           0       -9.698846    0.217450    2.560472
     59          6           0       -9.462164    1.356213    1.577855
     60          6           0       -9.628513    2.763245    2.215419
     61          6           0      -10.416627    1.123885    0.417877
     62          6           0       -9.660955    0.525807   -0.848730
     63          6           0       -9.885710    1.561744   -2.026775
     64          6           0      -10.966157    1.194326   -3.025063
     65          6           0      -10.493738    1.522534   -4.488308
     66          6           0      -12.382413    1.833970   -2.637109
     67          1           0        0.693795    0.981464   -3.835306
     68          1           0        3.222927    5.648292    0.046102
     69          1           0        7.557017    1.490512    2.321675
     70          1           0        2.885540   -3.213162   -3.023935
     71          1           0        0.625720   -1.511842   -3.440076
     72          1           0        1.639975   -1.599199   -5.560856
     73          1           0        3.299257   -1.784469   -4.971904
     74          1           0        2.495353   -0.197715   -5.118244
     75          1           0        0.838390   -2.036903   -1.040292
     76          1           0        2.123317   -3.105346   -0.520551
     77          1           0        1.315113   -4.943236   -2.353744
     78          1           0       -0.116499   -3.997669   -2.423367
     79          1           0       -1.401748    3.505274   -2.945338
     80          1           0       -0.336484    3.035525   -4.360973
     81          1           0       -0.506221    4.645751   -3.895017
     82          1           0        1.357030    6.267928    0.605930
     83          1           0        0.153602    7.426414    0.109621
     84          1           0        1.818662    7.567627   -0.542343
     85          1           0        4.384484    5.082769    2.754667
     86          1           0        7.108306    4.057590    2.256063
     87          1           0        5.787061    6.129800    0.282578
     88          1           0        6.818635    6.152184    1.746691
     89          1           0        5.311763    7.131648    1.674271
     90          1           0        5.232610    2.676594    4.117452
     91          1           0        5.605053    4.339783    4.448568
     92          1           0        7.637504    3.841862    5.291268
     93          1           0        8.078913    2.986047    3.826580
     94          1           0        7.089216    2.162216    5.106846
     95          1           0        8.943025   -0.179838    2.418329
     96          1           0        9.573365   -1.422045    1.382259
     97          1           0        8.440907   -1.801611    2.607045
     98          1           0        5.616197   -3.723978   -1.884653
     99          1           0        2.633700   -6.746069   -0.980259
    100          1           0        3.972828   -6.692976    0.210561
    101          1           0        4.314399   -7.235819   -1.458987
    102          1           0       -1.759009   -5.441058    1.256023
    103          1           0       -2.752243   -6.122174    0.095709
    104          1           0       -3.344582   -3.209920    0.103458
    105          1           0       -3.987075   -4.438566    3.722021
    106          1           0       -3.541246   -5.915259    2.754120
    107          1           0       -5.219453   -5.458952    3.222062
    108          1           0       -5.945848   -3.254024    2.353136
    109          1           0       -5.533976   -2.716533    0.691486
    110          1           0       -4.779793   -0.875893    1.347250
    111          1           0       -3.445031   -1.599780    2.150147
    112          1           0       -4.271685   -0.474201    3.794635
    113          1           0       -5.203596   -1.865906    4.253973
    114          1           0       -6.457728    0.037112    2.129230
    115          1           0       -5.832145    1.078874    4.842111
    116          1           0       -6.983443    1.727028    3.605395
    117          1           0       -5.195792    1.602395    3.230854
    118          1           0       -8.034865   -0.240788    4.513868
    119          1           0       -7.395942   -1.906094    4.073600
    120          1           0       -9.302689   -1.875422    2.625624
    121          1           0       -8.296727   -1.077664    1.508397
    122          1           0       -9.793731    0.591256    3.579982
    123          1           0      -10.650521   -0.270620    2.352744
    124          1           0       -8.439162    1.297069    1.207452
    125          1           0       -9.570326    2.736606    3.303038
    126          1           0      -10.612869    3.178190    1.999044
    127          1           0       -8.798420    3.421616    1.959262
    128          1           0      -10.797175    2.106523    0.138171
    129          1           0      -11.303410    0.535263    0.652908
    130          1           0      -10.146200   -0.414197   -1.106584
    131          1           0       -8.611214    0.358917   -0.606385
    132          1           0       -8.899214    1.688142   -2.473679
    133          1           0      -10.125293    2.579382   -1.716941
    134          1           0      -11.158583    0.121904   -2.972408
    135          1           0      -10.381645    0.579028   -5.022314
    136          1           0       -9.464101    1.877181   -4.459021
    137          1           0      -11.039380    2.319252   -4.994381
    138          1           0      -12.841326    2.446534   -3.413277
    139          1           0      -12.197902    2.526857   -1.815359
    140          1           0      -13.102180    1.109634   -2.254493
 ---------------------------------------------------------------------

 SCF Done:  E(RCAM-B3LYP) =  -3007.11567976     A.U. after   17 cycles

 Excitation energies and oscillator strengths:

 Excited State   1:      Singlet-A      1.6492 eV  751.76 nm  f=0.3739  <S**2>=0.000
     245 -> 248       -0.17766
     246 -> 247        0.68482
     245 <- 248       -0.10701
 This state for optimization and/or second-order correction.
 Total Energy, E(TD-HF/TD-DFT) =  -3007.05507097
 Copying the excited state density for this state as the 1-particle RhoCI density.

 Excited State   2:      Singlet-A      2.1160 eV  585.94 nm  f=0.1405  <S**2>=0.000
     245 -> 247        0.65249
     246 -> 248        0.25519

 Excited State   3:      Singlet-A      3.1052 eV  399.28 nm  f=0.0033  <S**2>=0.000
     244 -> 247        0.68355

 Excited State   4:      Singlet-A      3.1907 eV  388.58 nm  f=0.0008  <S**2>=0.000
     240 -> 247        0.44984
     240 -> 249        0.19358
     240 -> 251        0.13547
     241 -> 247        0.33472
     241 -> 249        0.12988
     242 -> 247       -0.23165

 Excited State   5:      Singlet-A      3.2789 eV  378.13 nm  f=0.0011  <S**2>=0.000
     241 -> 247        0.25933
     241 -> 249       -0.12408
     241 -> 251        0.12439
     242 -> 247        0.51955
     242 -> 248       -0.13735
     242 -> 249       -0.19810
     242 -> 251        0.16174

 The electronic state is 1-A.
 Alpha  occ. eigenvalues --  -46.90207 -19.25423 -19.25156 -19.19539 -19.19025
 Alpha  occ. eigenvalues --  -19.17713 -19.17644 -14.42792 -14.42536 -14.39859
 Alpha  occ. eigenvalues --  -14.39546 -10.39335 -10.39118 -10.33896 -10.33775
 Alpha  occ. eigenvalues --  -10.31908 -10.31847 -10.31825 -10.31779 -10.31060
 Alpha  occ. eigenvalues --  -10.30946 -10.30536 -10.30390 -10.30350 -10.29336
 Alpha  occ. eigenvalues --  -10.29107 -10.28962 -10.28708 -10.28663 -10.28656
 Alpha  occ. eigenvalues --  -10.28337 -10.28322 -10.28152 -10.28036 -10.27817
 Alpha  occ. eigenvalues --  -10.27572 -10.27567 -10.27541 -10.27326 -10.27285
 Alpha  occ. eigenvalues --  -10.26649 -10.26520 -10.26452 -10.26406 -10.26098
 Alpha  occ. eigenvalues --  -10.25851 -10.25794 -10.25723 -10.25421 -10.25365
 Alpha  occ. eigenvalues --  -10.25351 -10.25109 -10.25048 -10.24937 -10.24882
 Alpha  occ. eigenvalues --  -10.24873 -10.24540 -10.24531 -10.24470 -10.24466
 Alpha  occ. eigenvalues --  -10.24394 -10.24358 -10.24260 -10.24194 -10.23992
 Alpha  occ. eigenvalues --  -10.23974  -3.18538  -1.93430  -1.92998  -1.92830
 Alpha  occ. eigenvalues --   -1.16298  -1.15923  -1.10694  -1.07965  -1.07083
 Alpha  occ. eigenvalues --   -1.06021  -1.05495  -1.05114  -1.03583  -1.01203
 Alpha  occ. eigenvalues --   -0.91727  -0.90429  -0.89635  -0.89559  -0.89316
 Alpha  occ. eigenvalues --   -0.88795  -0.88073  -0.87818  -0.87512  -0.86950
 Alpha  occ. eigenvalues --   -0.85784  -0.85197  -0.84192  -0.83653  -0.83298
 Alpha  occ. eigenvalues --   -0.82198  -0.81593  -0.81020  -0.80669  -0.80169
 Alpha  occ. eigenvalues --   -0.79582  -0.78647  -0.77905  -0.77077  -0.76092
 Alpha  occ. eigenvalues --   -0.75784  -0.75648  -0.75347  -0.74660  -0.73616
 Alpha  occ. eigenvalues --   -0.73364  -0.72698  -0.71967  -0.70898  -0.69183
 Alpha  occ. eigenvalues --   -0.68744  -0.68191  -0.67377  -0.66327  -0.66281
 Alpha  occ. eigenvalues --   -0.65525  -0.65294  -0.64952  -0.64248  -0.64117
 Alpha  occ. eigenvalues --   -0.63706  -0.63259  -0.62688  -0.62243  -0.60343
 Alpha  occ. eigenvalues --   -0.59938  -0.59405  -0.59166  -0.58489  -0.58097
 Alpha  occ. eigenvalues --   -0.57482  -0.56696  -0.56075  -0.55709  -0.55388
 Alpha  occ. eigenvalues --   -0.55206  -0.55004  -0.54547  -0.54146  -0.53727
 Alpha  occ. eigenvalues --   -0.53338  -0.53189  -0.52708  -0.52649  -0.52420
 Alpha  occ. eigenvalues --   -0.52228  -0.52048  -0.51881  -0.51714  -0.51390
 Alpha  occ. eigenvalues --   -0.51321  -0.51274  -0.51088  -0.51014  -0.50406
 Alpha  occ. eigenvalues --   -0.50374  -0.49888  -0.49783  -0.49405  -0.49218
 Alpha  occ. eigenvalues --   -0.49051  -0.48778  -0.48646  -0.48590  -0.48580
 Alpha  occ. eigenvalues --   -0.48494  -0.48134  -0.47905  -0.47765  -0.47576
 Alpha  occ. eigenvalues --   -0.47390  -0.47261  -0.46989  -0.46861  -0.46748
 Alpha  occ. eigenvalues --   -0.46632  -0.46418  -0.46373  -0.45968  -0.45859
 Alpha  occ. eigenvalues --   -0.45730  -0.45662  -0.45348  -0.45299  -0.45099
 Alpha  occ. eigenvalues --   -0.45058  -0.44468  -0.44358  -0.44098  -0.43864
 Alpha  occ. eigenvalues --   -0.43678  -0.43539  -0.43401  -0.43317  -0.43147
 Alpha  occ. eigenvalues --   -0.42928  -0.42842  -0.42703  -0.42462  -0.42226
 Alpha  occ. eigenvalues --   -0.41879  -0.41659  -0.41649  -0.41513  -0.41357
 Alpha  occ. eigenvalues --   -0.40977  -0.40716  -0.40156  -0.39914  -0.39767
 Alpha  occ. eigenvalues --   -0.39739  -0.39611  -0.39403  -0.39212  -0.39209
 Alpha  occ. eigenvalues --   -0.38611  -0.38372  -0.38191  -0.37777  -0.37732
 Alpha  occ. eigenvalues --   -0.36954  -0.36941  -0.36687  -0.36518  -0.35646
 Alpha  occ. eigenvalues --   -0.35547  -0.34792  -0.34655  -0.34058  -0.33903
 Alpha  occ. eigenvalues --   -0.33573  -0.32968  -0.32572  -0.31249  -0.30355
 Alpha  occ. eigenvalues --   -0.30130  -0.29953  -0.29521  -0.29372  -0.24196
 Alpha  occ. eigenvalues --   -0.21683
 Alpha virt. eigenvalues --   -0.09543  -0.02301   0.00233   0.01272   0.02769
 Alpha virt. eigenvalues --    0.04149   0.04303   0.05698   0.06653   0.06842
 Alpha virt. eigenvalues --    0.07881   0.08476   0.08528   0.08599   0.09030

 Mulliken charges:
               1
     1  Mg   0.823254
     2  C    0.021317
     3  C   -0.057598
     4  C   -0.061880
     5  C   -0.049018
     6  N   -0.306677
     7  C   -0.059521
     8  C   -0.035475
     9  C   -0.046025
    10  C   -0.012355
    11  C    0.086391
    12  C    0.059488
    13  C    0.070655
    14  C    0.177862
    15  O   -0.237887
    16  O   -0.340022
    17  N   -0.437685
    18  C    0.192502
    19  C   -0.146009
    20  C   -0.013007
    21  C    0.162279
    22  C    0.125196
    23  C   -0.034957
    24  O   -0.203488
    25  C    0.057127
    26  N   -0.204258
    27  C   -0.023045
    28  C    0.030998
    29  C   -0.112611
    30  C    0.062275
    31  C    0.053492
    32  C    0.019896
    33  C    0.013098
    34  N   -0.285802
    35  C    0.039024
    36  C   -0.118176
    37  C    0.032081
    38  C    0.032905
    39  C    0.093493
    40  C    0.037663
    41  O   -0.193813
    42  C    0.012266
    43  C    0.215800
    44  O   -0.254818
    45  O   -0.322117
    46  C    0.165530
    47  C    0.288153
    48  C   -0.125253
    49  C   -0.154863
    50  C    0.078296
    51  C    0.068296
    52  C    0.017770
    53  C    0.049563
    54  C   -0.175032
    55  C    0.038517
    56  C    0.112593
    57  C   -0.003068
    58  C    0.036443
    59  C   -0.133022
    60  C    0.052244
    61  C    0.051932
    62  C    0.016040
    63  C    0.026001
    64  C   -0.148220
    65  C    0.052428
    66  C    0.039426
    67  H   -0.020607
    68  H   -0.026059
    69  H   -0.031245
    70  H    0.008436
    71  H    0.014111
    72  H    0.012004
    73  H    0.030690
    74  H    0.018449
    75  H    0.023645
    76  H    0.044540
    77  H    0.036069
    78  H    0.010401
    79  H    0.038108
    80  H    0.007259
    81  H    0.026696
    82  H    0.014810
    83  H    0.038229
    84  H    0.037563
    85  H    0.016954
    86  H    0.008676
    87  H    0.023011
    88  H    0.022865
    89  H    0.027555
    90  H    0.015209
    91  H   -0.001911
    92  H    0.016606
    93  H    0.019600
    94  H    0.022253
    95  H    0.004270
    96  H    0.030989
    97  H    0.041114
    98  H    0.034464
    99  H    0.037372
   100  H    0.059574
   101  H    0.030664
   102  H    0.042675
   103  H    0.027041
   104  H   -0.000546
   105  H    0.022500
   106  H    0.013796
   107  H    0.021406
   108  H   -0.008754
   109  H    0.004627
   110  H   -0.011658
   111  H   -0.001181
   112  H   -0.022446
   113  H    0.000079
   114  H    0.000876
   115  H    0.011500
   116  H    0.005867
   117  H    0.016106
   118  H   -0.000818
   119  H   -0.001731
   120  H   -0.016742
   121  H    0.000114
   122  H   -0.020972
   123  H   -0.014661
   124  H   -0.004958
   125  H   -0.003536
   126  H    0.010282
   127  H    0.011115
   128  H   -0.011378
   129  H   -0.002586
   130  H   -0.000676
   131  H    0.007510
   132  H   -0.011232
   133  H   -0.002070
   134  H   -0.002022
   135  H    0.011151
   136  H   -0.007615
   137  H    0.014943
   138  H    0.007532
   139  H   -0.005471
   140  H    0.012972
 Sum of Mulliken charges =  -0.00000

 Dipole moment (field-independent basis, Debye):
    X=             -0.1227    Y=              3.0492    Z=             -0.9887  Tot=              3.2079
 Quadrupole moment (field-independent basis, Debye-Ang):
   XX=           -399.9139   YY=           -419.1460   ZZ=           -389.0812
   XY=             57.3165   XZ=             -4.9691   YZ=             30.4271

 Normal termination of Gaussian 16 at Fri Apr 29 00:19:31 2022.
