 Gaussian 16, Revision A.03,
 Gaussian 16:  ES64L-G16RevA.03 25-Dec-2016

 ---------------------------------
 #p PBE1PBE/Def2SVP td=(nstates=5)
 ---------------------------------

 ------------------------------------------------------
 step_1801_chromophore_20 TDDFT with PBE1PBE functional
 ------------------------------------------------------
 Symbolic Z-matrix:
 Charge =  0 Multiplicity = 1

                         Standard orientation:
 ---------------------------------------------------------------------
 Center     Atomic      Atomic             Coordinates (Angstroms)
 Number     Number       Type             X           Y           Z
 ---------------------------------------------------------------------
      1         12           0        4.140282    1.474193   -0.938009
      2          6           0        4.662010   -1.940891   -1.142927
      3          6           0        1.428781    1.182620   -3.052339
      4          6           0        3.267233    4.557315    0.030650
      5          6           0        6.752192    1.538891    1.584759
      6          7           0        3.176087   -0.200672   -1.869720
      7          6           0        3.469256   -1.523293   -1.763902
      8          6           0        2.388461   -2.408366   -2.480964
      9          6           0        1.703778   -1.346953   -3.444929
     10          6           0        2.081554   -0.035746   -2.712013
     11          6           0        2.365033   -1.240103   -4.830437
     12          6           0        1.428408   -2.904314   -1.335286
     13          6           0        0.702970   -4.266224   -1.756366
     14          6           0       -0.088312   -4.941192   -0.677576
     15          8           0        0.389382   -5.568058    0.265765
     16          8           0       -1.421886   -4.604691   -0.740200
     17          7           0        2.563134    2.727147   -1.417677
     18          6           0        1.603404    2.452664   -2.413764
     19          6           0        0.749313    3.575644   -2.529682
     20          6           0        1.201864    4.594578   -1.586962
     21          6           0        2.361654    4.011652   -0.872810
     22          6           0       -0.453413    3.645519   -3.465036
     23          6           0        0.694274    5.995507   -1.367182
     24          8           0       -0.244777    6.423839   -1.985270
     25          6           0        1.031350    6.878977   -0.235452
     26          7           0        4.737643    2.775300    0.820597
     27          6           0        4.316822    4.040579    0.838240
     28          6           0        5.041015    4.867741    1.911253
     29          6           0        6.048407    3.859156    2.416498
     30          6           0        5.798736    2.589671    1.576021
     31          6           0        5.796607    6.204559    1.369429
     32          6           0        5.972004    3.454331    3.927864
     33          6           0        7.296481    3.092466    4.577702
     34          7           0        5.650677    0.133013   -0.128718
     35          6           0        6.653991    0.278463    0.854843
     36          6           0        7.501068   -0.869417    0.913859
     37          6           0        6.706582   -1.814735    0.242612
     38          6           0        5.598003   -1.116401   -0.360380
     39          6           0        8.653918   -1.057373    1.839918
     40          6           0        6.560150   -3.186512   -0.115453
     41          8           0        7.240661   -4.192053    0.142591
     42          6           0        5.266776   -3.335053   -0.928080
     43          6           0        4.344659   -4.373553   -0.322992
     44          8           0        4.146026   -4.537784    0.918777
     45          8           0        4.033826   -5.260339   -1.296529
     46          6           0        3.702253   -6.581043   -0.838925
     47          6           0       -2.275855   -5.171305    0.335999
     48          6           0       -3.335059   -4.153096    0.649145
     49          6           0       -4.161059   -4.157028    1.642341
     50          6           0       -4.247014   -5.095485    2.892406
     51          6           0       -5.141099   -2.961495    1.678823
     52          6           0       -4.533002   -1.618557    2.104919
     53          6           0       -5.063098   -1.140498    3.452549
     54          6           0       -6.347343   -0.221877    3.181954
     55          6           0       -6.045921    1.199045    3.780297
     56          6           0       -7.663661   -0.905785    3.733642
     57          6           0       -8.652249   -1.005634    2.535786
     58          6           0       -9.698846    0.217450    2.560472
     59          6           0       -9.462164    1.356213    1.577855
     60          6           0       -9.628513    2.763245    2.215419
     61          6           0      -10.416627    1.123885    0.417877
     62          6           0       -9.660955    0.525807   -0.848730
     63          6           0       -9.885710    1.561744   -2.026775
     64          6           0      -10.966157    1.194326   -3.025063
     65          6           0      -10.493738    1.522534   -4.488308
     66          6           0      -12.382413    1.833970   -2.637109
     67          1           0        0.693795    0.981464   -3.835306
     68          1           0        3.222927    5.648292    0.046102
     69          1           0        7.557017    1.490512    2.321675
     70          1           0        2.885540   -3.213162   -3.023935
     71          1           0        0.625720   -1.511842   -3.440076
     72          1           0        1.639975   -1.599199   -5.560856
     73          1           0        3.299257   -1.784469   -4.971904
     74          1           0        2.495353   -0.197715   -5.118244
     75          1           0        0.838390   -2.036903   -1.040292
     76          1           0        2.123317   -3.105346   -0.520551
     77          1           0        1.315113   -4.943236   -2.353744
     78          1           0       -0.116499   -3.997669   -2.423367
     79          1           0       -1.401748    3.505274   -2.945338
     80          1           0       -0.336484    3.035525   -4.360973
     81          1           0       -0.506221    4.645751   -3.895017
     82          1           0        1.357030    6.267928    0.605930
     83          1           0        0.153602    7.426414    0.109621
     84          1           0        1.818662    7.567627   -0.542343
     85          1           0        4.384484    5.082769    2.754667
     86          1           0        7.108306    4.057590    2.256063
     87          1           0        5.787061    6.129800    0.282578
     88          1           0        6.818635    6.152184    1.746691
     89          1           0        5.311763    7.131648    1.674271
     90          1           0        5.232610    2.676594    4.117452
     91          1           0        5.605053    4.339783    4.448568
     92          1           0        7.637504    3.841862    5.291268
     93          1           0        8.078913    2.986047    3.826580
     94          1           0        7.089216    2.162216    5.106846
     95          1           0        8.943025   -0.179838    2.418329
     96          1           0        9.573365   -1.422045    1.382259
     97          1           0        8.440907   -1.801611    2.607045
     98          1           0        5.616197   -3.723978   -1.884653
     99          1           0        2.633700   -6.746069   -0.980259
    100          1           0        3.972828   -6.692976    0.210561
    101          1           0        4.314399   -7.235819   -1.458987
    102          1           0       -1.759009   -5.441058    1.256023
    103          1           0       -2.752243   -6.122174    0.095709
    104          1           0       -3.344582   -3.209920    0.103458
    105          1           0       -3.987075   -4.438566    3.722021
    106          1           0       -3.541246   -5.915259    2.754120
    107          1           0       -5.219453   -5.458952    3.222062
    108          1           0       -5.945848   -3.254024    2.353136
    109          1           0       -5.533976   -2.716533    0.691486
    110          1           0       -4.779793   -0.875893    1.347250
    111          1           0       -3.445031   -1.599780    2.150147
    112          1           0       -4.271685   -0.474201    3.794635
    113          1           0       -5.203596   -1.865906    4.253973
    114          1           0       -6.457728    0.037112    2.129230
    115          1           0       -5.832145    1.078874    4.842111
    116          1           0       -6.983443    1.727028    3.605395
    117          1           0       -5.195792    1.602395    3.230854
    118          1           0       -8.034865   -0.240788    4.513868
    119          1           0       -7.395942   -1.906094    4.073600
    120          1           0       -9.302689   -1.875422    2.625624
    121          1           0       -8.296727   -1.077664    1.508397
    122          1           0       -9.793731    0.591256    3.579982
    123          1           0      -10.650521   -0.270620    2.352744
    124          1           0       -8.439162    1.297069    1.207452
    125          1           0       -9.570326    2.736606    3.303038
    126          1           0      -10.612869    3.178190    1.999044
    127          1           0       -8.798420    3.421616    1.959262
    128          1           0      -10.797175    2.106523    0.138171
    129          1           0      -11.303410    0.535263    0.652908
    130          1           0      -10.146200   -0.414197   -1.106584
    131          1           0       -8.611214    0.358917   -0.606385
    132          1           0       -8.899214    1.688142   -2.473679
    133          1           0      -10.125293    2.579382   -1.716941
    134          1           0      -11.158583    0.121904   -2.972408
    135          1           0      -10.381645    0.579028   -5.022314
    136          1           0       -9.464101    1.877181   -4.459021
    137          1           0      -11.039380    2.319252   -4.994381
    138          1           0      -12.841326    2.446534   -3.413277
    139          1           0      -12.197902    2.526857   -1.815359
    140          1           0      -13.102180    1.109634   -2.254493
 ---------------------------------------------------------------------

 SCF Done:  E(RPBE1PBE) =  -3005.30501117     A.U. after   16 cycles

 Excitation energies and oscillator strengths:

 Excited State   1:      Singlet-A      1.8107 eV  684.73 nm  f=0.3469  <S**2>=0.000
     245 -> 248       -0.17041
     246 -> 247        0.69039
     246 <- 247       -0.11044
 This state for optimization and/or second-order correction.
 Total Energy, E(TD-HF/TD-DFT) =  -3005.23846956
 Copying the excited state density for this state as the 1-particle RhoCI density.

 Excited State   2:      Singlet-A      2.1124 eV  586.93 nm  f=0.1418  <S**2>=0.000
     245 -> 247        0.65993
     246 -> 248        0.22700

 Excited State   3:      Singlet-A      2.6338 eV  470.74 nm  f=0.0003  <S**2>=0.000
     244 -> 247        0.68252
     244 -> 249        0.11297

 Excited State   4:      Singlet-A      2.6547 eV  467.04 nm  f=0.0004  <S**2>=0.000
     241 -> 247        0.59993
     241 -> 249       -0.13413
     242 -> 247        0.31660

 Excited State   5:      Singlet-A      2.7939 eV  443.76 nm  f=0.0056  <S**2>=0.000
     241 -> 247       -0.31107
     242 -> 247        0.62180

 The electronic state is 1-A.
 Alpha  occ. eigenvalues --  -46.93585 -19.26130 -19.25830 -19.19806 -19.19355
 Alpha  occ. eigenvalues --  -19.18053 -19.17774 -14.42422 -14.41880 -14.39526
 Alpha  occ. eigenvalues --  -14.39162 -10.36359 -10.36207 -10.30968 -10.30961
 Alpha  occ. eigenvalues --  -10.29693 -10.29578 -10.29503 -10.29185 -10.28832
 Alpha  occ. eigenvalues --  -10.28604 -10.28213 -10.28148 -10.27590 -10.27017
 Alpha  occ. eigenvalues --  -10.26967 -10.26782 -10.26453 -10.26356 -10.26301
 Alpha  occ. eigenvalues --  -10.26285 -10.26002 -10.25679 -10.25591 -10.25570
 Alpha  occ. eigenvalues --  -10.25244 -10.25209 -10.25126 -10.25094 -10.24813
 Alpha  occ. eigenvalues --  -10.24149 -10.24099 -10.23948 -10.23785 -10.23750
 Alpha  occ. eigenvalues --  -10.23541 -10.23233 -10.23218 -10.23135 -10.23113
 Alpha  occ. eigenvalues --  -10.22699 -10.22623 -10.22597 -10.22567 -10.22514
 Alpha  occ. eigenvalues --  -10.22430 -10.22092 -10.22062 -10.22032 -10.21947
 Alpha  occ. eigenvalues --  -10.21877 -10.21781 -10.21665 -10.21604 -10.21583
 Alpha  occ. eigenvalues --  -10.21571  -3.15501  -1.88332  -1.87880  -1.87714
 Alpha  occ. eigenvalues --   -1.11130  -1.10731  -1.05383  -1.02755  -1.01944
 Alpha  occ. eigenvalues --   -1.00635  -1.00333  -0.99851  -0.98209  -0.95789
 Alpha  occ. eigenvalues --   -0.86107  -0.84565  -0.83903  -0.83682  -0.83536
 Alpha  occ. eigenvalues --   -0.83092  -0.82226  -0.82123  -0.81817  -0.81074
 Alpha  occ. eigenvalues --   -0.80032  -0.79446  -0.78411  -0.77920  -0.77537
 Alpha  occ. eigenvalues --   -0.76458  -0.75749  -0.75247  -0.74970  -0.74428
 Alpha  occ. eigenvalues --   -0.73721  -0.72895  -0.72220  -0.71342  -0.70416
 Alpha  occ. eigenvalues --   -0.69990  -0.69956  -0.69426  -0.68792  -0.68046
 Alpha  occ. eigenvalues --   -0.67539  -0.67010  -0.66380  -0.65208  -0.63541
 Alpha  occ. eigenvalues --   -0.63204  -0.62402  -0.61800  -0.60752  -0.60495
 Alpha  occ. eigenvalues --   -0.60032  -0.59529  -0.59435  -0.58832  -0.58608
 Alpha  occ. eigenvalues --   -0.57786  -0.57431  -0.56876  -0.56824  -0.54838
 Alpha  occ. eigenvalues --   -0.54468  -0.54048  -0.53771  -0.52987  -0.52661
 Alpha  occ. eigenvalues --   -0.51958  -0.51287  -0.50574  -0.50205  -0.49877
 Alpha  occ. eigenvalues --   -0.49657  -0.49513  -0.49098  -0.48711  -0.48232
 Alpha  occ. eigenvalues --   -0.47968  -0.47738  -0.47316  -0.47157  -0.46934
 Alpha  occ. eigenvalues --   -0.46611  -0.46533  -0.46427  -0.46246  -0.45929
 Alpha  occ. eigenvalues --   -0.45844  -0.45814  -0.45666  -0.45647  -0.45062
 Alpha  occ. eigenvalues --   -0.44878  -0.44417  -0.44287  -0.43934  -0.43828
 Alpha  occ. eigenvalues --   -0.43674  -0.43443  -0.43243  -0.43207  -0.43178
 Alpha  occ. eigenvalues --   -0.43138  -0.42834  -0.42497  -0.42396  -0.42147
 Alpha  occ. eigenvalues --   -0.42096  -0.41867  -0.41737  -0.41543  -0.41349
 Alpha  occ. eigenvalues --   -0.41298  -0.41096  -0.40987  -0.40702  -0.40478
 Alpha  occ. eigenvalues --   -0.40372  -0.40281  -0.40088  -0.40064  -0.39832
 Alpha  occ. eigenvalues --   -0.39776  -0.39231  -0.39087  -0.38892  -0.38581
 Alpha  occ. eigenvalues --   -0.38483  -0.38244  -0.38147  -0.38101  -0.37947
 Alpha  occ. eigenvalues --   -0.37762  -0.37559  -0.37492  -0.37284  -0.37065
 Alpha  occ. eigenvalues --   -0.36713  -0.36471  -0.36357  -0.36318  -0.36180
 Alpha  occ. eigenvalues --   -0.35868  -0.35467  -0.35141  -0.34896  -0.34686
 Alpha  occ. eigenvalues --   -0.34560  -0.34389  -0.34169  -0.34133  -0.34044
 Alpha  occ. eigenvalues --   -0.33443  -0.33217  -0.32946  -0.32773  -0.32555
 Alpha  occ. eigenvalues --   -0.32037  -0.31777  -0.31652  -0.31593  -0.30623
 Alpha  occ. eigenvalues --   -0.30478  -0.29839  -0.29692  -0.29146  -0.28983
 Alpha  occ. eigenvalues --   -0.28411  -0.28187  -0.27503  -0.26868  -0.25866
 Alpha  occ. eigenvalues --   -0.25133  -0.25013  -0.24722  -0.24562  -0.21139
 Alpha  occ. eigenvalues --   -0.19325
 Alpha virt. eigenvalues --   -0.11921  -0.05786  -0.03893  -0.01977  -0.01238
 Alpha virt. eigenvalues --   -0.00519  -0.00324   0.01373   0.02379   0.02871
 Alpha virt. eigenvalues --    0.04082   0.04416   0.05026   0.05330   0.05728

 Mulliken charges:
               1
     1  Mg   0.962717
     2  C    0.018971
     3  C   -0.047506
     4  C   -0.074323
     5  C   -0.043883
     6  N   -0.403148
     7  C    0.002735
     8  C   -0.104331
     9  C   -0.121198
    10  C    0.014621
    11  C    0.033390
    12  C    0.009503
    13  C   -0.005869
    14  C    0.244695
    15  O   -0.270165
    16  O   -0.371303
    17  N   -0.545878
    18  C    0.212068
    19  C   -0.171677
    20  C   -0.074094
    21  C    0.201333
    22  C    0.070503
    23  C    0.026661
    24  O   -0.238191
    25  C   -0.025633
    26  N   -0.312310
    27  C    0.018043
    28  C   -0.049648
    29  C   -0.190716
    30  C    0.108159
    31  C   -0.005414
    32  C   -0.035860
    33  C   -0.059367
    34  N   -0.407688
    35  C    0.052436
    36  C   -0.117314
    37  C   -0.030556
    38  C    0.094961
    39  C    0.041018
    40  C    0.131258
    41  O   -0.238818
    42  C   -0.091395
    43  C    0.297458
    44  O   -0.288079
    45  O   -0.353211
    46  C    0.112179
    47  C    0.252426
    48  C   -0.140124
    49  C   -0.194278
    50  C    0.012755
    51  C    0.002501
    52  C   -0.044996
    53  C   -0.009070
    54  C   -0.245585
    55  C   -0.033074
    56  C    0.052577
    57  C   -0.070007
    58  C   -0.009720
    59  C   -0.225998
    60  C   -0.005535
    61  C    0.001533
    62  C   -0.046068
    63  C   -0.032713
    64  C   -0.236180
    65  C   -0.007795
    66  C   -0.019794
    67  H    0.010733
    68  H    0.009967
    69  H    0.004548
    70  H    0.043734
    71  H    0.048610
    72  H    0.040510
    73  H    0.057144
    74  H    0.046856
    75  H    0.054980
    76  H    0.084496
    77  H    0.065703
    78  H    0.044193
    79  H    0.065387
    80  H    0.033556
    81  H    0.054324
    82  H    0.042798
    83  H    0.065725
    84  H    0.064171
    85  H    0.053609
    86  H    0.046831
    87  H    0.050644
    88  H    0.050133
    89  H    0.054504
    90  H    0.047242
    91  H    0.032690
    92  H    0.045004
    93  H    0.043726
    94  H    0.050212
    95  H    0.030437
    96  H    0.058314
    97  H    0.067818
    98  H    0.072321
    99  H    0.060778
   100  H    0.079747
   101  H    0.052949
   102  H    0.067932
   103  H    0.053929
   104  H    0.029548
   105  H    0.051658
   106  H    0.041099
   107  H    0.047696
   108  H    0.026049
   109  H    0.037418
   110  H    0.020991
   111  H    0.030798
   112  H    0.012542
   113  H    0.030634
   114  H    0.037239
   115  H    0.040050
   116  H    0.040245
   117  H    0.044620
   118  H    0.031391
   119  H    0.029906
   120  H    0.017349
   121  H    0.033992
   122  H    0.010448
   123  H    0.017919
   124  H    0.035402
   125  H    0.022620
   126  H    0.037060
   127  H    0.038234
   128  H    0.022157
   129  H    0.028329
   130  H    0.032066
   131  H    0.036913
   132  H    0.021695
   133  H    0.030146
   134  H    0.035731
   135  H    0.038570
   136  H    0.019741
   137  H    0.041270
   138  H    0.034475
   139  H    0.021847
   140  H    0.039907
 Sum of Mulliken charges =  -0.00000

 Dipole moment (field-independent basis, Debye):
    X=             -0.0632    Y=              2.9680    Z=             -0.9342  Tot=              3.1122
 Quadrupole moment (field-independent basis, Debye-Ang):
   XX=           -395.9972   YY=           -416.4177   ZZ=           -385.2700
   XY=             57.1951   XZ=             -4.0768   YZ=             31.0051

 Normal termination of Gaussian 16 at Fri Apr 29 00:36:48 2022.
