 Gaussian 16, Revision A.03,
 Gaussian 16:  ES64L-G16RevA.03 25-Dec-2016

 --------------------------------
 #p wB97XD/Def2SVP td=(nstates=5)
 --------------------------------

 -----------------------------------------------------
 step_1801_chromophore_20 TDDFT with wB97XD functional
 -----------------------------------------------------
 Symbolic Z-matrix:
 Charge =  0 Multiplicity = 1

                         Standard orientation:
 ---------------------------------------------------------------------
 Center     Atomic      Atomic             Coordinates (Angstroms)
 Number     Number       Type             X           Y           Z
 ---------------------------------------------------------------------
      1         12           0        4.140282    1.474193   -0.938009
      2          6           0        4.662010   -1.940891   -1.142927
      3          6           0        1.428781    1.182620   -3.052339
      4          6           0        3.267233    4.557315    0.030650
      5          6           0        6.752192    1.538891    1.584759
      6          7           0        3.176087   -0.200672   -1.869720
      7          6           0        3.469256   -1.523293   -1.763902
      8          6           0        2.388461   -2.408366   -2.480964
      9          6           0        1.703778   -1.346953   -3.444929
     10          6           0        2.081554   -0.035746   -2.712013
     11          6           0        2.365033   -1.240103   -4.830437
     12          6           0        1.428408   -2.904314   -1.335286
     13          6           0        0.702970   -4.266224   -1.756366
     14          6           0       -0.088312   -4.941192   -0.677576
     15          8           0        0.389382   -5.568058    0.265765
     16          8           0       -1.421886   -4.604691   -0.740200
     17          7           0        2.563134    2.727147   -1.417677
     18          6           0        1.603404    2.452664   -2.413764
     19          6           0        0.749313    3.575644   -2.529682
     20          6           0        1.201864    4.594578   -1.586962
     21          6           0        2.361654    4.011652   -0.872810
     22          6           0       -0.453413    3.645519   -3.465036
     23          6           0        0.694274    5.995507   -1.367182
     24          8           0       -0.244777    6.423839   -1.985270
     25          6           0        1.031350    6.878977   -0.235452
     26          7           0        4.737643    2.775300    0.820597
     27          6           0        4.316822    4.040579    0.838240
     28          6           0        5.041015    4.867741    1.911253
     29          6           0        6.048407    3.859156    2.416498
     30          6           0        5.798736    2.589671    1.576021
     31          6           0        5.796607    6.204559    1.369429
     32          6           0        5.972004    3.454331    3.927864
     33          6           0        7.296481    3.092466    4.577702
     34          7           0        5.650677    0.133013   -0.128718
     35          6           0        6.653991    0.278463    0.854843
     36          6           0        7.501068   -0.869417    0.913859
     37          6           0        6.706582   -1.814735    0.242612
     38          6           0        5.598003   -1.116401   -0.360380
     39          6           0        8.653918   -1.057373    1.839918
     40          6           0        6.560150   -3.186512   -0.115453
     41          8           0        7.240661   -4.192053    0.142591
     42          6           0        5.266776   -3.335053   -0.928080
     43          6           0        4.344659   -4.373553   -0.322992
     44          8           0        4.146026   -4.537784    0.918777
     45          8           0        4.033826   -5.260339   -1.296529
     46          6           0        3.702253   -6.581043   -0.838925
     47          6           0       -2.275855   -5.171305    0.335999
     48          6           0       -3.335059   -4.153096    0.649145
     49          6           0       -4.161059   -4.157028    1.642341
     50          6           0       -4.247014   -5.095485    2.892406
     51          6           0       -5.141099   -2.961495    1.678823
     52          6           0       -4.533002   -1.618557    2.104919
     53          6           0       -5.063098   -1.140498    3.452549
     54          6           0       -6.347343   -0.221877    3.181954
     55          6           0       -6.045921    1.199045    3.780297
     56          6           0       -7.663661   -0.905785    3.733642
     57          6           0       -8.652249   -1.005634    2.535786
     58          6           0       -9.698846    0.217450    2.560472
     59          6           0       -9.462164    1.356213    1.577855
     60          6           0       -9.628513    2.763245    2.215419
     61          6           0      -10.416627    1.123885    0.417877
     62          6           0       -9.660955    0.525807   -0.848730
     63          6           0       -9.885710    1.561744   -2.026775
     64          6           0      -10.966157    1.194326   -3.025063
     65          6           0      -10.493738    1.522534   -4.488308
     66          6           0      -12.382413    1.833970   -2.637109
     67          1           0        0.693795    0.981464   -3.835306
     68          1           0        3.222927    5.648292    0.046102
     69          1           0        7.557017    1.490512    2.321675
     70          1           0        2.885540   -3.213162   -3.023935
     71          1           0        0.625720   -1.511842   -3.440076
     72          1           0        1.639975   -1.599199   -5.560856
     73          1           0        3.299257   -1.784469   -4.971904
     74          1           0        2.495353   -0.197715   -5.118244
     75          1           0        0.838390   -2.036903   -1.040292
     76          1           0        2.123317   -3.105346   -0.520551
     77          1           0        1.315113   -4.943236   -2.353744
     78          1           0       -0.116499   -3.997669   -2.423367
     79          1           0       -1.401748    3.505274   -2.945338
     80          1           0       -0.336484    3.035525   -4.360973
     81          1           0       -0.506221    4.645751   -3.895017
     82          1           0        1.357030    6.267928    0.605930
     83          1           0        0.153602    7.426414    0.109621
     84          1           0        1.818662    7.567627   -0.542343
     85          1           0        4.384484    5.082769    2.754667
     86          1           0        7.108306    4.057590    2.256063
     87          1           0        5.787061    6.129800    0.282578
     88          1           0        6.818635    6.152184    1.746691
     89          1           0        5.311763    7.131648    1.674271
     90          1           0        5.232610    2.676594    4.117452
     91          1           0        5.605053    4.339783    4.448568
     92          1           0        7.637504    3.841862    5.291268
     93          1           0        8.078913    2.986047    3.826580
     94          1           0        7.089216    2.162216    5.106846
     95          1           0        8.943025   -0.179838    2.418329
     96          1           0        9.573365   -1.422045    1.382259
     97          1           0        8.440907   -1.801611    2.607045
     98          1           0        5.616197   -3.723978   -1.884653
     99          1           0        2.633700   -6.746069   -0.980259
    100          1           0        3.972828   -6.692976    0.210561
    101          1           0        4.314399   -7.235819   -1.458987
    102          1           0       -1.759009   -5.441058    1.256023
    103          1           0       -2.752243   -6.122174    0.095709
    104          1           0       -3.344582   -3.209920    0.103458
    105          1           0       -3.987075   -4.438566    3.722021
    106          1           0       -3.541246   -5.915259    2.754120
    107          1           0       -5.219453   -5.458952    3.222062
    108          1           0       -5.945848   -3.254024    2.353136
    109          1           0       -5.533976   -2.716533    0.691486
    110          1           0       -4.779793   -0.875893    1.347250
    111          1           0       -3.445031   -1.599780    2.150147
    112          1           0       -4.271685   -0.474201    3.794635
    113          1           0       -5.203596   -1.865906    4.253973
    114          1           0       -6.457728    0.037112    2.129230
    115          1           0       -5.832145    1.078874    4.842111
    116          1           0       -6.983443    1.727028    3.605395
    117          1           0       -5.195792    1.602395    3.230854
    118          1           0       -8.034865   -0.240788    4.513868
    119          1           0       -7.395942   -1.906094    4.073600
    120          1           0       -9.302689   -1.875422    2.625624
    121          1           0       -8.296727   -1.077664    1.508397
    122          1           0       -9.793731    0.591256    3.579982
    123          1           0      -10.650521   -0.270620    2.352744
    124          1           0       -8.439162    1.297069    1.207452
    125          1           0       -9.570326    2.736606    3.303038
    126          1           0      -10.612869    3.178190    1.999044
    127          1           0       -8.798420    3.421616    1.959262
    128          1           0      -10.797175    2.106523    0.138171
    129          1           0      -11.303410    0.535263    0.652908
    130          1           0      -10.146200   -0.414197   -1.106584
    131          1           0       -8.611214    0.358917   -0.606385
    132          1           0       -8.899214    1.688142   -2.473679
    133          1           0      -10.125293    2.579382   -1.716941
    134          1           0      -11.158583    0.121904   -2.972408
    135          1           0      -10.381645    0.579028   -5.022314
    136          1           0       -9.464101    1.877181   -4.459021
    137          1           0      -11.039380    2.319252   -4.994381
    138          1           0      -12.841326    2.446534   -3.413277
    139          1           0      -12.197902    2.526857   -1.815359
    140          1           0      -13.102180    1.109634   -2.254493
 ---------------------------------------------------------------------

 SCF Done:  E(RwB97XD) =  -3007.81624719     A.U. after   17 cycles

 Excitation energies and oscillator strengths:

 Excited State   1:      Singlet-A      1.5866 eV  781.45 nm  f=0.3731  <S**2>=0.000
     245 -> 248       -0.18369
     246 -> 247        0.68238
     245 <- 248       -0.11681
 This state for optimization and/or second-order correction.
 Total Energy, E(TD-HF/TD-DFT) =  -3007.75794079
 Copying the excited state density for this state as the 1-particle RhoCI density.

 Excited State   2:      Singlet-A      2.0608 eV  601.64 nm  f=0.1364  <S**2>=0.000
     245 -> 247        0.64992
     246 -> 248        0.25897

 Excited State   3:      Singlet-A      3.1292 eV  396.22 nm  f=0.0023  <S**2>=0.000
     242 -> 247       -0.14666
     243 -> 247        0.66356
     243 -> 249        0.10122

 Excited State   4:      Singlet-A      3.2320 eV  383.61 nm  f=0.0018  <S**2>=0.000
     240 -> 247        0.22912
     240 -> 249       -0.14090
     241 -> 247        0.51609
     241 -> 249       -0.22989
     241 -> 250       -0.10105
     242 -> 247       -0.17612
     246 -> 248        0.11122

 Excited State   5:      Singlet-A      3.3008 eV  375.62 nm  f=0.0018  <S**2>=0.000
     241 -> 247        0.15919
     242 -> 247        0.53360
     242 -> 248       -0.15865
     242 -> 249        0.24724
     242 -> 251        0.16979

 The electronic state is 1-A.
 Alpha  occ. eigenvalues --  -46.96540 -19.30662 -19.30367 -19.24449 -19.24000
 Alpha  occ. eigenvalues --  -19.22793 -19.22657 -14.47375 -14.47114 -14.44493
 Alpha  occ. eigenvalues --  -14.44117 -10.43119 -10.42999 -10.37839 -10.37793
 Alpha  occ. eigenvalues --  -10.35953 -10.35907 -10.35838 -10.35661 -10.35044
 Alpha  occ. eigenvalues --  -10.35002 -10.34596 -10.34422 -10.34072 -10.33315
 Alpha  occ. eigenvalues --  -10.33190 -10.33015 -10.32837 -10.32810 -10.32706
 Alpha  occ. eigenvalues --  -10.32459 -10.32335 -10.32132 -10.32083 -10.31869
 Alpha  occ. eigenvalues --  -10.31664 -10.31659 -10.31608 -10.31319 -10.31206
 Alpha  occ. eigenvalues --  -10.30516 -10.30399 -10.30373 -10.30225 -10.30074
 Alpha  occ. eigenvalues --  -10.29809 -10.29648 -10.29624 -10.29463 -10.29365
 Alpha  occ. eigenvalues --  -10.29219 -10.29042 -10.28983 -10.28861 -10.28846
 Alpha  occ. eigenvalues --  -10.28799 -10.28448 -10.28419 -10.28398 -10.28292
 Alpha  occ. eigenvalues --  -10.28280 -10.28224 -10.28078 -10.28027 -10.27933
 Alpha  occ. eigenvalues --  -10.27915  -3.22345  -1.95919  -1.95467  -1.95298
 Alpha  occ. eigenvalues --   -1.18487  -1.18088  -1.12909  -1.10190  -1.09264
 Alpha  occ. eigenvalues --   -1.08028  -1.07687  -1.07158  -1.05576  -1.03246
 Alpha  occ. eigenvalues --   -0.93699  -0.92225  -0.91494  -0.91329  -0.91155
 Alpha  occ. eigenvalues --   -0.90725  -0.89870  -0.89744  -0.89425  -0.88728
 Alpha  occ. eigenvalues --   -0.87683  -0.87152  -0.86068  -0.85537  -0.85182
 Alpha  occ. eigenvalues --   -0.84121  -0.83449  -0.82937  -0.82588  -0.82058
 Alpha  occ. eigenvalues --   -0.81396  -0.80536  -0.79839  -0.78998  -0.78033
 Alpha  occ. eigenvalues --   -0.77637  -0.77583  -0.77129  -0.76475  -0.75598
 Alpha  occ. eigenvalues --   -0.75202  -0.74607  -0.73938  -0.72813  -0.71100
 Alpha  occ. eigenvalues --   -0.70733  -0.70046  -0.69356  -0.68263  -0.68135
 Alpha  occ. eigenvalues --   -0.67495  -0.67147  -0.66947  -0.66249  -0.66071
 Alpha  occ. eigenvalues --   -0.65492  -0.65075  -0.64515  -0.64228  -0.62287
 Alpha  occ. eigenvalues --   -0.61915  -0.61412  -0.61160  -0.60426  -0.60088
 Alpha  occ. eigenvalues --   -0.59439  -0.58680  -0.58013  -0.57656  -0.57302
 Alpha  occ. eigenvalues --   -0.57110  -0.56929  -0.56480  -0.56085  -0.55618
 Alpha  occ. eigenvalues --   -0.55242  -0.55119  -0.54667  -0.54531  -0.54320
 Alpha  occ. eigenvalues --   -0.54175  -0.53918  -0.53761  -0.53607  -0.53282
 Alpha  occ. eigenvalues --   -0.53233  -0.53192  -0.52991  -0.52938  -0.52363
 Alpha  occ. eigenvalues --   -0.52246  -0.51810  -0.51680  -0.51264  -0.51111
 Alpha  occ. eigenvalues --   -0.51025  -0.50724  -0.50551  -0.50518  -0.50465
 Alpha  occ. eigenvalues --   -0.50400  -0.50055  -0.49773  -0.49656  -0.49427
 Alpha  occ. eigenvalues --   -0.49320  -0.49131  -0.48911  -0.48788  -0.48623
 Alpha  occ. eigenvalues --   -0.48558  -0.48318  -0.48224  -0.47907  -0.47721
 Alpha  occ. eigenvalues --   -0.47580  -0.47561  -0.47324  -0.47227  -0.46992
 Alpha  occ. eigenvalues --   -0.46954  -0.46365  -0.46246  -0.46025  -0.45739
 Alpha  occ. eigenvalues --   -0.45589  -0.45398  -0.45303  -0.45227  -0.45079
 Alpha  occ. eigenvalues --   -0.44853  -0.44702  -0.44623  -0.44418  -0.44133
 Alpha  occ. eigenvalues --   -0.43792  -0.43631  -0.43500  -0.43493  -0.43259
 Alpha  occ. eigenvalues --   -0.42939  -0.42563  -0.42074  -0.41818  -0.41650
 Alpha  occ. eigenvalues --   -0.41622  -0.41464  -0.41232  -0.41117  -0.41070
 Alpha  occ. eigenvalues --   -0.40468  -0.40236  -0.40020  -0.39717  -0.39587
 Alpha  occ. eigenvalues --   -0.39043  -0.38809  -0.38656  -0.38504  -0.37653
 Alpha  occ. eigenvalues --   -0.37390  -0.36663  -0.36639  -0.35982  -0.35900
 Alpha  occ. eigenvalues --   -0.35469  -0.35087  -0.34407  -0.33453  -0.32421
 Alpha  occ. eigenvalues --   -0.32175  -0.31929  -0.31538  -0.31505  -0.26103
 Alpha  occ. eigenvalues --   -0.23473
 Alpha virt. eigenvalues --   -0.07918  -0.00386   0.02351   0.04269   0.05040
 Alpha virt. eigenvalues --    0.06309   0.06486   0.08155   0.09109   0.09434
 Alpha virt. eigenvalues --    0.10443   0.11260   0.11621   0.11969   0.12470

 Mulliken charges:
               1
     1  Mg   0.956234
     2  C    0.007586
     3  C   -0.070840
     4  C   -0.078441
     5  C   -0.049612
     6  N   -0.375974
     7  C   -0.019205
     8  C   -0.083154
     9  C   -0.097264
    10  C    0.010567
    11  C    0.039460
    12  C    0.023462
    13  C    0.009576
    14  C    0.234456
    15  O   -0.267124
    16  O   -0.370454
    17  N   -0.518031
    18  C    0.207497
    19  C   -0.164529
    20  C   -0.061332
    21  C    0.189520
    22  C    0.081278
    23  C    0.017719
    24  O   -0.233264
    25  C   -0.010359
    26  N   -0.273441
    27  C    0.003021
    28  C   -0.027769
    29  C   -0.157425
    30  C    0.088949
    31  C    0.007614
    32  C   -0.024962
    33  C   -0.043905
    34  N   -0.371940
    35  C    0.045352
    36  C   -0.118587
    37  C   -0.022884
    38  C    0.075052
    39  C    0.051658
    40  C    0.113767
    41  O   -0.230017
    42  C   -0.051542
    43  C    0.271459
    44  O   -0.282217
    45  O   -0.350444
    46  C    0.129091
    47  C    0.263569
    48  C   -0.147744
    49  C   -0.183278
    50  C    0.029386
    51  C    0.023503
    52  C   -0.027847
    53  C    0.006362
    54  C   -0.220992
    55  C   -0.008220
    56  C    0.068748
    57  C   -0.047053
    58  C    0.002373
    59  C   -0.191170
    60  C    0.006227
    61  C    0.020525
    62  C   -0.030399
    63  C   -0.010952
    64  C   -0.212376
    65  C    0.005529
    66  C   -0.006486
    67  H    0.005047
    68  H   -0.001910
    69  H   -0.011360
    70  H    0.034022
    71  H    0.040757
    72  H    0.035316
    73  H    0.052667
    74  H    0.039306
    75  H    0.049116
    76  H    0.069639
    77  H    0.060591
    78  H    0.036776
    79  H    0.062111
    80  H    0.028911
    81  H    0.049714
    82  H    0.035550
    83  H    0.064670
    84  H    0.060914
    85  H    0.044567
    86  H    0.031588
    87  H    0.043498
    88  H    0.044509
    89  H    0.049597
    90  H    0.040061
    91  H    0.023124
    92  H    0.040652
    93  H    0.036530
    94  H    0.045022
    95  H    0.025863
    96  H    0.054358
    97  H    0.063376
    98  H    0.065356
    99  H    0.053719
   100  H    0.076299
   101  H    0.049457
   102  H    0.062440
   103  H    0.049415
   104  H    0.026043
   105  H    0.043824
   106  H    0.035773
   107  H    0.043411
   108  H    0.013011
   109  H    0.030041
   110  H    0.012574
   111  H    0.023063
   112  H    0.003423
   113  H    0.022561
   114  H    0.018118
   115  H    0.033256
   116  H    0.025671
   117  H    0.038117
   118  H    0.022032
   119  H    0.021668
   120  H    0.010520
   121  H    0.020107
   122  H   -0.000390
   123  H    0.008639
   124  H    0.016440
   125  H    0.015969
   126  H    0.031918
   127  H    0.033534
   128  H    0.004381
   129  H    0.020509
   130  H    0.023617
   131  H    0.028528
   132  H    0.013082
   133  H    0.018560
   134  H    0.023933
   135  H    0.033245
   136  H    0.012308
   137  H    0.035995
   138  H    0.029179
   139  H    0.012855
   140  H    0.034913
 Sum of Mulliken charges =  -0.00000

 Dipole moment (field-independent basis, Debye):
    X=             -0.1172    Y=              3.1539    Z=             -1.0085  Tot=              3.3133
 Quadrupole moment (field-independent basis, Debye-Ang):
   XX=           -395.9858   YY=           -414.9293   ZZ=           -385.1135
   XY=             57.4280   XZ=             -4.4569   YZ=             30.8217

 Normal termination of Gaussian 16 at Fri Apr 29 01:04:47 2022.
