 Gaussian 16, Revision A.03,
 Gaussian 16:  ES64L-G16RevA.03 25-Dec-2016

 --------------------
 #p ZINDO=(nstates=5)
 --------------------

 ------------------------------
 step_1801_chromophore_20 ZINDO
 ------------------------------
 Symbolic Z-matrix:
 Charge =  0 Multiplicity = 1

                         Standard orientation:
 ---------------------------------------------------------------------
 Center     Atomic      Atomic             Coordinates (Angstroms)
 Number     Number       Type             X           Y           Z
 ---------------------------------------------------------------------
      1         12           0        4.140282    1.474193   -0.938009
      2          6           0        4.662010   -1.940891   -1.142927
      3          6           0        1.428781    1.182620   -3.052339
      4          6           0        3.267233    4.557315    0.030650
      5          6           0        6.752192    1.538891    1.584759
      6          7           0        3.176087   -0.200672   -1.869720
      7          6           0        3.469256   -1.523293   -1.763902
      8          6           0        2.388461   -2.408366   -2.480964
      9          6           0        1.703778   -1.346953   -3.444929
     10          6           0        2.081554   -0.035746   -2.712013
     11          6           0        2.365033   -1.240103   -4.830437
     12          6           0        1.428408   -2.904314   -1.335286
     13          6           0        0.702970   -4.266224   -1.756366
     14          6           0       -0.088312   -4.941192   -0.677576
     15          8           0        0.389382   -5.568058    0.265765
     16          8           0       -1.421886   -4.604691   -0.740200
     17          7           0        2.563134    2.727147   -1.417677
     18          6           0        1.603404    2.452664   -2.413764
     19          6           0        0.749313    3.575644   -2.529682
     20          6           0        1.201864    4.594578   -1.586962
     21          6           0        2.361654    4.011652   -0.872810
     22          6           0       -0.453413    3.645519   -3.465036
     23          6           0        0.694274    5.995507   -1.367182
     24          8           0       -0.244777    6.423839   -1.985270
     25          6           0        1.031350    6.878977   -0.235452
     26          7           0        4.737643    2.775300    0.820597
     27          6           0        4.316822    4.040579    0.838240
     28          6           0        5.041015    4.867741    1.911253
     29          6           0        6.048407    3.859156    2.416498
     30          6           0        5.798736    2.589671    1.576021
     31          6           0        5.796607    6.204559    1.369429
     32          6           0        5.972004    3.454331    3.927864
     33          6           0        7.296481    3.092466    4.577702
     34          7           0        5.650677    0.133013   -0.128718
     35          6           0        6.653991    0.278463    0.854843
     36          6           0        7.501068   -0.869417    0.913859
     37          6           0        6.706582   -1.814735    0.242612
     38          6           0        5.598003   -1.116401   -0.360380
     39          6           0        8.653918   -1.057373    1.839918
     40          6           0        6.560150   -3.186512   -0.115453
     41          8           0        7.240661   -4.192053    0.142591
     42          6           0        5.266776   -3.335053   -0.928080
     43          6           0        4.344659   -4.373553   -0.322992
     44          8           0        4.146026   -4.537784    0.918777
     45          8           0        4.033826   -5.260339   -1.296529
     46          6           0        3.702253   -6.581043   -0.838925
     47          6           0       -2.275855   -5.171305    0.335999
     48          6           0       -3.335059   -4.153096    0.649145
     49          6           0       -4.161059   -4.157028    1.642341
     50          6           0       -4.247014   -5.095485    2.892406
     51          6           0       -5.141099   -2.961495    1.678823
     52          6           0       -4.533002   -1.618557    2.104919
     53          6           0       -5.063098   -1.140498    3.452549
     54          6           0       -6.347343   -0.221877    3.181954
     55          6           0       -6.045921    1.199045    3.780297
     56          6           0       -7.663661   -0.905785    3.733642
     57          6           0       -8.652249   -1.005634    2.535786
     58          6           0       -9.698846    0.217450    2.560472
     59          6           0       -9.462164    1.356213    1.577855
     60          6           0       -9.628513    2.763245    2.215419
     61          6           0      -10.416627    1.123885    0.417877
     62          6           0       -9.660955    0.525807   -0.848730
     63          6           0       -9.885710    1.561744   -2.026775
     64          6           0      -10.966157    1.194326   -3.025063
     65          6           0      -10.493738    1.522534   -4.488308
     66          6           0      -12.382413    1.833970   -2.637109
     67          1           0        0.693795    0.981464   -3.835306
     68          1           0        3.222927    5.648292    0.046102
     69          1           0        7.557017    1.490512    2.321675
     70          1           0        2.885540   -3.213162   -3.023935
     71          1           0        0.625720   -1.511842   -3.440076
     72          1           0        1.639975   -1.599199   -5.560856
     73          1           0        3.299257   -1.784469   -4.971904
     74          1           0        2.495353   -0.197715   -5.118244
     75          1           0        0.838390   -2.036903   -1.040292
     76          1           0        2.123317   -3.105346   -0.520551
     77          1           0        1.315113   -4.943236   -2.353744
     78          1           0       -0.116499   -3.997669   -2.423367
     79          1           0       -1.401748    3.505274   -2.945338
     80          1           0       -0.336484    3.035525   -4.360973
     81          1           0       -0.506221    4.645751   -3.895017
     82          1           0        1.357030    6.267928    0.605930
     83          1           0        0.153602    7.426414    0.109621
     84          1           0        1.818662    7.567627   -0.542343
     85          1           0        4.384484    5.082769    2.754667
     86          1           0        7.108306    4.057590    2.256063
     87          1           0        5.787061    6.129800    0.282578
     88          1           0        6.818635    6.152184    1.746691
     89          1           0        5.311763    7.131648    1.674271
     90          1           0        5.232610    2.676594    4.117452
     91          1           0        5.605053    4.339783    4.448568
     92          1           0        7.637504    3.841862    5.291268
     93          1           0        8.078913    2.986047    3.826580
     94          1           0        7.089216    2.162216    5.106846
     95          1           0        8.943025   -0.179838    2.418329
     96          1           0        9.573365   -1.422045    1.382259
     97          1           0        8.440907   -1.801611    2.607045
     98          1           0        5.616197   -3.723978   -1.884653
     99          1           0        2.633700   -6.746069   -0.980259
    100          1           0        3.972828   -6.692976    0.210561
    101          1           0        4.314399   -7.235819   -1.458987
    102          1           0       -1.759009   -5.441058    1.256023
    103          1           0       -2.752243   -6.122174    0.095709
    104          1           0       -3.344582   -3.209920    0.103458
    105          1           0       -3.987075   -4.438566    3.722021
    106          1           0       -3.541246   -5.915259    2.754120
    107          1           0       -5.219453   -5.458952    3.222062
    108          1           0       -5.945848   -3.254024    2.353136
    109          1           0       -5.533976   -2.716533    0.691486
    110          1           0       -4.779793   -0.875893    1.347250
    111          1           0       -3.445031   -1.599780    2.150147
    112          1           0       -4.271685   -0.474201    3.794635
    113          1           0       -5.203596   -1.865906    4.253973
    114          1           0       -6.457728    0.037112    2.129230
    115          1           0       -5.832145    1.078874    4.842111
    116          1           0       -6.983443    1.727028    3.605395
    117          1           0       -5.195792    1.602395    3.230854
    118          1           0       -8.034865   -0.240788    4.513868
    119          1           0       -7.395942   -1.906094    4.073600
    120          1           0       -9.302689   -1.875422    2.625624
    121          1           0       -8.296727   -1.077664    1.508397
    122          1           0       -9.793731    0.591256    3.579982
    123          1           0      -10.650521   -0.270620    2.352744
    124          1           0       -8.439162    1.297069    1.207452
    125          1           0       -9.570326    2.736606    3.303038
    126          1           0      -10.612869    3.178190    1.999044
    127          1           0       -8.798420    3.421616    1.959262
    128          1           0      -10.797175    2.106523    0.138171
    129          1           0      -11.303410    0.535263    0.652908
    130          1           0      -10.146200   -0.414197   -1.106584
    131          1           0       -8.611214    0.358917   -0.606385
    132          1           0       -8.899214    1.688142   -2.473679
    133          1           0      -10.125293    2.579382   -1.716941
    134          1           0      -11.158583    0.121904   -2.972408
    135          1           0      -10.381645    0.579028   -5.022314
    136          1           0       -9.464101    1.877181   -4.459021
    137          1           0      -11.039380    2.319252   -4.994381
    138          1           0      -12.841326    2.446534   -3.413277
    139          1           0      -12.197902    2.526857   -1.815359
    140          1           0      -13.102180    1.109634   -2.254493
 ---------------------------------------------------------------------

 SCF Done:  E(RZINDO/S) =  -474.074953963     A.U. after   20 cycles

 Excitation energies and oscillator strengths:

 Excited State   1:      Singlet-A      1.1783 eV 1052.24 nm  f=0.6147  <S**2>=0.000
     175 ->178        -0.19128
     176 ->177         0.66060
 This state for optimization and/or second-order correction.
 Total Energy, E(CIS/TDA) =  -474.031652758
 Copying the excited state density for this state as the 1-particle RhoCI density.

 Excited State   2:      Singlet-A      1.8647 eV  664.90 nm  f=0.0698  <S**2>=0.000
     175 ->177         0.56699
     176 ->178         0.39413

 Excited State   3:      Singlet-A      2.7166 eV  456.39 nm  f=0.0015  <S**2>=0.000
     170 ->177         0.30282
     170 ->178        -0.21605
     170 ->179         0.25865
     170 ->180         0.10880
     170 ->181        -0.26520
     170 ->182        -0.12480
     170 ->183         0.18939
     170 ->185        -0.27063
     170 ->187         0.10093

 Excited State   4:      Singlet-A      2.8436 eV  436.02 nm  f=0.1065  <S**2>=0.000
     168 ->177         0.21378
     168 ->179        -0.21189
     169 ->177         0.32562
     169 ->179        -0.29714
     169 ->181        -0.12699
     169 ->183         0.14927
     169 ->185         0.12612
     169 ->187         0.11081
     169 ->198         0.10313
     175 ->177        -0.10812
     176 ->178         0.18427

 Excited State   5:      Singlet-A      2.9102 eV  426.04 nm  f=0.8710  <S**2>=0.000
     169 ->179         0.10446
     171 ->177        -0.13776
     175 ->177        -0.33399
     176 ->178         0.51294

 The electronic state is 1-A.
 Alpha  occ. eigenvalues --   -1.85271  -1.81962  -1.79007  -1.73527  -1.72048
 Alpha  occ. eigenvalues --   -1.70718  -1.65740  -1.62002  -1.60829  -1.58725
 Alpha  occ. eigenvalues --   -1.54342  -1.50037  -1.49011  -1.45634  -1.45342
 Alpha  occ. eigenvalues --   -1.42654  -1.42077  -1.39209  -1.38176  -1.36905
 Alpha  occ. eigenvalues --   -1.35802  -1.34451  -1.30864  -1.29601  -1.28020
 Alpha  occ. eigenvalues --   -1.27465  -1.26013  -1.22387  -1.21377  -1.18218
 Alpha  occ. eigenvalues --   -1.17696  -1.16449  -1.15507  -1.14122  -1.13013
 Alpha  occ. eigenvalues --   -1.11982  -1.09813  -1.08365  -1.05661  -1.04342
 Alpha  occ. eigenvalues --   -1.01467  -1.00772  -0.98307  -0.97886  -0.97323
 Alpha  occ. eigenvalues --   -0.96195  -0.94386  -0.94238  -0.93243  -0.92440
 Alpha  occ. eigenvalues --   -0.91291  -0.90236  -0.89910  -0.89064  -0.87416
 Alpha  occ. eigenvalues --   -0.86497  -0.85608  -0.82961  -0.82516  -0.80823
 Alpha  occ. eigenvalues --   -0.79309  -0.78230  -0.77471  -0.76364  -0.75427
 Alpha  occ. eigenvalues --   -0.74727  -0.74485  -0.74080  -0.73454  -0.72995
 Alpha  occ. eigenvalues --   -0.72202  -0.71624  -0.71589  -0.71144  -0.70439
 Alpha  occ. eigenvalues --   -0.70292  -0.69145  -0.68529  -0.68000  -0.67959
 Alpha  occ. eigenvalues --   -0.67045  -0.66564  -0.66099  -0.65574  -0.65322
 Alpha  occ. eigenvalues --   -0.65294  -0.64967  -0.64533  -0.63532  -0.63175
 Alpha  occ. eigenvalues --   -0.63031  -0.62755  -0.62268  -0.62168  -0.61996
 Alpha  occ. eigenvalues --   -0.61865  -0.61250  -0.60725  -0.60287  -0.60209
 Alpha  occ. eigenvalues --   -0.59812  -0.59405  -0.58881  -0.58633  -0.58454
 Alpha  occ. eigenvalues --   -0.57584  -0.57568  -0.57094  -0.56993  -0.56771
 Alpha  occ. eigenvalues --   -0.56286  -0.56062  -0.55829  -0.55093  -0.54852
 Alpha  occ. eigenvalues --   -0.54825  -0.54060  -0.53740  -0.53547  -0.53278
 Alpha  occ. eigenvalues --   -0.52997  -0.52649  -0.52331  -0.51917  -0.51855
 Alpha  occ. eigenvalues --   -0.51602  -0.51170  -0.50760  -0.50545  -0.50318
 Alpha  occ. eigenvalues --   -0.49763  -0.49686  -0.49594  -0.49448  -0.49355
 Alpha  occ. eigenvalues --   -0.48954  -0.48567  -0.48248  -0.47987  -0.47839
 Alpha  occ. eigenvalues --   -0.47666  -0.47248  -0.47208  -0.46621  -0.46533
 Alpha  occ. eigenvalues --   -0.46377  -0.46330  -0.46095  -0.45588  -0.45394
 Alpha  occ. eigenvalues --   -0.45034  -0.44858  -0.44784  -0.44549  -0.43809
 Alpha  occ. eigenvalues --   -0.43648  -0.42692  -0.42462  -0.41980  -0.41858
 Alpha  occ. eigenvalues --   -0.41341  -0.40308  -0.39261  -0.38702  -0.38318
 Alpha  occ. eigenvalues --   -0.37752  -0.37687  -0.34927  -0.34591  -0.34238
 Alpha  occ. eigenvalues --   -0.33046  -0.32454  -0.32304  -0.32235  -0.26724
 Alpha  occ. eigenvalues --   -0.22038
 Alpha virt. eigenvalues --   -0.09175  -0.02501  -0.00623   0.00759   0.01403
 Alpha virt. eigenvalues --    0.01669   0.01974   0.02683   0.04689   0.05828
 Alpha virt. eigenvalues --    0.05961   0.06890   0.07272   0.07631   0.07657

 Mulliken charges:
               1
     1  Mg   0.431147
     2  C   -0.087347
     3  C   -0.091148
     4  C   -0.063347
     5  C   -0.074304
     6  N   -0.297450
     7  C    0.138210
     8  C   -0.003848
     9  C    0.002986
    10  C    0.130683
    11  C   -0.045259
    12  C   -0.015886
    13  C    0.005222
    14  C    0.466963
    15  O   -0.512941
    16  O   -0.269349
    17  N   -0.346754
    18  C    0.113583
    19  C    0.029678
    20  C   -0.049206
    21  C    0.105569
    22  C   -0.041094
    23  C    0.324860
    24  O   -0.522742
    25  C   -0.020694
    26  N   -0.240272
    27  C    0.127281
    28  C    0.002847
    29  C   -0.004526
    30  C    0.127594
    31  C   -0.057473
    32  C   -0.030080
    33  C   -0.056771
    34  N   -0.309949
    35  C    0.081203
    36  C    0.051629
    37  C   -0.049052
    38  C    0.150450
    39  C   -0.033641
    40  C    0.334350
    41  O   -0.533783
    42  C    0.057451
    43  C    0.484341
    44  O   -0.523704
    45  O   -0.267040
    46  C    0.074172
    47  C    0.101563
    48  C   -0.075486
    49  C   -0.015602
    50  C   -0.047400
    51  C   -0.029044
    52  C   -0.026299
    53  C   -0.040780
    54  C   -0.034175
    55  C   -0.064402
    56  C   -0.031186
    57  C   -0.045083
    58  C   -0.043709
    59  C   -0.003875
    60  C   -0.061105
    61  C   -0.039558
    62  C   -0.046125
    63  C   -0.030976
    64  C   -0.008303
    65  C   -0.063108
    66  C   -0.065262
    67  H    0.032759
    68  H    0.020852
    69  H    0.036746
    70  H    0.034910
    71  H    0.036802
    72  H    0.012288
    73  H    0.030728
    74  H    0.026283
    75  H    0.044723
    76  H    0.039473
    77  H    0.052850
    78  H    0.018396
    79  H    0.041491
    80  H    0.021755
    81  H    0.030084
    82  H    0.018110
    83  H    0.040915
    84  H    0.041782
    85  H    0.039359
    86  H    0.030493
    87  H    0.026023
    88  H    0.026164
    89  H    0.026802
    90  H    0.027451
    91  H    0.008455
    92  H    0.020170
    93  H    0.022666
    94  H    0.022119
    95  H    0.017977
    96  H    0.035077
    97  H    0.036214
    98  H    0.047977
    99  H    0.042479
   100  H    0.061689
   101  H    0.031751
   102  H    0.059299
   103  H    0.045862
   104  H    0.035247
   105  H    0.028911
   106  H    0.026000
   107  H    0.030946
   108  H    0.017542
   109  H    0.020454
   110  H    0.016759
   111  H    0.016812
   112  H    0.005122
   113  H    0.031895
   114  H    0.025712
   115  H    0.021494
   116  H    0.018137
   117  H    0.023831
   118  H    0.032649
   119  H    0.024547
   120  H    0.005433
   121  H    0.030102
   122  H    0.015296
   123  H    0.012166
   124  H    0.023432
   125  H    0.010930
   126  H    0.022981
   127  H    0.019963
   128  H    0.012313
   129  H    0.023821
   130  H    0.020880
   131  H    0.028541
   132  H    0.007984
   133  H    0.022264
   134  H    0.017694
   135  H    0.020857
   136  H    0.011642
   137  H    0.028850
   138  H    0.021874
   139  H    0.014049
   140  H    0.021251
 Sum of Mulliken charges =  -0.00000

 Dipole moment (field-independent basis, Debye):
    X=              0.5432    Y=              4.3597    Z=             -1.8198  Tot=              4.7554
 N-N= 4.455286164069D+03 E-N= 0.000000000000D+00  KE=-9.584840574053D+03
 Leave Link  601 at Fri Apr 29 01:18:24 2022, MaxMem=  6710886400 cpu:               1.1 elap:               0.1
 (Enter /sw/apps/gaussian-16.0/g16/l9999.exe)
 1\1\GINC-BP1-COMPUTE156\SP\RZINDO CIS\STO-3G\C55H74Mg1N4O6\OF15641\29-
 Apr-2022\0\\#p ZINDO=(nstates=5)\\step_1801_chromophore_20 ZINDO\\0,1\
 Mg,0,6.417,55.56,42.13\C,0,5.905,52.138,42.061\C,0,9.332,55.156,40.328
 \C,0,6.315,58.855,41.548\C,0,3.133,55.838,43.656\N,0,7.387,53.852,41.2
 67\C,0,6.985,52.554,41.259\C,0,7.919,51.671,40.357\C,0,9.215,52.585,40
 .259\C,0,8.595,53.966,40.587\C,0,10.247,52.331,41.372\C,0,7.162,51.532
 ,38.983\C,0,7.621,50.205,38.217\C,0,6.835,49.859,36.989\O,0,5.7,49.387

 Normal termination of Gaussian 16 at Fri Apr 29 01:18:24 2022.
