 Gaussian 16, Revision A.03,
 Gaussian 16:  ES64L-G16RevA.03 25-Dec-2016

 ------------------------------
 #p blyp/Def2SVP td=(nstates=5)
 ------------------------------

 --------------------------------------------------
 step_151_chromophore_23 TDDFT with blyp functional
 --------------------------------------------------
 Symbolic Z-matrix:
 Charge =  0 Multiplicity = 1

                         Standard orientation:
 ---------------------------------------------------------------------
 Center     Atomic      Atomic             Coordinates (Angstroms)
 Number     Number       Type             X           Y           Z
 ---------------------------------------------------------------------
      1         12           0       -4.311300   -1.158077   -0.627961
      2          6           0       -4.023230    2.244564   -0.043371
      3          6           0       -1.282539   -1.010906   -2.422059
      4          6           0       -3.877086   -4.532747   -0.411520
      5          6           0       -6.793497   -1.378312    1.859574
      6          7           0       -2.903053    0.450378   -1.274655
      7          6           0       -3.013533    1.778248   -0.918778
      8          6           0       -1.873691    2.660231   -1.586793
      9          6           0       -1.203891    1.577718   -2.592266
     10          6           0       -1.801778    0.224667   -2.108885
     11          6           0       -1.572817    1.759657   -4.018283
     12          6           0       -0.887490    3.270150   -0.505749
     13          6           0       -0.370035    4.676708   -0.673744
     14          6           0        0.930041    4.766788   -1.525552
     15          8           0        1.247372    4.096734   -2.492952
     16          8           0        1.747307    5.712520   -1.047882
     17          7           0       -2.889373   -2.558781   -1.401485
     18          6           0       -1.752230   -2.308860   -2.153005
     19          6           0       -1.265307   -3.480998   -2.717266
     20          6           0       -2.019081   -4.556630   -2.153616
     21          6           0       -3.017529   -3.925033   -1.301801
     22          6           0        0.099643   -3.610521   -3.444404
     23          6           0       -1.817187   -6.076244   -2.466361
     24          8           0       -0.832374   -6.362699   -3.143082
     25          6           0       -2.843451   -7.121895   -2.182773
     26          7           0       -5.113656   -2.726106    0.704324
     27          6           0       -4.834096   -4.052178    0.473738
     28          6           0       -5.773840   -4.892698    1.410623
     29          6           0       -6.642020   -3.862825    2.157862
     30          6           0       -6.187921   -2.551636    1.522650
     31          6           0       -6.537062   -6.007522    0.703826
     32          6           0       -6.538764   -3.905511    3.746922
     33          6           0       -7.876161   -4.123998    4.462760
     34          7           0       -5.451529    0.135153    0.436533
     35          6           0       -6.377953   -0.060261    1.414947
     36          6           0       -6.856182    1.255175    1.824042
     37          6           0       -5.962262    2.155319    1.262992
     38          6           0       -5.075405    1.448130    0.513370
     39          6           0       -7.956097    1.561797    2.936119
     40          6           0       -5.732797    3.583807    1.213192
     41          8           0       -6.286220    4.588735    1.660609
     42          6           0       -4.437879    3.737977    0.312887
     43          6           0       -4.629541    4.627387   -0.869228
     44          8           0       -5.346190    4.294257   -1.840119
     45          8           0       -3.987771    5.812588   -0.759551
     46          6           0       -4.460488    6.860843   -1.707031
     47          6           0        3.194406    5.515846   -1.346338
     48          6           0        3.956818    5.549124    0.004490
     49          6           0        4.120695    4.602317    0.927962
     50          6           0        3.517796    3.182918    0.758813
     51          6           0        5.026306    4.737952    2.085566
     52          6           0        6.438661    4.236367    1.822899
     53          6           0        6.900648    3.079360    2.753067
     54          6           0        7.393206    1.795435    2.040044
     55          6           0        8.761305    2.074361    1.339323
     56          6           0        7.585459    0.605057    3.036268
     57          6           0        7.118841   -0.765521    2.440387
     58          6           0        8.184553   -1.829180    2.741984
     59          6           0        7.872671   -3.135173    1.940748
     60          6           0        7.445209   -4.262732    2.896652
     61          6           0        9.038529   -3.636330    1.057743
     62          6           0        9.006652   -3.156164   -0.503938
     63          6           0       10.248262   -2.243168   -0.787415
     64          6           0       11.486309   -2.943436   -1.298420
     65          6           0       12.888975   -2.664059   -0.622839
     66          6           0       11.635191   -2.658110   -2.829677
     67          1           0       -0.451788   -1.012327   -3.131248
     68          1           0       -3.929317   -5.621430   -0.485877
     69          1           0       -7.608098   -1.464868    2.582481
     70          1           0       -2.345762    3.495774   -2.103889
     71          1           0       -0.154531    1.379783   -2.375141
     72          1           0       -2.169312    2.602544   -4.366801
     73          1           0       -1.979948    0.862567   -4.483931
     74          1           0       -0.580160    1.899272   -4.446135
     75          1           0        0.022800    2.683112   -0.635872
     76          1           0       -1.138925    3.090450    0.538822
     77          1           0       -0.216249    5.155664    0.293317
     78          1           0       -1.178883    5.214280   -1.169473
     79          1           0        0.724906   -4.381838   -2.993538
     80          1           0        0.724600   -2.718264   -3.404628
     81          1           0       -0.206794   -3.737687   -4.482696
     82          1           0       -2.875352   -7.714263   -3.097566
     83          1           0       -3.885028   -6.866523   -1.988858
     84          1           0       -2.468584   -7.701879   -1.339362
     85          1           0       -5.116577   -5.445981    2.080571
     86          1           0       -7.653155   -3.871796    1.751244
     87          1           0       -7.581215   -5.756421    0.519169
     88          1           0       -6.255489   -7.045811    0.876437
     89          1           0       -6.290210   -5.928537   -0.354647
     90          1           0       -6.112398   -2.961472    4.085421
     91          1           0       -5.916398   -4.714921    4.129732
     92          1           0       -8.115426   -3.209880    5.006279
     93          1           0       -7.901778   -4.948870    5.174447
     94          1           0       -8.625616   -4.349868    3.704389
     95          1           0       -8.049299    0.625085    3.483647
     96          1           0       -8.928297    1.851460    2.539658
     97          1           0       -7.678878    2.370426    3.613653
     98          1           0       -3.568795    4.104094    0.860548
     99          1           0       -3.942040    7.819110   -1.659276
    100          1           0       -5.490761    7.047769   -1.405312
    101          1           0       -4.442662    6.473540   -2.725850
    102          1           0        3.518049    6.284617   -2.048081
    103          1           0        3.378591    4.535512   -1.785533
    104          1           0        4.437722    6.498164    0.240800
    105          1           0        3.022204    2.870358    1.677446
    106          1           0        4.294314    2.491224    0.431721
    107          1           0        2.752478    3.093073   -0.012659
    108          1           0        4.479119    4.206779    2.863741
    109          1           0        5.123209    5.782509    2.381353
    110          1           0        7.112938    5.060808    2.051499
    111          1           0        6.458520    3.885642    0.791043
    112          1           0        6.104512    2.885955    3.471929
    113          1           0        7.724697    3.505365    3.325812
    114          1           0        6.649441    1.633785    1.260238
    115          1           0        9.084467    3.069341    1.645267
    116          1           0        8.692444    1.997448    0.254621
    117          1           0        9.555708    1.373427    1.598286
    118          1           0        7.080782    0.772003    3.988395
    119          1           0        8.580890    0.553284    3.477115
    120          1           0        6.939638   -0.581994    1.380380
    121          1           0        6.138044   -0.935078    2.884875
    122          1           0        8.153524   -2.166847    3.777959
    123          1           0        9.173950   -1.439605    2.501005
    124          1           0        6.981741   -2.924378    1.349637
    125          1           0        7.283049   -5.185033    2.337093
    126          1           0        6.465028   -3.952058    3.258366
    127          1           0        8.106698   -4.301557    3.762360
    128          1           0        9.091642   -4.724179    1.010586
    129          1           0        9.940894   -3.268386    1.546377
    130          1           0        8.105323   -2.622558   -0.806296
    131          1           0        8.960345   -4.059821   -1.112175
    132          1           0       10.489184   -1.686901    0.118660
    133          1           0        9.927355   -1.511593   -1.528466
    134          1           0       11.332793   -4.020552   -1.374059
    135          1           0       13.329499   -3.550096   -0.165653
    136          1           0       12.853498   -1.985774    0.230567
    137          1           0       13.622289   -2.296915   -1.341146
    138          1           0       12.275701   -1.793974   -3.004752
    139          1           0       10.687086   -2.388731   -3.294789
    140          1           0       12.035912   -3.561762   -3.288903
 ---------------------------------------------------------------------

 SCF Done:  E(RB-LYP) =  -3007.35962844     A.U. after   21 cycles

 Excitation energies and oscillator strengths:

 Excited State   1:      Singlet-A      1.8382 eV  674.50 nm  f=0.3274  <S**2>=0.000
     245 -> 248        0.18243
     246 -> 247        0.69202
     246 <- 247       -0.15454
 This state for optimization and/or second-order correction.
 Total Energy, E(TD-HF/TD-DFT) =  -3007.29207742
 Copying the excited state density for this state as the 1-particle RhoCI density.

 Excited State   2:      Singlet-A      1.8988 eV  652.98 nm  f=0.0037  <S**2>=0.000
     244 -> 247        0.67734
     245 -> 247       -0.19567

 Excited State   3:      Singlet-A      2.0444 eV  606.47 nm  f=0.0745  <S**2>=0.000
     242 -> 247        0.11442
     243 -> 247        0.19424
     244 -> 247        0.18833
     245 -> 247        0.59666
     246 -> 248       -0.20430

 Excited State   4:      Singlet-A      2.0641 eV  600.67 nm  f=0.0106  <S**2>=0.000
     243 -> 247        0.67859
     245 -> 247       -0.16858

 Excited State   5:      Singlet-A      2.3676 eV  523.68 nm  f=0.0109  <S**2>=0.000
     242 -> 247        0.68699

 The electronic state is 1-A.
 Alpha  occ. eigenvalues --  -46.27358 -18.83010 -18.81706 -18.76670 -18.76272
 Alpha  occ. eigenvalues --  -18.76045 -18.75451 -14.03276 -14.02804 -14.01098
 Alpha  occ. eigenvalues --  -14.00425 -10.03972 -10.03958 -10.00211 -10.00184
 Alpha  occ. eigenvalues --   -9.98310  -9.98140  -9.97058  -9.96723  -9.96144
 Alpha  occ. eigenvalues --   -9.96079  -9.95965  -9.95429  -9.94707  -9.94688
 Alpha  occ. eigenvalues --   -9.94671  -9.94175  -9.94113  -9.94013  -9.93878
 Alpha  occ. eigenvalues --   -9.93689  -9.93636  -9.93474  -9.93308  -9.93132
 Alpha  occ. eigenvalues --   -9.92971  -9.92850  -9.92809  -9.92688  -9.92610
 Alpha  occ. eigenvalues --   -9.92519  -9.92495  -9.92481  -9.92400  -9.92361
 Alpha  occ. eigenvalues --   -9.92314  -9.91975  -9.91968  -9.91880  -9.91858
 Alpha  occ. eigenvalues --   -9.91815  -9.91576  -9.91491  -9.91462  -9.91249
 Alpha  occ. eigenvalues --   -9.91246  -9.91227  -9.91198  -9.90998  -9.90996
 Alpha  occ. eigenvalues --   -9.90949  -9.90923  -9.90852  -9.90840  -9.90549
 Alpha  occ. eigenvalues --   -9.90386  -2.91902  -1.72314  -1.71794  -1.71612
 Alpha  occ. eigenvalues --   -0.98525  -0.97758  -0.91309  -0.91177  -0.89549
 Alpha  occ. eigenvalues --   -0.88394  -0.86801  -0.85495  -0.84836  -0.83811
 Alpha  occ. eigenvalues --   -0.74931  -0.74346  -0.72681  -0.72467  -0.72159
 Alpha  occ. eigenvalues --   -0.71867  -0.71605  -0.71099  -0.70754  -0.69542
 Alpha  occ. eigenvalues --   -0.68967  -0.68507  -0.68157  -0.67756  -0.67258
 Alpha  occ. eigenvalues --   -0.66349  -0.66113  -0.65428  -0.65019  -0.64415
 Alpha  occ. eigenvalues --   -0.64002  -0.62363  -0.61859  -0.61348  -0.60875
 Alpha  occ. eigenvalues --   -0.60826  -0.59712  -0.59628  -0.59150  -0.58584
 Alpha  occ. eigenvalues --   -0.58300  -0.57667  -0.56777  -0.55095  -0.54518
 Alpha  occ. eigenvalues --   -0.54244  -0.53952  -0.52803  -0.52533  -0.51902
 Alpha  occ. eigenvalues --   -0.51541  -0.51170  -0.50560  -0.50308  -0.50024
 Alpha  occ. eigenvalues --   -0.49289  -0.48973  -0.48657  -0.48471  -0.46183
 Alpha  occ. eigenvalues --   -0.46127  -0.45937  -0.45369  -0.44713  -0.44516
 Alpha  occ. eigenvalues --   -0.43958  -0.43815  -0.43642  -0.42916  -0.42596
 Alpha  occ. eigenvalues --   -0.42198  -0.41900  -0.41781  -0.41283  -0.40977
 Alpha  occ. eigenvalues --   -0.40675  -0.40452  -0.40214  -0.40104  -0.40022
 Alpha  occ. eigenvalues --   -0.39728  -0.39637  -0.39586  -0.39516  -0.39132
 Alpha  occ. eigenvalues --   -0.38940  -0.38768  -0.38661  -0.38587  -0.38288
 Alpha  occ. eigenvalues --   -0.38089  -0.37857  -0.37582  -0.37416  -0.37320
 Alpha  occ. eigenvalues --   -0.37093  -0.36858  -0.36516  -0.36301  -0.36178
 Alpha  occ. eigenvalues --   -0.35968  -0.35828  -0.35646  -0.35594  -0.35212
 Alpha  occ. eigenvalues --   -0.34978  -0.34884  -0.34704  -0.34656  -0.34488
 Alpha  occ. eigenvalues --   -0.34315  -0.34068  -0.33859  -0.33752  -0.33522
 Alpha  occ. eigenvalues --   -0.33405  -0.33270  -0.33015  -0.32903  -0.32882
 Alpha  occ. eigenvalues --   -0.32780  -0.32656  -0.32575  -0.32339  -0.32227
 Alpha  occ. eigenvalues --   -0.32002  -0.31936  -0.31548  -0.31298  -0.31113
 Alpha  occ. eigenvalues --   -0.31056  -0.30843  -0.30786  -0.30573  -0.30478
 Alpha  occ. eigenvalues --   -0.30328  -0.30059  -0.29950  -0.29807  -0.29731
 Alpha  occ. eigenvalues --   -0.29557  -0.29378  -0.29193  -0.29013  -0.28773
 Alpha  occ. eigenvalues --   -0.28739  -0.28418  -0.28171  -0.27906  -0.27606
 Alpha  occ. eigenvalues --   -0.27456  -0.27307  -0.27053  -0.26906  -0.26660
 Alpha  occ. eigenvalues --   -0.26532  -0.26438  -0.26422  -0.25377  -0.25109
 Alpha  occ. eigenvalues --   -0.24860  -0.24648  -0.23953  -0.23640  -0.23329
 Alpha  occ. eigenvalues --   -0.23199  -0.22485  -0.22303  -0.21079  -0.20944
 Alpha  occ. eigenvalues --   -0.20711  -0.19869  -0.19215  -0.18665  -0.17401
 Alpha  occ. eigenvalues --   -0.16026
 Alpha virt. eigenvalues --   -0.11737  -0.06706  -0.06174  -0.04644  -0.03621
 Alpha virt. eigenvalues --   -0.03356  -0.02875  -0.01858  -0.01218   0.00115
 Alpha virt. eigenvalues --    0.01358   0.01835   0.02194   0.02571   0.02865

 Mulliken charges:
               1
     1  Mg   0.698080
     2  C   -0.045186
     3  C   -0.038398
     4  C   -0.032095
     5  C   -0.058387
     6  N   -0.232883
     7  C   -0.058117
     8  C    0.020763
     9  C    0.044567
    10  C   -0.014977
    11  C    0.139305
    12  C    0.103502
    13  C    0.135091
    14  C    0.053736
    15  O   -0.196760
    16  O   -0.251746
    17  N   -0.280910
    18  C    0.117956
    19  C   -0.145780
    20  C    0.007891
    21  C    0.138636
    22  C    0.181014
    23  C   -0.060941
    24  O   -0.176092
    25  C    0.139031
    26  N   -0.214420
    27  C   -0.001161
    28  C    0.003424
    29  C    0.090314
    30  C   -0.033375
    31  C    0.159037
    32  C    0.099735
    33  C    0.048324
    34  N   -0.298946
    35  C    0.115564
    36  C   -0.174099
    37  C    0.076620
    38  C    0.130601
    39  C    0.146216
    40  C    0.007022
    41  O   -0.132411
    42  C    0.084914
    43  C    0.108910
    44  O   -0.224052
    45  O   -0.259804
    46  C    0.222275
    47  C    0.316974
    48  C   -0.086576
    49  C   -0.165318
    50  C    0.102986
    51  C    0.171493
    52  C    0.093924
    53  C    0.066714
    54  C   -0.073482
    55  C    0.106613
    56  C    0.108750
    57  C    0.061454
    58  C    0.111475
    59  C   -0.075100
    60  C    0.100082
    61  C    0.106603
    62  C    0.056471
    63  C    0.120445
    64  C   -0.070740
    65  C    0.100880
    66  C    0.062758
    67  H   -0.067802
    68  H   -0.095326
    69  H   -0.063276
    70  H   -0.012468
    71  H   -0.010906
    72  H    0.002259
    73  H   -0.008094
    74  H   -0.003188
    75  H   -0.029042
    76  H   -0.015376
    77  H   -0.010732
    78  H   -0.000466
    79  H    0.019844
    80  H   -0.023126
    81  H    0.001814
    82  H    0.009257
    83  H    0.005765
    84  H    0.011868
    85  H   -0.022292
    86  H   -0.023064
    87  H   -0.027860
    88  H   -0.004156
    89  H   -0.043646
    90  H   -0.010547
    91  H   -0.014506
    92  H   -0.002827
    93  H   -0.008449
    94  H   -0.010033
    95  H   -0.014004
    96  H    0.005822
    97  H    0.008071
    98  H   -0.016349
    99  H    0.021356
   100  H    0.020866
   101  H    0.022201
   102  H   -0.003319
   103  H    0.005787
   104  H   -0.051463
   105  H   -0.001611
   106  H    0.007754
   107  H   -0.012983
   108  H   -0.030154
   109  H   -0.033371
   110  H   -0.025230
   111  H   -0.014884
   112  H   -0.034514
   113  H   -0.038277
   114  H   -0.030577
   115  H   -0.017123
   116  H   -0.016262
   117  H   -0.012981
   118  H   -0.056085
   119  H   -0.042707
   120  H   -0.019370
   121  H   -0.022877
   122  H   -0.038712
   123  H   -0.023565
   124  H   -0.038508
   125  H   -0.011512
   126  H   -0.031305
   127  H   -0.009556
   128  H   -0.038876
   129  H   -0.030809
   130  H   -0.032032
   131  H   -0.029348
   132  H   -0.035016
   133  H   -0.042982
   134  H   -0.032110
   135  H   -0.019523
   136  H   -0.021971
   137  H   -0.014782
   138  H   -0.015072
   139  H   -0.021212
   140  H   -0.012848
 Sum of Mulliken charges =  -0.00000

 Dipole moment (field-independent basis, Debye):
    X=              0.8862    Y=             -1.1856    Z=              2.5109  Tot=              2.9147
 Quadrupole moment (field-independent basis, Debye-Ang):
   XX=           -396.6205   YY=           -399.9353   ZZ=           -408.6813
   XY=             44.7782   XZ=              3.9180   YZ=            -19.2001

 Normal termination of Gaussian 16 at Thu Apr 28 10:56:15 2022.
