 Gaussian 16, Revision A.03,
 Gaussian 16:  ES64L-G16RevA.03 25-Dec-2016

 -----------------------------------
 #p cam-b3lyp/Def2SVP td=(nstates=5)
 -----------------------------------

 -------------------------------------------------------
 step_151_chromophore_23 TDDFT with cam-b3lyp functional
 -------------------------------------------------------
 Symbolic Z-matrix:
 Charge =  0 Multiplicity = 1

                         Standard orientation:
 ---------------------------------------------------------------------
 Center     Atomic      Atomic             Coordinates (Angstroms)
 Number     Number       Type             X           Y           Z
 ---------------------------------------------------------------------
      1         12           0       -4.311300   -1.158077   -0.627961
      2          6           0       -4.023230    2.244564   -0.043371
      3          6           0       -1.282539   -1.010906   -2.422059
      4          6           0       -3.877086   -4.532747   -0.411520
      5          6           0       -6.793497   -1.378312    1.859574
      6          7           0       -2.903053    0.450378   -1.274655
      7          6           0       -3.013533    1.778248   -0.918778
      8          6           0       -1.873691    2.660231   -1.586793
      9          6           0       -1.203891    1.577718   -2.592266
     10          6           0       -1.801778    0.224667   -2.108885
     11          6           0       -1.572817    1.759657   -4.018283
     12          6           0       -0.887490    3.270150   -0.505749
     13          6           0       -0.370035    4.676708   -0.673744
     14          6           0        0.930041    4.766788   -1.525552
     15          8           0        1.247372    4.096734   -2.492952
     16          8           0        1.747307    5.712520   -1.047882
     17          7           0       -2.889373   -2.558781   -1.401485
     18          6           0       -1.752230   -2.308860   -2.153005
     19          6           0       -1.265307   -3.480998   -2.717266
     20          6           0       -2.019081   -4.556630   -2.153616
     21          6           0       -3.017529   -3.925033   -1.301801
     22          6           0        0.099643   -3.610521   -3.444404
     23          6           0       -1.817187   -6.076244   -2.466361
     24          8           0       -0.832374   -6.362699   -3.143082
     25          6           0       -2.843451   -7.121895   -2.182773
     26          7           0       -5.113656   -2.726106    0.704324
     27          6           0       -4.834096   -4.052178    0.473738
     28          6           0       -5.773840   -4.892698    1.410623
     29          6           0       -6.642020   -3.862825    2.157862
     30          6           0       -6.187921   -2.551636    1.522650
     31          6           0       -6.537062   -6.007522    0.703826
     32          6           0       -6.538764   -3.905511    3.746922
     33          6           0       -7.876161   -4.123998    4.462760
     34          7           0       -5.451529    0.135153    0.436533
     35          6           0       -6.377953   -0.060261    1.414947
     36          6           0       -6.856182    1.255175    1.824042
     37          6           0       -5.962262    2.155319    1.262992
     38          6           0       -5.075405    1.448130    0.513370
     39          6           0       -7.956097    1.561797    2.936119
     40          6           0       -5.732797    3.583807    1.213192
     41          8           0       -6.286220    4.588735    1.660609
     42          6           0       -4.437879    3.737977    0.312887
     43          6           0       -4.629541    4.627387   -0.869228
     44          8           0       -5.346190    4.294257   -1.840119
     45          8           0       -3.987771    5.812588   -0.759551
     46          6           0       -4.460488    6.860843   -1.707031
     47          6           0        3.194406    5.515846   -1.346338
     48          6           0        3.956818    5.549124    0.004490
     49          6           0        4.120695    4.602317    0.927962
     50          6           0        3.517796    3.182918    0.758813
     51          6           0        5.026306    4.737952    2.085566
     52          6           0        6.438661    4.236367    1.822899
     53          6           0        6.900648    3.079360    2.753067
     54          6           0        7.393206    1.795435    2.040044
     55          6           0        8.761305    2.074361    1.339323
     56          6           0        7.585459    0.605057    3.036268
     57          6           0        7.118841   -0.765521    2.440387
     58          6           0        8.184553   -1.829180    2.741984
     59          6           0        7.872671   -3.135173    1.940748
     60          6           0        7.445209   -4.262732    2.896652
     61          6           0        9.038529   -3.636330    1.057743
     62          6           0        9.006652   -3.156164   -0.503938
     63          6           0       10.248262   -2.243168   -0.787415
     64          6           0       11.486309   -2.943436   -1.298420
     65          6           0       12.888975   -2.664059   -0.622839
     66          6           0       11.635191   -2.658110   -2.829677
     67          1           0       -0.451788   -1.012327   -3.131248
     68          1           0       -3.929317   -5.621430   -0.485877
     69          1           0       -7.608098   -1.464868    2.582481
     70          1           0       -2.345762    3.495774   -2.103889
     71          1           0       -0.154531    1.379783   -2.375141
     72          1           0       -2.169312    2.602544   -4.366801
     73          1           0       -1.979948    0.862567   -4.483931
     74          1           0       -0.580160    1.899272   -4.446135
     75          1           0        0.022800    2.683112   -0.635872
     76          1           0       -1.138925    3.090450    0.538822
     77          1           0       -0.216249    5.155664    0.293317
     78          1           0       -1.178883    5.214280   -1.169473
     79          1           0        0.724906   -4.381838   -2.993538
     80          1           0        0.724600   -2.718264   -3.404628
     81          1           0       -0.206794   -3.737687   -4.482696
     82          1           0       -2.875352   -7.714263   -3.097566
     83          1           0       -3.885028   -6.866523   -1.988858
     84          1           0       -2.468584   -7.701879   -1.339362
     85          1           0       -5.116577   -5.445981    2.080571
     86          1           0       -7.653155   -3.871796    1.751244
     87          1           0       -7.581215   -5.756421    0.519169
     88          1           0       -6.255489   -7.045811    0.876437
     89          1           0       -6.290210   -5.928537   -0.354647
     90          1           0       -6.112398   -2.961472    4.085421
     91          1           0       -5.916398   -4.714921    4.129732
     92          1           0       -8.115426   -3.209880    5.006279
     93          1           0       -7.901778   -4.948870    5.174447
     94          1           0       -8.625616   -4.349868    3.704389
     95          1           0       -8.049299    0.625085    3.483647
     96          1           0       -8.928297    1.851460    2.539658
     97          1           0       -7.678878    2.370426    3.613653
     98          1           0       -3.568795    4.104094    0.860548
     99          1           0       -3.942040    7.819110   -1.659276
    100          1           0       -5.490761    7.047769   -1.405312
    101          1           0       -4.442662    6.473540   -2.725850
    102          1           0        3.518049    6.284617   -2.048081
    103          1           0        3.378591    4.535512   -1.785533
    104          1           0        4.437722    6.498164    0.240800
    105          1           0        3.022204    2.870358    1.677446
    106          1           0        4.294314    2.491224    0.431721
    107          1           0        2.752478    3.093073   -0.012659
    108          1           0        4.479119    4.206779    2.863741
    109          1           0        5.123209    5.782509    2.381353
    110          1           0        7.112938    5.060808    2.051499
    111          1           0        6.458520    3.885642    0.791043
    112          1           0        6.104512    2.885955    3.471929
    113          1           0        7.724697    3.505365    3.325812
    114          1           0        6.649441    1.633785    1.260238
    115          1           0        9.084467    3.069341    1.645267
    116          1           0        8.692444    1.997448    0.254621
    117          1           0        9.555708    1.373427    1.598286
    118          1           0        7.080782    0.772003    3.988395
    119          1           0        8.580890    0.553284    3.477115
    120          1           0        6.939638   -0.581994    1.380380
    121          1           0        6.138044   -0.935078    2.884875
    122          1           0        8.153524   -2.166847    3.777959
    123          1           0        9.173950   -1.439605    2.501005
    124          1           0        6.981741   -2.924378    1.349637
    125          1           0        7.283049   -5.185033    2.337093
    126          1           0        6.465028   -3.952058    3.258366
    127          1           0        8.106698   -4.301557    3.762360
    128          1           0        9.091642   -4.724179    1.010586
    129          1           0        9.940894   -3.268386    1.546377
    130          1           0        8.105323   -2.622558   -0.806296
    131          1           0        8.960345   -4.059821   -1.112175
    132          1           0       10.489184   -1.686901    0.118660
    133          1           0        9.927355   -1.511593   -1.528466
    134          1           0       11.332793   -4.020552   -1.374059
    135          1           0       13.329499   -3.550096   -0.165653
    136          1           0       12.853498   -1.985774    0.230567
    137          1           0       13.622289   -2.296915   -1.341146
    138          1           0       12.275701   -1.793974   -3.004752
    139          1           0       10.687086   -2.388731   -3.294789
    140          1           0       12.035912   -3.561762   -3.288903
 ---------------------------------------------------------------------

 SCF Done:  E(RCAM-B3LYP) =  -3007.14629074     A.U. after   18 cycles

 Excitation energies and oscillator strengths:

 Excited State   1:      Singlet-A      1.7087 eV  725.60 nm  f=0.4030  <S**2>=0.000
     245 -> 248       -0.17643
     246 -> 247        0.68693
     245 <- 248       -0.10786
 This state for optimization and/or second-order correction.
 Total Energy, E(TD-HF/TD-DFT) =  -3007.08349630
 Copying the excited state density for this state as the 1-particle RhoCI density.

 Excited State   2:      Singlet-A      2.2399 eV  553.53 nm  f=0.1437  <S**2>=0.000
     245 -> 247        0.64974
     246 -> 248        0.26153

 Excited State   3:      Singlet-A      3.1671 eV  391.47 nm  f=0.0082  <S**2>=0.000
     244 -> 247        0.68973

 Excited State   4:      Singlet-A      3.4523 eV  359.13 nm  f=0.0044  <S**2>=0.000
     243 -> 247        0.66846
     246 -> 248       -0.12676

 Excited State   5:      Singlet-A      3.5999 eV  344.41 nm  f=0.0066  <S**2>=0.000
     240 -> 247        0.54247
     240 -> 249       -0.34104
     240 -> 251       -0.17667
     241 -> 247        0.12302

 The electronic state is 1-A.
 Alpha  occ. eigenvalues --  -46.88917 -19.26030 -19.24556 -19.19622 -19.19470
 Alpha  occ. eigenvalues --  -19.19184 -19.18788 -14.42237 -14.41585 -14.39416
 Alpha  occ. eigenvalues --  -14.38894 -10.39497 -10.39211 -10.35605 -10.35512
 Alpha  occ. eigenvalues --  -10.32501 -10.32242 -10.31579 -10.31351 -10.30666
 Alpha  occ. eigenvalues --  -10.30238 -10.30223 -10.29967 -10.29023 -10.28898
 Alpha  occ. eigenvalues --  -10.28867 -10.28558 -10.28434 -10.28080 -10.27923
 Alpha  occ. eigenvalues --  -10.27772 -10.27718 -10.27466 -10.27398 -10.27398
 Alpha  occ. eigenvalues --  -10.26874 -10.26842 -10.26810 -10.26792 -10.26601
 Alpha  occ. eigenvalues --  -10.26573 -10.26560 -10.26403 -10.26334 -10.26240
 Alpha  occ. eigenvalues --  -10.26096 -10.25768 -10.25598 -10.25593 -10.25505
 Alpha  occ. eigenvalues --  -10.25478 -10.25441 -10.25207 -10.25102 -10.24909
 Alpha  occ. eigenvalues --  -10.24893 -10.24886 -10.24834 -10.24806 -10.24709
 Alpha  occ. eigenvalues --  -10.24597 -10.24571 -10.24556 -10.24486 -10.24121
 Alpha  occ. eigenvalues --  -10.23981  -3.17358  -1.92248  -1.91809  -1.91659
 Alpha  occ. eigenvalues --   -1.17016  -1.16301  -1.09819  -1.09570  -1.07387
 Alpha  occ. eigenvalues --   -1.06382  -1.04375  -1.03135  -1.02468  -1.01363
 Alpha  occ. eigenvalues --   -0.92012  -0.91228  -0.89447  -0.89199  -0.88908
 Alpha  occ. eigenvalues --   -0.88504  -0.88266  -0.87701  -0.87317  -0.86001
 Alpha  occ. eigenvalues --   -0.85341  -0.85065  -0.84405  -0.83894  -0.83465
 Alpha  occ. eigenvalues --   -0.82451  -0.82256  -0.81345  -0.80879  -0.80289
 Alpha  occ. eigenvalues --   -0.79740  -0.77901  -0.77435  -0.76958  -0.76358
 Alpha  occ. eigenvalues --   -0.76196  -0.75031  -0.74928  -0.74385  -0.73797
 Alpha  occ. eigenvalues --   -0.73347  -0.72671  -0.71664  -0.69861  -0.69110
 Alpha  occ. eigenvalues --   -0.68803  -0.68523  -0.67242  -0.67049  -0.66008
 Alpha  occ. eigenvalues --   -0.65750  -0.65337  -0.64584  -0.64357  -0.64025
 Alpha  occ. eigenvalues --   -0.63035  -0.62904  -0.62349  -0.62334  -0.59859
 Alpha  occ. eigenvalues --   -0.59663  -0.59446  -0.58857  -0.58138  -0.58005
 Alpha  occ. eigenvalues --   -0.57429  -0.57338  -0.56888  -0.56187  -0.55815
 Alpha  occ. eigenvalues --   -0.55261  -0.54882  -0.54719  -0.54152  -0.54001
 Alpha  occ. eigenvalues --   -0.53811  -0.53254  -0.53044  -0.52693  -0.52515
 Alpha  occ. eigenvalues --   -0.52424  -0.52254  -0.52149  -0.52063  -0.51787
 Alpha  occ. eigenvalues --   -0.51398  -0.51365  -0.51137  -0.50904  -0.50692
 Alpha  occ. eigenvalues --   -0.50537  -0.50424  -0.50016  -0.49826  -0.49572
 Alpha  occ. eigenvalues --   -0.49234  -0.49003  -0.48965  -0.48920  -0.48594
 Alpha  occ. eigenvalues --   -0.48425  -0.48392  -0.47890  -0.47624  -0.47301
 Alpha  occ. eigenvalues --   -0.46994  -0.46896  -0.46626  -0.46541  -0.46458
 Alpha  occ. eigenvalues --   -0.46228  -0.45805  -0.45760  -0.45572  -0.45338
 Alpha  occ. eigenvalues --   -0.45176  -0.45002  -0.44699  -0.44607  -0.44482
 Alpha  occ. eigenvalues --   -0.44370  -0.44354  -0.44301  -0.44017  -0.43763
 Alpha  occ. eigenvalues --   -0.43572  -0.43447  -0.43200  -0.43023  -0.42550
 Alpha  occ. eigenvalues --   -0.42402  -0.42312  -0.42270  -0.42246  -0.41944
 Alpha  occ. eigenvalues --   -0.41871  -0.41839  -0.41590  -0.41169  -0.40887
 Alpha  occ. eigenvalues --   -0.40843  -0.40619  -0.40339  -0.40131  -0.39831
 Alpha  occ. eigenvalues --   -0.39805  -0.39564  -0.39085  -0.38775  -0.38572
 Alpha  occ. eigenvalues --   -0.38311  -0.38166  -0.38000  -0.37809  -0.37592
 Alpha  occ. eigenvalues --   -0.37401  -0.37204  -0.37109  -0.36665  -0.36117
 Alpha  occ. eigenvalues --   -0.35984  -0.35773  -0.34463  -0.34284  -0.33846
 Alpha  occ. eigenvalues --   -0.33781  -0.33682  -0.33017  -0.31513  -0.31241
 Alpha  occ. eigenvalues --   -0.31040  -0.30930  -0.30085  -0.29291  -0.24141
 Alpha  occ. eigenvalues --   -0.21376
 Alpha virt. eigenvalues --   -0.08968  -0.01410   0.00450   0.02072   0.02362
 Alpha virt. eigenvalues --    0.03941   0.04281   0.05598   0.06123   0.07421
 Alpha virt. eigenvalues --    0.07812   0.08207   0.08596   0.08765   0.09128

 Mulliken charges:
               1
     1  Mg   0.827172
     2  C   -0.057589
     3  C   -0.052157
     4  C   -0.057754
     5  C   -0.067338
     6  N   -0.300452
     7  C   -0.020087
     8  C   -0.018958
     9  C   -0.008063
    10  C    0.003358
    11  C    0.076382
    12  C    0.047582
    13  C    0.065346
    14  C    0.134908
    15  O   -0.240061
    16  O   -0.314871
    17  N   -0.367345
    18  C    0.124499
    19  C   -0.143362
    20  C   -0.058502
    21  C    0.168253
    22  C    0.120957
    23  C    0.018576
    24  O   -0.214138
    25  C    0.051692
    26  N   -0.286900
    27  C    0.024897
    28  C   -0.047170
    29  C    0.027532
    30  C   -0.006298
    31  C    0.088732
    32  C    0.042351
    33  C   -0.012355
    34  N   -0.386514
    35  C    0.114869
    36  C   -0.164100
    37  C   -0.011549
    38  C    0.160334
    39  C    0.102584
    40  C    0.104525
    41  O   -0.171825
    42  C    0.011563
    43  C    0.193388
    44  O   -0.260075
    45  O   -0.323943
    46  C    0.179252
    47  C    0.284185
    48  C   -0.111023
    49  C   -0.186973
    50  C    0.053130
    51  C    0.107799
    52  C    0.036835
    53  C    0.017257
    54  C   -0.128302
    55  C    0.050226
    56  C    0.054325
    57  C    0.011346
    58  C    0.057061
    59  C   -0.130633
    60  C    0.043117
    61  C    0.053447
    62  C    0.006419
    63  C    0.064565
    64  C   -0.132987
    65  C    0.042589
    66  C    0.008192
    67  H   -0.031943
    68  H   -0.060872
    69  H   -0.028995
    70  H    0.017892
    71  H    0.023912
    72  H    0.028230
    73  H    0.018740
    74  H    0.021934
    75  H   -0.000729
    76  H    0.016514
    77  H    0.027129
    78  H    0.030121
    79  H    0.047744
    80  H    0.003577
    81  H    0.028544
    82  H    0.042549
    83  H    0.033694
    84  H    0.041872
    85  H    0.013282
    86  H    0.011535
    87  H    0.001222
    88  H    0.022571
    89  H   -0.017088
    90  H    0.020124
    91  H    0.013916
    92  H    0.019168
    93  H    0.016108
    94  H    0.012441
    95  H    0.007022
    96  H    0.031179
    97  H    0.033337
    98  H    0.026203
    99  H    0.045629
   100  H    0.044713
   101  H    0.047542
   102  H    0.026438
   103  H    0.038050
   104  H   -0.017766
   105  H    0.022300
   106  H    0.029193
   107  H    0.005689
   108  H   -0.001311
   109  H   -0.000942
   110  H    0.004852
   111  H    0.012148
   112  H   -0.006185
   113  H   -0.009792
   114  H   -0.003552
   115  H    0.006299
   116  H    0.007327
   117  H    0.009366
   118  H   -0.024709
   119  H   -0.012978
   120  H    0.006076
   121  H    0.004550
   122  H   -0.008964
   123  H    0.001591
   124  H   -0.006984
   125  H    0.012946
   126  H   -0.006142
   127  H    0.012903
   128  H   -0.008583
   129  H   -0.005056
   130  H   -0.004373
   131  H   -0.001914
   132  H   -0.010895
   133  H   -0.012754
   134  H   -0.000558
   135  H    0.004842
   136  H    0.001881
   137  H    0.009319
   138  H    0.007649
   139  H    0.002421
   140  H    0.010880
 Sum of Mulliken charges =  -0.00000

 Dipole moment (field-independent basis, Debye):
    X=              0.9515    Y=             -1.5188    Z=              2.3803  Tot=              2.9795
 Quadrupole moment (field-independent basis, Debye-Ang):
   XX=           -397.0609   YY=           -394.7831   ZZ=           -407.8747
   XY=             47.1853   XZ=              3.7843   YZ=            -19.1110

 Normal termination of Gaussian 16 at Thu Apr 28 09:51:24 2022.
