 Gaussian 16, Revision A.03,
 Gaussian 16:  ES64L-G16RevA.03 25-Dec-2016

 ---------------------------------
 #p PBE1PBE/Def2SVP td=(nstates=5)
 ---------------------------------

 -----------------------------------------------------
 step_151_chromophore_23 TDDFT with PBE1PBE functional
 -----------------------------------------------------
 Symbolic Z-matrix:
 Charge =  0 Multiplicity = 1

                         Standard orientation:
 ---------------------------------------------------------------------
 Center     Atomic      Atomic             Coordinates (Angstroms)
 Number     Number       Type             X           Y           Z
 ---------------------------------------------------------------------
      1         12           0       -4.311300   -1.158077   -0.627961
      2          6           0       -4.023230    2.244564   -0.043371
      3          6           0       -1.282539   -1.010906   -2.422059
      4          6           0       -3.877086   -4.532747   -0.411520
      5          6           0       -6.793497   -1.378312    1.859574
      6          7           0       -2.903053    0.450378   -1.274655
      7          6           0       -3.013533    1.778248   -0.918778
      8          6           0       -1.873691    2.660231   -1.586793
      9          6           0       -1.203891    1.577718   -2.592266
     10          6           0       -1.801778    0.224667   -2.108885
     11          6           0       -1.572817    1.759657   -4.018283
     12          6           0       -0.887490    3.270150   -0.505749
     13          6           0       -0.370035    4.676708   -0.673744
     14          6           0        0.930041    4.766788   -1.525552
     15          8           0        1.247372    4.096734   -2.492952
     16          8           0        1.747307    5.712520   -1.047882
     17          7           0       -2.889373   -2.558781   -1.401485
     18          6           0       -1.752230   -2.308860   -2.153005
     19          6           0       -1.265307   -3.480998   -2.717266
     20          6           0       -2.019081   -4.556630   -2.153616
     21          6           0       -3.017529   -3.925033   -1.301801
     22          6           0        0.099643   -3.610521   -3.444404
     23          6           0       -1.817187   -6.076244   -2.466361
     24          8           0       -0.832374   -6.362699   -3.143082
     25          6           0       -2.843451   -7.121895   -2.182773
     26          7           0       -5.113656   -2.726106    0.704324
     27          6           0       -4.834096   -4.052178    0.473738
     28          6           0       -5.773840   -4.892698    1.410623
     29          6           0       -6.642020   -3.862825    2.157862
     30          6           0       -6.187921   -2.551636    1.522650
     31          6           0       -6.537062   -6.007522    0.703826
     32          6           0       -6.538764   -3.905511    3.746922
     33          6           0       -7.876161   -4.123998    4.462760
     34          7           0       -5.451529    0.135153    0.436533
     35          6           0       -6.377953   -0.060261    1.414947
     36          6           0       -6.856182    1.255175    1.824042
     37          6           0       -5.962262    2.155319    1.262992
     38          6           0       -5.075405    1.448130    0.513370
     39          6           0       -7.956097    1.561797    2.936119
     40          6           0       -5.732797    3.583807    1.213192
     41          8           0       -6.286220    4.588735    1.660609
     42          6           0       -4.437879    3.737977    0.312887
     43          6           0       -4.629541    4.627387   -0.869228
     44          8           0       -5.346190    4.294257   -1.840119
     45          8           0       -3.987771    5.812588   -0.759551
     46          6           0       -4.460488    6.860843   -1.707031
     47          6           0        3.194406    5.515846   -1.346338
     48          6           0        3.956818    5.549124    0.004490
     49          6           0        4.120695    4.602317    0.927962
     50          6           0        3.517796    3.182918    0.758813
     51          6           0        5.026306    4.737952    2.085566
     52          6           0        6.438661    4.236367    1.822899
     53          6           0        6.900648    3.079360    2.753067
     54          6           0        7.393206    1.795435    2.040044
     55          6           0        8.761305    2.074361    1.339323
     56          6           0        7.585459    0.605057    3.036268
     57          6           0        7.118841   -0.765521    2.440387
     58          6           0        8.184553   -1.829180    2.741984
     59          6           0        7.872671   -3.135173    1.940748
     60          6           0        7.445209   -4.262732    2.896652
     61          6           0        9.038529   -3.636330    1.057743
     62          6           0        9.006652   -3.156164   -0.503938
     63          6           0       10.248262   -2.243168   -0.787415
     64          6           0       11.486309   -2.943436   -1.298420
     65          6           0       12.888975   -2.664059   -0.622839
     66          6           0       11.635191   -2.658110   -2.829677
     67          1           0       -0.451788   -1.012327   -3.131248
     68          1           0       -3.929317   -5.621430   -0.485877
     69          1           0       -7.608098   -1.464868    2.582481
     70          1           0       -2.345762    3.495774   -2.103889
     71          1           0       -0.154531    1.379783   -2.375141
     72          1           0       -2.169312    2.602544   -4.366801
     73          1           0       -1.979948    0.862567   -4.483931
     74          1           0       -0.580160    1.899272   -4.446135
     75          1           0        0.022800    2.683112   -0.635872
     76          1           0       -1.138925    3.090450    0.538822
     77          1           0       -0.216249    5.155664    0.293317
     78          1           0       -1.178883    5.214280   -1.169473
     79          1           0        0.724906   -4.381838   -2.993538
     80          1           0        0.724600   -2.718264   -3.404628
     81          1           0       -0.206794   -3.737687   -4.482696
     82          1           0       -2.875352   -7.714263   -3.097566
     83          1           0       -3.885028   -6.866523   -1.988858
     84          1           0       -2.468584   -7.701879   -1.339362
     85          1           0       -5.116577   -5.445981    2.080571
     86          1           0       -7.653155   -3.871796    1.751244
     87          1           0       -7.581215   -5.756421    0.519169
     88          1           0       -6.255489   -7.045811    0.876437
     89          1           0       -6.290210   -5.928537   -0.354647
     90          1           0       -6.112398   -2.961472    4.085421
     91          1           0       -5.916398   -4.714921    4.129732
     92          1           0       -8.115426   -3.209880    5.006279
     93          1           0       -7.901778   -4.948870    5.174447
     94          1           0       -8.625616   -4.349868    3.704389
     95          1           0       -8.049299    0.625085    3.483647
     96          1           0       -8.928297    1.851460    2.539658
     97          1           0       -7.678878    2.370426    3.613653
     98          1           0       -3.568795    4.104094    0.860548
     99          1           0       -3.942040    7.819110   -1.659276
    100          1           0       -5.490761    7.047769   -1.405312
    101          1           0       -4.442662    6.473540   -2.725850
    102          1           0        3.518049    6.284617   -2.048081
    103          1           0        3.378591    4.535512   -1.785533
    104          1           0        4.437722    6.498164    0.240800
    105          1           0        3.022204    2.870358    1.677446
    106          1           0        4.294314    2.491224    0.431721
    107          1           0        2.752478    3.093073   -0.012659
    108          1           0        4.479119    4.206779    2.863741
    109          1           0        5.123209    5.782509    2.381353
    110          1           0        7.112938    5.060808    2.051499
    111          1           0        6.458520    3.885642    0.791043
    112          1           0        6.104512    2.885955    3.471929
    113          1           0        7.724697    3.505365    3.325812
    114          1           0        6.649441    1.633785    1.260238
    115          1           0        9.084467    3.069341    1.645267
    116          1           0        8.692444    1.997448    0.254621
    117          1           0        9.555708    1.373427    1.598286
    118          1           0        7.080782    0.772003    3.988395
    119          1           0        8.580890    0.553284    3.477115
    120          1           0        6.939638   -0.581994    1.380380
    121          1           0        6.138044   -0.935078    2.884875
    122          1           0        8.153524   -2.166847    3.777959
    123          1           0        9.173950   -1.439605    2.501005
    124          1           0        6.981741   -2.924378    1.349637
    125          1           0        7.283049   -5.185033    2.337093
    126          1           0        6.465028   -3.952058    3.258366
    127          1           0        8.106698   -4.301557    3.762360
    128          1           0        9.091642   -4.724179    1.010586
    129          1           0        9.940894   -3.268386    1.546377
    130          1           0        8.105323   -2.622558   -0.806296
    131          1           0        8.960345   -4.059821   -1.112175
    132          1           0       10.489184   -1.686901    0.118660
    133          1           0        9.927355   -1.511593   -1.528466
    134          1           0       11.332793   -4.020552   -1.374059
    135          1           0       13.329499   -3.550096   -0.165653
    136          1           0       12.853498   -1.985774    0.230567
    137          1           0       13.622289   -2.296915   -1.341146
    138          1           0       12.275701   -1.793974   -3.004752
    139          1           0       10.687086   -2.388731   -3.294789
    140          1           0       12.035912   -3.561762   -3.288903
 ---------------------------------------------------------------------

 SCF Done:  E(RPBE1PBE) =  -3005.33326347     A.U. after   15 cycles

 Excitation energies and oscillator strengths:

 Excited State   1:      Singlet-A      1.8763 eV  660.79 nm  f=0.3923  <S**2>=0.000
     245 -> 248        0.16957
     246 -> 247        0.69426
     246 <- 247       -0.11170
 This state for optimization and/or second-order correction.
 Total Energy, E(TD-HF/TD-DFT) =  -3005.26431091
 Copying the excited state density for this state as the 1-particle RhoCI density.

 Excited State   2:      Singlet-A      2.2529 eV  550.34 nm  f=0.1304  <S**2>=0.000
     245 -> 247        0.65649
     246 -> 248       -0.24020

 Excited State   3:      Singlet-A      2.8479 eV  435.35 nm  f=0.0112  <S**2>=0.000
     244 -> 247        0.69559

 Excited State   4:      Singlet-A      3.0681 eV  404.11 nm  f=0.0000  <S**2>=0.000
     242 -> 247        0.34938
     243 -> 247        0.57518

 Excited State   5:      Singlet-A      3.1009 eV  399.83 nm  f=0.0029  <S**2>=0.000
     241 -> 247        0.59470
     241 -> 249       -0.17208
     242 -> 247        0.29894
     243 -> 247       -0.12156

 The electronic state is 1-A.
 Alpha  occ. eigenvalues --  -46.92323 -19.26657 -19.25233 -19.19905 -19.19745
 Alpha  occ. eigenvalues --  -19.19429 -19.18949 -14.41738 -14.41140 -14.39147
 Alpha  occ. eigenvalues --  -14.38526 -10.36507 -10.36236 -10.32779 -10.32615
 Alpha  occ. eigenvalues --  -10.29894 -10.29458 -10.29392 -10.29000 -10.28369
 Alpha  occ. eigenvalues --  -10.28072 -10.28009 -10.27513 -10.26735 -10.26650
 Alpha  occ. eigenvalues --  -10.26610 -10.26400 -10.26082 -10.25867 -10.25787
 Alpha  occ. eigenvalues --  -10.25648 -10.25500 -10.25067 -10.24989 -10.24939
 Alpha  occ. eigenvalues --  -10.24522 -10.24504 -10.24502 -10.24472 -10.24194
 Alpha  occ. eigenvalues --  -10.24128 -10.23965 -10.23871 -10.23838 -10.23783
 Alpha  occ. eigenvalues --  -10.23574 -10.23338 -10.23174 -10.23164 -10.23155
 Alpha  occ. eigenvalues --  -10.22919 -10.22844 -10.22766 -10.22636 -10.22577
 Alpha  occ. eigenvalues --  -10.22575 -10.22475 -10.22458 -10.22290 -10.22278
 Alpha  occ. eigenvalues --  -10.22191 -10.22023 -10.21967 -10.21946 -10.21508
 Alpha  occ. eigenvalues --  -10.21376  -3.14346  -1.87174  -1.86715  -1.86568
 Alpha  occ. eigenvalues --   -1.11831  -1.11072  -1.04498  -1.04344  -1.02247
 Alpha  occ. eigenvalues --   -1.01171  -0.99142  -0.97750  -0.97060  -0.95943
 Alpha  occ. eigenvalues --   -0.86405  -0.85374  -0.83530  -0.83511  -0.83096
 Alpha  occ. eigenvalues --   -0.82803  -0.82363  -0.82031  -0.81422  -0.80314
 Alpha  occ. eigenvalues --   -0.79680  -0.79350  -0.78588  -0.78174  -0.77716
 Alpha  occ. eigenvalues --   -0.76631  -0.76401  -0.75647  -0.75099  -0.74547
 Alpha  occ. eigenvalues --   -0.73925  -0.72232  -0.71716  -0.71228  -0.70667
 Alpha  occ. eigenvalues --   -0.70355  -0.69270  -0.69109  -0.68516  -0.67939
 Alpha  occ. eigenvalues --   -0.67680  -0.67118  -0.66113  -0.64161  -0.63620
 Alpha  occ. eigenvalues --   -0.63118  -0.62769  -0.61540  -0.61363  -0.60439
 Alpha  occ. eigenvalues --   -0.59932  -0.59841  -0.59111  -0.58906  -0.58201
 Alpha  occ. eigenvalues --   -0.57574  -0.57066  -0.56955  -0.56511  -0.54375
 Alpha  occ. eigenvalues --   -0.54105  -0.54007  -0.53433  -0.52695  -0.52572
 Alpha  occ. eigenvalues --   -0.51853  -0.51819  -0.51208  -0.50735  -0.50349
 Alpha  occ. eigenvalues --   -0.49890  -0.49391  -0.49185  -0.48719  -0.48415
 Alpha  occ. eigenvalues --   -0.48256  -0.47850  -0.47601  -0.47133  -0.47082
 Alpha  occ. eigenvalues --   -0.46956  -0.46773  -0.46734  -0.46603  -0.46285
 Alpha  occ. eigenvalues --   -0.46030  -0.45913  -0.45587  -0.45446  -0.45307
 Alpha  occ. eigenvalues --   -0.45092  -0.44982  -0.44615  -0.44414  -0.44250
 Alpha  occ. eigenvalues --   -0.43938  -0.43599  -0.43522  -0.43474  -0.43217
 Alpha  occ. eigenvalues --   -0.43077  -0.43013  -0.42474  -0.42217  -0.41926
 Alpha  occ. eigenvalues --   -0.41661  -0.41550  -0.41410  -0.41227  -0.41097
 Alpha  occ. eigenvalues --   -0.40909  -0.40501  -0.40443  -0.40268  -0.40032
 Alpha  occ. eigenvalues --   -0.39847  -0.39698  -0.39433  -0.39228  -0.39187
 Alpha  occ. eigenvalues --   -0.39147  -0.39071  -0.38990  -0.38772  -0.38473
 Alpha  occ. eigenvalues --   -0.38322  -0.38157  -0.37980  -0.37787  -0.37352
 Alpha  occ. eigenvalues --   -0.37265  -0.37201  -0.37059  -0.36970  -0.36824
 Alpha  occ. eigenvalues --   -0.36695  -0.36596  -0.36410  -0.35876  -0.35764
 Alpha  occ. eigenvalues --   -0.35565  -0.35546  -0.35203  -0.34925  -0.34718
 Alpha  occ. eigenvalues --   -0.34568  -0.34510  -0.33915  -0.33609  -0.33540
 Alpha  occ. eigenvalues --   -0.33157  -0.33017  -0.32929  -0.32626  -0.32579
 Alpha  occ. eigenvalues --   -0.32183  -0.32144  -0.31966  -0.31600  -0.31058
 Alpha  occ. eigenvalues --   -0.30796  -0.30757  -0.29418  -0.29304  -0.28918
 Alpha  occ. eigenvalues --   -0.28831  -0.28617  -0.28331  -0.27143  -0.26223
 Alpha  occ. eigenvalues --   -0.26151  -0.25807  -0.25734  -0.24809  -0.21099
 Alpha  occ. eigenvalues --   -0.18997
 Alpha virt. eigenvalues --   -0.11385  -0.04974  -0.03834  -0.02071  -0.00684
 Alpha virt. eigenvalues --   -0.00580  -0.00326   0.01202   0.01769   0.03152
 Alpha virt. eigenvalues --    0.04232   0.04737   0.05051   0.05408   0.05601

 Mulliken charges:
               1
     1  Mg   0.968604
     2  C   -0.054767
     3  C   -0.046525
     4  C   -0.058487
     5  C   -0.059420
     6  N   -0.398314
     7  C    0.047370
     8  C   -0.080418
     9  C   -0.090836
    10  C    0.038170
    11  C    0.025623
    12  C   -0.005076
    13  C   -0.011288
    14  C    0.203008
    15  O   -0.273535
    16  O   -0.344509
    17  N   -0.478796
    18  C    0.143403
    19  C   -0.159961
    20  C   -0.103564
    21  C    0.192306
    22  C    0.057871
    23  C    0.068110
    24  O   -0.247327
    25  C   -0.024628
    26  N   -0.388671
    27  C    0.063571
    28  C   -0.123668
    29  C   -0.049741
    30  C    0.032943
    31  C    0.030274
    32  C   -0.016765
    33  C   -0.083747
    34  N   -0.508417
    35  C    0.130996
    36  C   -0.160443
    37  C   -0.069364
    38  C    0.201234
    39  C    0.047619
    40  C    0.192395
    41  O   -0.218580
    42  C   -0.093715
    43  C    0.280989
    44  O   -0.292587
    45  O   -0.357432
    46  C    0.122416
    47  C    0.235386
    48  C   -0.118430
    49  C   -0.233842
    50  C   -0.010459
    51  C    0.045122
    52  C   -0.026134
    53  C   -0.034267
    54  C   -0.224786
    55  C   -0.003859
    56  C    0.007121
    57  C   -0.053079
    58  C    0.001611
    59  C   -0.213444
    60  C   -0.022237
    61  C   -0.000461
    62  C   -0.050589
    63  C   -0.000137
    64  C   -0.219194
    65  C   -0.016373
    66  C   -0.053800
    67  H   -0.000308
    68  H   -0.022554
    69  H    0.004374
    70  H    0.055995
    71  H    0.057648
    72  H    0.054299
    73  H    0.047016
    74  H    0.049385
    75  H    0.036001
    76  H    0.047797
    77  H    0.058769
    78  H    0.064530
    79  H    0.073980
    80  H    0.029928
    81  H    0.057423
    82  H    0.069514
    83  H    0.057797
    84  H    0.069324
    85  H    0.050861
    86  H    0.048691
    87  H    0.029100
    88  H    0.049310
    89  H    0.012220
    90  H    0.052654
    91  H    0.046003
    92  H    0.045865
    93  H    0.043858
    94  H    0.040083
    95  H    0.034716
    96  H    0.058899
    97  H    0.060518
    98  H    0.065288
    99  H    0.067003
   100  H    0.066971
   101  H    0.068685
   102  H    0.052585
   103  H    0.064544
   104  H    0.012783
   105  H    0.048951
   106  H    0.057522
   107  H    0.038481
   108  H    0.030711
   109  H    0.031518
   110  H    0.037395
   111  H    0.045194
   112  H    0.025924
   113  H    0.023703
   114  H    0.036936
   115  H    0.033374
   116  H    0.034070
   117  H    0.036291
   118  H    0.007680
   119  H    0.017717
   120  H    0.038913
   121  H    0.037244
   122  H    0.024429
   123  H    0.033672
   124  H    0.031222
   125  H    0.041150
   126  H    0.024009
   127  H    0.040457
   128  H    0.023150
   129  H    0.027266
   130  H    0.026495
   131  H    0.029514
   132  H    0.023616
   133  H    0.019862
   134  H    0.037088
   135  H    0.032332
   136  H    0.028352
   137  H    0.035528
   138  H    0.035194
   139  H    0.030366
   140  H    0.038649
 Sum of Mulliken charges =  -0.00000

 Dipole moment (field-independent basis, Debye):
    X=              0.8605    Y=             -1.4716    Z=              2.5091  Tot=              3.0335
 Quadrupole moment (field-independent basis, Debye-Ang):
   XX=           -392.1444   YY=           -392.0578   ZZ=           -404.5301
   XY=             48.0013   XZ=              2.6992   YZ=            -19.5763

 Normal termination of Gaussian 16 at Thu Apr 28 10:09:17 2022.
