 Gaussian 16, Revision A.03,
 Gaussian 16:  ES64L-G16RevA.03 25-Dec-2016

 --------------------------------
 #p wB97XD/Def2SVP td=(nstates=5)
 --------------------------------

 ----------------------------------------------------
 step_151_chromophore_23 TDDFT with wB97XD functional
 ----------------------------------------------------
 Symbolic Z-matrix:
 Charge =  0 Multiplicity = 1

                         Standard orientation:
 ---------------------------------------------------------------------
 Center     Atomic      Atomic             Coordinates (Angstroms)
 Number     Number       Type             X           Y           Z
 ---------------------------------------------------------------------
      1         12           0       -4.311300   -1.158077   -0.627961
      2          6           0       -4.023230    2.244564   -0.043371
      3          6           0       -1.282539   -1.010906   -2.422059
      4          6           0       -3.877086   -4.532747   -0.411520
      5          6           0       -6.793497   -1.378312    1.859574
      6          7           0       -2.903053    0.450378   -1.274655
      7          6           0       -3.013533    1.778248   -0.918778
      8          6           0       -1.873691    2.660231   -1.586793
      9          6           0       -1.203891    1.577718   -2.592266
     10          6           0       -1.801778    0.224667   -2.108885
     11          6           0       -1.572817    1.759657   -4.018283
     12          6           0       -0.887490    3.270150   -0.505749
     13          6           0       -0.370035    4.676708   -0.673744
     14          6           0        0.930041    4.766788   -1.525552
     15          8           0        1.247372    4.096734   -2.492952
     16          8           0        1.747307    5.712520   -1.047882
     17          7           0       -2.889373   -2.558781   -1.401485
     18          6           0       -1.752230   -2.308860   -2.153005
     19          6           0       -1.265307   -3.480998   -2.717266
     20          6           0       -2.019081   -4.556630   -2.153616
     21          6           0       -3.017529   -3.925033   -1.301801
     22          6           0        0.099643   -3.610521   -3.444404
     23          6           0       -1.817187   -6.076244   -2.466361
     24          8           0       -0.832374   -6.362699   -3.143082
     25          6           0       -2.843451   -7.121895   -2.182773
     26          7           0       -5.113656   -2.726106    0.704324
     27          6           0       -4.834096   -4.052178    0.473738
     28          6           0       -5.773840   -4.892698    1.410623
     29          6           0       -6.642020   -3.862825    2.157862
     30          6           0       -6.187921   -2.551636    1.522650
     31          6           0       -6.537062   -6.007522    0.703826
     32          6           0       -6.538764   -3.905511    3.746922
     33          6           0       -7.876161   -4.123998    4.462760
     34          7           0       -5.451529    0.135153    0.436533
     35          6           0       -6.377953   -0.060261    1.414947
     36          6           0       -6.856182    1.255175    1.824042
     37          6           0       -5.962262    2.155319    1.262992
     38          6           0       -5.075405    1.448130    0.513370
     39          6           0       -7.956097    1.561797    2.936119
     40          6           0       -5.732797    3.583807    1.213192
     41          8           0       -6.286220    4.588735    1.660609
     42          6           0       -4.437879    3.737977    0.312887
     43          6           0       -4.629541    4.627387   -0.869228
     44          8           0       -5.346190    4.294257   -1.840119
     45          8           0       -3.987771    5.812588   -0.759551
     46          6           0       -4.460488    6.860843   -1.707031
     47          6           0        3.194406    5.515846   -1.346338
     48          6           0        3.956818    5.549124    0.004490
     49          6           0        4.120695    4.602317    0.927962
     50          6           0        3.517796    3.182918    0.758813
     51          6           0        5.026306    4.737952    2.085566
     52          6           0        6.438661    4.236367    1.822899
     53          6           0        6.900648    3.079360    2.753067
     54          6           0        7.393206    1.795435    2.040044
     55          6           0        8.761305    2.074361    1.339323
     56          6           0        7.585459    0.605057    3.036268
     57          6           0        7.118841   -0.765521    2.440387
     58          6           0        8.184553   -1.829180    2.741984
     59          6           0        7.872671   -3.135173    1.940748
     60          6           0        7.445209   -4.262732    2.896652
     61          6           0        9.038529   -3.636330    1.057743
     62          6           0        9.006652   -3.156164   -0.503938
     63          6           0       10.248262   -2.243168   -0.787415
     64          6           0       11.486309   -2.943436   -1.298420
     65          6           0       12.888975   -2.664059   -0.622839
     66          6           0       11.635191   -2.658110   -2.829677
     67          1           0       -0.451788   -1.012327   -3.131248
     68          1           0       -3.929317   -5.621430   -0.485877
     69          1           0       -7.608098   -1.464868    2.582481
     70          1           0       -2.345762    3.495774   -2.103889
     71          1           0       -0.154531    1.379783   -2.375141
     72          1           0       -2.169312    2.602544   -4.366801
     73          1           0       -1.979948    0.862567   -4.483931
     74          1           0       -0.580160    1.899272   -4.446135
     75          1           0        0.022800    2.683112   -0.635872
     76          1           0       -1.138925    3.090450    0.538822
     77          1           0       -0.216249    5.155664    0.293317
     78          1           0       -1.178883    5.214280   -1.169473
     79          1           0        0.724906   -4.381838   -2.993538
     80          1           0        0.724600   -2.718264   -3.404628
     81          1           0       -0.206794   -3.737687   -4.482696
     82          1           0       -2.875352   -7.714263   -3.097566
     83          1           0       -3.885028   -6.866523   -1.988858
     84          1           0       -2.468584   -7.701879   -1.339362
     85          1           0       -5.116577   -5.445981    2.080571
     86          1           0       -7.653155   -3.871796    1.751244
     87          1           0       -7.581215   -5.756421    0.519169
     88          1           0       -6.255489   -7.045811    0.876437
     89          1           0       -6.290210   -5.928537   -0.354647
     90          1           0       -6.112398   -2.961472    4.085421
     91          1           0       -5.916398   -4.714921    4.129732
     92          1           0       -8.115426   -3.209880    5.006279
     93          1           0       -7.901778   -4.948870    5.174447
     94          1           0       -8.625616   -4.349868    3.704389
     95          1           0       -8.049299    0.625085    3.483647
     96          1           0       -8.928297    1.851460    2.539658
     97          1           0       -7.678878    2.370426    3.613653
     98          1           0       -3.568795    4.104094    0.860548
     99          1           0       -3.942040    7.819110   -1.659276
    100          1           0       -5.490761    7.047769   -1.405312
    101          1           0       -4.442662    6.473540   -2.725850
    102          1           0        3.518049    6.284617   -2.048081
    103          1           0        3.378591    4.535512   -1.785533
    104          1           0        4.437722    6.498164    0.240800
    105          1           0        3.022204    2.870358    1.677446
    106          1           0        4.294314    2.491224    0.431721
    107          1           0        2.752478    3.093073   -0.012659
    108          1           0        4.479119    4.206779    2.863741
    109          1           0        5.123209    5.782509    2.381353
    110          1           0        7.112938    5.060808    2.051499
    111          1           0        6.458520    3.885642    0.791043
    112          1           0        6.104512    2.885955    3.471929
    113          1           0        7.724697    3.505365    3.325812
    114          1           0        6.649441    1.633785    1.260238
    115          1           0        9.084467    3.069341    1.645267
    116          1           0        8.692444    1.997448    0.254621
    117          1           0        9.555708    1.373427    1.598286
    118          1           0        7.080782    0.772003    3.988395
    119          1           0        8.580890    0.553284    3.477115
    120          1           0        6.939638   -0.581994    1.380380
    121          1           0        6.138044   -0.935078    2.884875
    122          1           0        8.153524   -2.166847    3.777959
    123          1           0        9.173950   -1.439605    2.501005
    124          1           0        6.981741   -2.924378    1.349637
    125          1           0        7.283049   -5.185033    2.337093
    126          1           0        6.465028   -3.952058    3.258366
    127          1           0        8.106698   -4.301557    3.762360
    128          1           0        9.091642   -4.724179    1.010586
    129          1           0        9.940894   -3.268386    1.546377
    130          1           0        8.105323   -2.622558   -0.806296
    131          1           0        8.960345   -4.059821   -1.112175
    132          1           0       10.489184   -1.686901    0.118660
    133          1           0        9.927355   -1.511593   -1.528466
    134          1           0       11.332793   -4.020552   -1.374059
    135          1           0       13.329499   -3.550096   -0.165653
    136          1           0       12.853498   -1.985774    0.230567
    137          1           0       13.622289   -2.296915   -1.341146
    138          1           0       12.275701   -1.793974   -3.004752
    139          1           0       10.687086   -2.388731   -3.294789
    140          1           0       12.035912   -3.561762   -3.288903
 ---------------------------------------------------------------------

 SCF Done:  E(RwB97XD) =  -3007.84399343     A.U. after   19 cycles

 Excitation energies and oscillator strengths:

 Excited State   1:      Singlet-A      1.6493 eV  751.76 nm  f=0.4016  <S**2>=0.000
     245 -> 248        0.18218
     246 -> 247        0.68477
     245 <- 248        0.11712
 This state for optimization and/or second-order correction.
 Total Energy, E(TD-HF/TD-DFT) =  -3007.78338448
 Copying the excited state density for this state as the 1-particle RhoCI density.

 Excited State   2:      Singlet-A      2.1850 eV  567.43 nm  f=0.1390  <S**2>=0.000
     245 -> 247        0.64710
     246 -> 248       -0.26505

 Excited State   3:      Singlet-A      3.1864 eV  389.10 nm  f=0.0073  <S**2>=0.000
     244 -> 247        0.68292

 Excited State   4:      Singlet-A      3.4674 eV  357.57 nm  f=0.0063  <S**2>=0.000
     243 -> 247        0.65594
     246 -> 248        0.15535

 Excited State   5:      Singlet-A      3.6249 eV  342.04 nm  f=0.0007  <S**2>=0.000
     241 -> 247        0.52544
     241 -> 248        0.15535
     241 -> 249        0.28071
     241 -> 250       -0.28447

 The electronic state is 1-A.
 Alpha  occ. eigenvalues --  -46.95262 -19.31241 -19.29784 -19.24560 -19.24531
 Alpha  occ. eigenvalues --  -19.24145 -19.23836 -14.46870 -14.46173 -14.44017
 Alpha  occ. eigenvalues --  -14.43518 -10.43354 -10.43017 -10.39630 -10.39508
 Alpha  occ. eigenvalues --  -10.36399 -10.35988 -10.35613 -10.35394 -10.34721
 Alpha  occ. eigenvalues --  -10.34237 -10.34215 -10.34016 -10.33059 -10.32989
 Alpha  occ. eigenvalues --  -10.32855 -10.32718 -10.32484 -10.32114 -10.32047
 Alpha  occ. eigenvalues --  -10.31823 -10.31774 -10.31550 -10.31379 -10.31357
 Alpha  occ. eigenvalues --  -10.30912 -10.30840 -10.30824 -10.30772 -10.30619
 Alpha  occ. eigenvalues --  -10.30608 -10.30485 -10.30238 -10.30230 -10.30206
 Alpha  occ. eigenvalues --  -10.29968 -10.29692 -10.29528 -10.29514 -10.29445
 Alpha  occ. eigenvalues --  -10.29386 -10.29278 -10.29121 -10.29014 -10.28856
 Alpha  occ. eigenvalues --  -10.28833 -10.28827 -10.28816 -10.28684 -10.28639
 Alpha  occ. eigenvalues --  -10.28535 -10.28388 -10.28387 -10.28366 -10.27950
 Alpha  occ. eigenvalues --  -10.27801  -3.21163  -1.94738  -1.94278  -1.94128
 Alpha  occ. eigenvalues --   -1.19193  -1.18484  -1.12054  -1.11810  -1.09581
 Alpha  occ. eigenvalues --   -1.08569  -1.06403  -1.05150  -1.04499  -1.03386
 Alpha  occ. eigenvalues --   -0.93989  -0.93028  -0.91201  -0.91116  -0.90743
 Alpha  occ. eigenvalues --   -0.90388  -0.90028  -0.89629  -0.89084  -0.87927
 Alpha  occ. eigenvalues --   -0.87262  -0.87044  -0.86248  -0.85765  -0.85380
 Alpha  occ. eigenvalues --   -0.84362  -0.84101  -0.83283  -0.82750  -0.82185
 Alpha  occ. eigenvalues --   -0.81585  -0.79819  -0.79337  -0.78904  -0.78294
 Alpha  occ. eigenvalues --   -0.78031  -0.76881  -0.76811  -0.76198  -0.75615
 Alpha  occ. eigenvalues --   -0.75268  -0.74648  -0.73644  -0.71777  -0.71110
 Alpha  occ. eigenvalues --   -0.70692  -0.70399  -0.69150  -0.68987  -0.67932
 Alpha  occ. eigenvalues --   -0.67575  -0.67323  -0.66600  -0.66359  -0.65853
 Alpha  occ. eigenvalues --   -0.65021  -0.64716  -0.64339  -0.64165  -0.61858
 Alpha  occ. eigenvalues --   -0.61550  -0.61433  -0.60844  -0.60110  -0.59973
 Alpha  occ. eigenvalues --   -0.59384  -0.59257  -0.58749  -0.58173  -0.57740
 Alpha  occ. eigenvalues --   -0.57240  -0.56799  -0.56609  -0.56083  -0.55856
 Alpha  occ. eigenvalues --   -0.55707  -0.55194  -0.54964  -0.54546  -0.54434
 Alpha  occ. eigenvalues --   -0.54348  -0.54181  -0.54102  -0.53963  -0.53666
 Alpha  occ. eigenvalues --   -0.53357  -0.53268  -0.52978  -0.52777  -0.52621
 Alpha  occ. eigenvalues --   -0.52477  -0.52325  -0.51961  -0.51733  -0.51511
 Alpha  occ. eigenvalues --   -0.51154  -0.50959  -0.50870  -0.50833  -0.50484
 Alpha  occ. eigenvalues --   -0.50334  -0.50280  -0.49747  -0.49492  -0.49284
 Alpha  occ. eigenvalues --   -0.48915  -0.48780  -0.48527  -0.48406  -0.48358
 Alpha  occ. eigenvalues --   -0.48130  -0.47717  -0.47652  -0.47472  -0.47260
 Alpha  occ. eigenvalues --   -0.47059  -0.46888  -0.46672  -0.46446  -0.46404
 Alpha  occ. eigenvalues --   -0.46340  -0.46228  -0.46183  -0.45956  -0.45630
 Alpha  occ. eigenvalues --   -0.45489  -0.45316  -0.45157  -0.44959  -0.44471
 Alpha  occ. eigenvalues --   -0.44316  -0.44286  -0.44170  -0.44139  -0.43926
 Alpha  occ. eigenvalues --   -0.43806  -0.43744  -0.43557  -0.43006  -0.42778
 Alpha  occ. eigenvalues --   -0.42680  -0.42537  -0.42216  -0.42002  -0.41750
 Alpha  occ. eigenvalues --   -0.41661  -0.41465  -0.40946  -0.40614  -0.40471
 Alpha  occ. eigenvalues --   -0.40173  -0.40046  -0.39925  -0.39635  -0.39554
 Alpha  occ. eigenvalues --   -0.39223  -0.39204  -0.39028  -0.38699  -0.38070
 Alpha  occ. eigenvalues --   -0.37827  -0.37702  -0.36394  -0.36128  -0.35817
 Alpha  occ. eigenvalues --   -0.35744  -0.35509  -0.35216  -0.33741  -0.33227
 Alpha  occ. eigenvalues --   -0.32997  -0.32949  -0.32243  -0.31489  -0.26063
 Alpha  occ. eigenvalues --   -0.23179
 Alpha virt. eigenvalues --   -0.07323   0.00500   0.02508   0.04434   0.05285
 Alpha virt. eigenvalues --    0.06131   0.06414   0.07951   0.08560   0.09876
 Alpha virt. eigenvalues --    0.10663   0.11499   0.11727   0.12065   0.12180

 Mulliken charges:
               1
     1  Mg   0.961692
     2  C   -0.061173
     3  C   -0.063267
     4  C   -0.070875
     5  C   -0.078251
     6  N   -0.366654
     7  C    0.017902
     8  C   -0.058049
     9  C   -0.059594
    10  C    0.027796
    11  C    0.029488
    12  C    0.009061
    13  C    0.006690
    14  C    0.189006
    15  O   -0.269854
    16  O   -0.344105
    17  N   -0.448047
    18  C    0.138487
    19  C   -0.153736
    20  C   -0.098872
    21  C    0.190998
    22  C    0.070835
    23  C    0.063806
    24  O   -0.242334
    25  C   -0.014145
    26  N   -0.356526
    27  C    0.053751
    28  C   -0.099158
    29  C   -0.022917
    30  C    0.022695
    31  C    0.040603
    32  C   -0.004156
    33  C   -0.067133
    34  N   -0.474886
    35  C    0.125397
    36  C   -0.168384
    37  C   -0.060909
    38  C    0.186682
    39  C    0.063014
    40  C    0.175975
    41  O   -0.208835
    42  C   -0.052632
    43  C    0.254966
    44  O   -0.287153
    45  O   -0.355389
    46  C    0.138008
    47  C    0.254145
    48  C   -0.132236
    49  C   -0.215666
    50  C    0.007392
    51  C    0.061892
    52  C   -0.011243
    53  C   -0.018139
    54  C   -0.187129
    55  C    0.005524
    56  C    0.018069
    57  C   -0.034254
    58  C    0.017327
    59  C   -0.185639
    60  C   -0.005990
    61  C    0.015290
    62  C   -0.038300
    63  C    0.023372
    64  C   -0.196187
    65  C   -0.003859
    66  C   -0.038912
    67  H   -0.007265
    68  H   -0.038559
    69  H   -0.002852
    70  H    0.041373
    71  H    0.048561
    72  H    0.050858
    73  H    0.040059
    74  H    0.044608
    75  H    0.021433
    76  H    0.041472
    77  H    0.055299
    78  H    0.055767
    79  H    0.070404
    80  H    0.025470
    81  H    0.052676
    82  H    0.067878
    83  H    0.053568
    84  H    0.066628
    85  H    0.040799
    86  H    0.034918
    87  H    0.024299
    88  H    0.045913
    89  H    0.002166
    90  H    0.044432
    91  H    0.038558
    92  H    0.040121
    93  H    0.038788
    94  H    0.032482
    95  H    0.026834
    96  H    0.053943
    97  H    0.055979
    98  H    0.056205
    99  H    0.064333
   100  H    0.062664
   101  H    0.064737
   102  H    0.050243
   103  H    0.058207
   104  H    0.009457
   105  H    0.044044
   106  H    0.050690
   107  H    0.026752
   108  H    0.020928
   109  H    0.025602
   110  H    0.031438
   111  H    0.032415
   112  H    0.015578
   113  H    0.014051
   114  H    0.018914
   115  H    0.026249
   116  H    0.029239
   117  H    0.029770
   118  H    0.000010
   119  H    0.008311
   120  H    0.027155
   121  H    0.029847
   122  H    0.015242
   123  H    0.021554
   124  H    0.017604
   125  H    0.035268
   126  H    0.016558
   127  H    0.033553
   128  H    0.015877
   129  H    0.015089
   130  H    0.019421
   131  H    0.021760
   132  H    0.009908
   133  H    0.011168
   134  H    0.025234
   135  H    0.026726
   136  H    0.022550
   137  H    0.029376
   138  H    0.027883
   139  H    0.023164
   140  H    0.033342
 Sum of Mulliken charges =  -0.00000

 Dipole moment (field-independent basis, Debye):
    X=              0.9786    Y=             -1.5933    Z=              2.3326  Tot=              2.9895
 Quadrupole moment (field-independent basis, Debye-Ang):
   XX=           -393.1916   YY=           -390.2364   ZZ=           -404.1626
   XY=             47.9058   XZ=              3.3546   YZ=            -19.0568

 Normal termination of Gaussian 16 at Thu Apr 28 10:42:30 2022.
