 Gaussian 16, Revision A.03,
 Gaussian 16:  ES64L-G16RevA.03 25-Dec-2016

 --------------------
 #p ZINDO=(nstates=5)
 --------------------

 -----------------------------
 step_151_chromophore_23 ZINDO
 -----------------------------
 Symbolic Z-matrix:
 Charge =  0 Multiplicity = 1

                         Standard orientation:
 ---------------------------------------------------------------------
 Center     Atomic      Atomic             Coordinates (Angstroms)
 Number     Number       Type             X           Y           Z
 ---------------------------------------------------------------------
      1         12           0       -4.311300   -1.158077   -0.627961
      2          6           0       -4.023230    2.244564   -0.043371
      3          6           0       -1.282539   -1.010906   -2.422059
      4          6           0       -3.877086   -4.532747   -0.411520
      5          6           0       -6.793497   -1.378312    1.859574
      6          7           0       -2.903053    0.450378   -1.274655
      7          6           0       -3.013533    1.778248   -0.918778
      8          6           0       -1.873691    2.660231   -1.586793
      9          6           0       -1.203891    1.577718   -2.592266
     10          6           0       -1.801778    0.224667   -2.108885
     11          6           0       -1.572817    1.759657   -4.018283
     12          6           0       -0.887490    3.270150   -0.505749
     13          6           0       -0.370035    4.676708   -0.673744
     14          6           0        0.930041    4.766788   -1.525552
     15          8           0        1.247372    4.096734   -2.492952
     16          8           0        1.747307    5.712520   -1.047882
     17          7           0       -2.889373   -2.558781   -1.401485
     18          6           0       -1.752230   -2.308860   -2.153005
     19          6           0       -1.265307   -3.480998   -2.717266
     20          6           0       -2.019081   -4.556630   -2.153616
     21          6           0       -3.017529   -3.925033   -1.301801
     22          6           0        0.099643   -3.610521   -3.444404
     23          6           0       -1.817187   -6.076244   -2.466361
     24          8           0       -0.832374   -6.362699   -3.143082
     25          6           0       -2.843451   -7.121895   -2.182773
     26          7           0       -5.113656   -2.726106    0.704324
     27          6           0       -4.834096   -4.052178    0.473738
     28          6           0       -5.773840   -4.892698    1.410623
     29          6           0       -6.642020   -3.862825    2.157862
     30          6           0       -6.187921   -2.551636    1.522650
     31          6           0       -6.537062   -6.007522    0.703826
     32          6           0       -6.538764   -3.905511    3.746922
     33          6           0       -7.876161   -4.123998    4.462760
     34          7           0       -5.451529    0.135153    0.436533
     35          6           0       -6.377953   -0.060261    1.414947
     36          6           0       -6.856182    1.255175    1.824042
     37          6           0       -5.962262    2.155319    1.262992
     38          6           0       -5.075405    1.448130    0.513370
     39          6           0       -7.956097    1.561797    2.936119
     40          6           0       -5.732797    3.583807    1.213192
     41          8           0       -6.286220    4.588735    1.660609
     42          6           0       -4.437879    3.737977    0.312887
     43          6           0       -4.629541    4.627387   -0.869228
     44          8           0       -5.346190    4.294257   -1.840119
     45          8           0       -3.987771    5.812588   -0.759551
     46          6           0       -4.460488    6.860843   -1.707031
     47          6           0        3.194406    5.515846   -1.346338
     48          6           0        3.956818    5.549124    0.004490
     49          6           0        4.120695    4.602317    0.927962
     50          6           0        3.517796    3.182918    0.758813
     51          6           0        5.026306    4.737952    2.085566
     52          6           0        6.438661    4.236367    1.822899
     53          6           0        6.900648    3.079360    2.753067
     54          6           0        7.393206    1.795435    2.040044
     55          6           0        8.761305    2.074361    1.339323
     56          6           0        7.585459    0.605057    3.036268
     57          6           0        7.118841   -0.765521    2.440387
     58          6           0        8.184553   -1.829180    2.741984
     59          6           0        7.872671   -3.135173    1.940748
     60          6           0        7.445209   -4.262732    2.896652
     61          6           0        9.038529   -3.636330    1.057743
     62          6           0        9.006652   -3.156164   -0.503938
     63          6           0       10.248262   -2.243168   -0.787415
     64          6           0       11.486309   -2.943436   -1.298420
     65          6           0       12.888975   -2.664059   -0.622839
     66          6           0       11.635191   -2.658110   -2.829677
     67          1           0       -0.451788   -1.012327   -3.131248
     68          1           0       -3.929317   -5.621430   -0.485877
     69          1           0       -7.608098   -1.464868    2.582481
     70          1           0       -2.345762    3.495774   -2.103889
     71          1           0       -0.154531    1.379783   -2.375141
     72          1           0       -2.169312    2.602544   -4.366801
     73          1           0       -1.979948    0.862567   -4.483931
     74          1           0       -0.580160    1.899272   -4.446135
     75          1           0        0.022800    2.683112   -0.635872
     76          1           0       -1.138925    3.090450    0.538822
     77          1           0       -0.216249    5.155664    0.293317
     78          1           0       -1.178883    5.214280   -1.169473
     79          1           0        0.724906   -4.381838   -2.993538
     80          1           0        0.724600   -2.718264   -3.404628
     81          1           0       -0.206794   -3.737687   -4.482696
     82          1           0       -2.875352   -7.714263   -3.097566
     83          1           0       -3.885028   -6.866523   -1.988858
     84          1           0       -2.468584   -7.701879   -1.339362
     85          1           0       -5.116577   -5.445981    2.080571
     86          1           0       -7.653155   -3.871796    1.751244
     87          1           0       -7.581215   -5.756421    0.519169
     88          1           0       -6.255489   -7.045811    0.876437
     89          1           0       -6.290210   -5.928537   -0.354647
     90          1           0       -6.112398   -2.961472    4.085421
     91          1           0       -5.916398   -4.714921    4.129732
     92          1           0       -8.115426   -3.209880    5.006279
     93          1           0       -7.901778   -4.948870    5.174447
     94          1           0       -8.625616   -4.349868    3.704389
     95          1           0       -8.049299    0.625085    3.483647
     96          1           0       -8.928297    1.851460    2.539658
     97          1           0       -7.678878    2.370426    3.613653
     98          1           0       -3.568795    4.104094    0.860548
     99          1           0       -3.942040    7.819110   -1.659276
    100          1           0       -5.490761    7.047769   -1.405312
    101          1           0       -4.442662    6.473540   -2.725850
    102          1           0        3.518049    6.284617   -2.048081
    103          1           0        3.378591    4.535512   -1.785533
    104          1           0        4.437722    6.498164    0.240800
    105          1           0        3.022204    2.870358    1.677446
    106          1           0        4.294314    2.491224    0.431721
    107          1           0        2.752478    3.093073   -0.012659
    108          1           0        4.479119    4.206779    2.863741
    109          1           0        5.123209    5.782509    2.381353
    110          1           0        7.112938    5.060808    2.051499
    111          1           0        6.458520    3.885642    0.791043
    112          1           0        6.104512    2.885955    3.471929
    113          1           0        7.724697    3.505365    3.325812
    114          1           0        6.649441    1.633785    1.260238
    115          1           0        9.084467    3.069341    1.645267
    116          1           0        8.692444    1.997448    0.254621
    117          1           0        9.555708    1.373427    1.598286
    118          1           0        7.080782    0.772003    3.988395
    119          1           0        8.580890    0.553284    3.477115
    120          1           0        6.939638   -0.581994    1.380380
    121          1           0        6.138044   -0.935078    2.884875
    122          1           0        8.153524   -2.166847    3.777959
    123          1           0        9.173950   -1.439605    2.501005
    124          1           0        6.981741   -2.924378    1.349637
    125          1           0        7.283049   -5.185033    2.337093
    126          1           0        6.465028   -3.952058    3.258366
    127          1           0        8.106698   -4.301557    3.762360
    128          1           0        9.091642   -4.724179    1.010586
    129          1           0        9.940894   -3.268386    1.546377
    130          1           0        8.105323   -2.622558   -0.806296
    131          1           0        8.960345   -4.059821   -1.112175
    132          1           0       10.489184   -1.686901    0.118660
    133          1           0        9.927355   -1.511593   -1.528466
    134          1           0       11.332793   -4.020552   -1.374059
    135          1           0       13.329499   -3.550096   -0.165653
    136          1           0       12.853498   -1.985774    0.230567
    137          1           0       13.622289   -2.296915   -1.341146
    138          1           0       12.275701   -1.793974   -3.004752
    139          1           0       10.687086   -2.388731   -3.294789
    140          1           0       12.035912   -3.561762   -3.288903
 ---------------------------------------------------------------------

 SCF Done:  E(RZINDO/S) =  -474.071820408     A.U. after   19 cycles

 Excitation energies and oscillator strengths:

 Excited State   1:      Singlet-A      1.2286 eV 1009.14 nm  f=0.6362  <S**2>=0.000
     175 ->178        -0.18209
     176 ->177         0.66514
 This state for optimization and/or second-order correction.
 Total Energy, E(CIS/TDA) =  -474.026669927
 Copying the excited state density for this state as the 1-particle RhoCI density.

 Excited State   2:      Singlet-A      1.9311 eV  642.06 nm  f=0.0705  <S**2>=0.000
     175 ->177         0.56432
     176 ->178         0.39602

 Excited State   3:      Singlet-A      2.9504 eV  420.23 nm  f=0.0190  <S**2>=0.000
     168 ->177         0.29089
     168 ->178        -0.18272
     168 ->179        -0.33945
     168 ->180        -0.25162
     168 ->181         0.22335
     168 ->185        -0.22341
     168 ->187        -0.11389

 Excited State   4:      Singlet-A      3.0133 eV  411.45 nm  f=0.7053  <S**2>=0.000
     169 ->179         0.11575
     175 ->177        -0.30250
     176 ->178         0.42352
     176 ->179        -0.32388
     176 ->180         0.11820

 Excited State   5:      Singlet-A      3.0504 eV  406.45 nm  f=0.2196  <S**2>=0.000
     169 ->177         0.26577
     169 ->179         0.34202
     169 ->180        -0.18244
     169 ->181         0.16613
     169 ->183        -0.14461
     169 ->185         0.15779
     175 ->177         0.15910
     176 ->178        -0.26005
     176 ->179        -0.12862

 The electronic state is 1-A.
 Alpha  occ. eigenvalues --   -1.84412  -1.80922  -1.78055  -1.74722  -1.71617
 Alpha  occ. eigenvalues --   -1.69808  -1.64458  -1.60812  -1.59255  -1.57579
 Alpha  occ. eigenvalues --   -1.55431  -1.51421  -1.48856  -1.46978  -1.46642
 Alpha  occ. eigenvalues --   -1.42774  -1.41821  -1.40282  -1.38733  -1.37924
 Alpha  occ. eigenvalues --   -1.36459  -1.32114  -1.31551  -1.30088  -1.28481
 Alpha  occ. eigenvalues --   -1.27469  -1.27050  -1.22950  -1.20371  -1.18031
 Alpha  occ. eigenvalues --   -1.16321  -1.15255  -1.15128  -1.13838  -1.12863
 Alpha  occ. eigenvalues --   -1.12098  -1.09870  -1.09618  -1.04504  -1.03975
 Alpha  occ. eigenvalues --   -1.02398  -1.00736  -0.99221  -0.97904  -0.96709
 Alpha  occ. eigenvalues --   -0.96412  -0.94899  -0.94694  -0.93557  -0.92798
 Alpha  occ. eigenvalues --   -0.90707  -0.89771  -0.89159  -0.88053  -0.86868
 Alpha  occ. eigenvalues --   -0.85849  -0.83980  -0.82622  -0.81595  -0.80568
 Alpha  occ. eigenvalues --   -0.80243  -0.78859  -0.77228  -0.76535  -0.76395
 Alpha  occ. eigenvalues --   -0.75791  -0.75437  -0.74787  -0.74292  -0.73827
 Alpha  occ. eigenvalues --   -0.73452  -0.72877  -0.72009  -0.71734  -0.71302
 Alpha  occ. eigenvalues --   -0.70658  -0.70191  -0.69262  -0.68902  -0.68685
 Alpha  occ. eigenvalues --   -0.67788  -0.67054  -0.66355  -0.66100  -0.65490
 Alpha  occ. eigenvalues --   -0.65334  -0.65117  -0.64169  -0.64106  -0.63882
 Alpha  occ. eigenvalues --   -0.63581  -0.62978  -0.62293  -0.62123  -0.61562
 Alpha  occ. eigenvalues --   -0.61233  -0.60768  -0.60664  -0.60207  -0.59958
 Alpha  occ. eigenvalues --   -0.59694  -0.58673  -0.58434  -0.58113  -0.57881
 Alpha  occ. eigenvalues --   -0.57569  -0.57377  -0.57312  -0.56763  -0.56559
 Alpha  occ. eigenvalues --   -0.56024  -0.55790  -0.55672  -0.55152  -0.54701
 Alpha  occ. eigenvalues --   -0.54437  -0.54328  -0.53779  -0.53171  -0.52498
 Alpha  occ. eigenvalues --   -0.52465  -0.52089  -0.51958  -0.51619  -0.51596
 Alpha  occ. eigenvalues --   -0.51296  -0.50902  -0.50709  -0.50002  -0.49920
 Alpha  occ. eigenvalues --   -0.49858  -0.49674  -0.49364  -0.49146  -0.48514
 Alpha  occ. eigenvalues --   -0.48292  -0.47939  -0.47835  -0.47716  -0.47447
 Alpha  occ. eigenvalues --   -0.47371  -0.47030  -0.46701  -0.46646  -0.46577
 Alpha  occ. eigenvalues --   -0.46409  -0.45980  -0.45748  -0.45563  -0.45510
 Alpha  occ. eigenvalues --   -0.45406  -0.45211  -0.44987  -0.44806  -0.44478
 Alpha  occ. eigenvalues --   -0.43637  -0.43403  -0.42485  -0.42315  -0.41699
 Alpha  occ. eigenvalues --   -0.41605  -0.41545  -0.41384  -0.39210  -0.38951
 Alpha  occ. eigenvalues --   -0.38126  -0.37310  -0.35744  -0.35273  -0.34625
 Alpha  occ. eigenvalues --   -0.33192  -0.33038  -0.32940  -0.32294  -0.26882
 Alpha  occ. eigenvalues --   -0.21920
 Alpha virt. eigenvalues --   -0.08938  -0.01961  -0.00428   0.01221   0.01404
 Alpha virt. eigenvalues --    0.02031   0.02337   0.03056   0.04391   0.04872
 Alpha virt. eigenvalues --    0.05990   0.07089   0.07288   0.07849   0.08055

 Mulliken charges:
               1
     1  Mg   0.428919
     2  C   -0.058127
     3  C   -0.069398
     4  C   -0.074918
     5  C   -0.072725
     6  N   -0.293792
     7  C    0.116358
     8  C    0.003584
     9  C    0.019087
    10  C    0.145367
    11  C   -0.041861
    12  C   -0.029953
    13  C    0.010605
    14  C    0.474739
    15  O   -0.531743
    16  O   -0.266532
    17  N   -0.346702
    18  C    0.132653
    19  C    0.032531
    20  C   -0.047977
    21  C    0.144861
    22  C   -0.040217
    23  C    0.331057
    24  O   -0.518970
    25  C   -0.026856
    26  N   -0.284723
    27  C    0.143098
    28  C    0.013288
    29  C   -0.001874
    30  C    0.120038
    31  C   -0.070138
    32  C   -0.027291
    33  C   -0.059390
    34  N   -0.312189
    35  C    0.096437
    36  C   -0.004869
    37  C   -0.029625
    38  C    0.117637
    39  C   -0.047480
    40  C    0.338355
    41  O   -0.518141
    42  C    0.048655
    43  C    0.493652
    44  O   -0.539598
    45  O   -0.262522
    46  C    0.074173
    47  C    0.105141
    48  C   -0.098125
    49  C    0.009785
    50  C   -0.049955
    51  C   -0.014037
    52  C   -0.031354
    53  C   -0.039571
    54  C   -0.008031
    55  C   -0.060179
    56  C   -0.045400
    57  C   -0.034620
    58  C   -0.030998
    59  C   -0.019258
    60  C   -0.059495
    61  C   -0.040123
    62  C   -0.045598
    63  C   -0.022778
    64  C   -0.011929
    65  C   -0.058641
    66  C   -0.061710
    67  H    0.023841
    68  H    0.016794
    69  H    0.029060
    70  H    0.042525
    71  H    0.045223
    72  H    0.034357
    73  H    0.022963
    74  H    0.015651
    75  H    0.017250
    76  H    0.028157
    77  H    0.037448
    78  H    0.044872
    79  H    0.045187
    80  H    0.016783
    81  H    0.040134
    82  H    0.039872
    83  H    0.032138
    84  H    0.045157
    85  H    0.027068
    86  H    0.038000
    87  H    0.031693
    88  H    0.035979
    89  H    0.004233
    90  H    0.026327
    91  H    0.022337
    92  H    0.020714
    93  H    0.020338
    94  H    0.018461
    95  H    0.017823
    96  H    0.035223
    97  H    0.033042
    98  H    0.041991
    99  H    0.038391
   100  H    0.044094
   101  H    0.049146
   102  H    0.045292
   103  H    0.053680
   104  H    0.019896
   105  H    0.023974
   106  H    0.030412
   107  H    0.019977
   108  H    0.022865
   109  H    0.017520
   110  H    0.023599
   111  H    0.028242
   112  H    0.015817
   113  H    0.012808
   114  H    0.026223
   115  H    0.020379
   116  H    0.016207
   117  H    0.018217
   118  H    0.006608
   119  H    0.020315
   120  H    0.023854
   121  H    0.022041
   122  H    0.024600
   123  H    0.026054
   124  H    0.018681
   125  H    0.021803
   126  H    0.006157
   127  H    0.026509
   128  H    0.018251
   129  H    0.021338
   130  H    0.020196
   131  H    0.020233
   132  H    0.016787
   133  H    0.014537
   134  H    0.021224
   135  H    0.014153
   136  H    0.017325
   137  H    0.022911
   138  H    0.016888
   139  H    0.014768
   140  H    0.016780
 Sum of Mulliken charges =  -0.00000

 Dipole moment (field-independent basis, Debye):
    X=              1.8134    Y=             -3.8024    Z=              3.3627  Tot=              5.3902
 N-N= 4.415949869152D+03 E-N= 0.000000000000D+00  KE=-9.506032633676D+03
 Leave Link  601 at Thu Apr 28 10:56:21 2022, MaxMem=  6710886400 cpu:               0.8 elap:               0.0
 (Enter /sw/apps/gaussian-16.0/g16/l9999.exe)
 1\1\GINC-BP1-COMPUTE154\SP\RZINDO CIS\STO-3G\C55H74Mg1N4O6\OF15641\28-
 Apr-2022\0\\#p ZINDO=(nstates=5)\\step_151_chromophore_23 ZINDO\\0,1\M
 g,0,-9.484,41.012,42.907\C,0,-9.038,37.708,41.965\C,0,-6.824,41.883,40
 .767\C,0,-10.414,44.292,42.885\C,0,-12.614,40.196,44.298\N,0,-8.018,39
 .908,41.634\C,0,-8.033,38.545,41.424\C,0,-6.824,38.081,40.504\C,0,-5.9
 72,39.458,40.407\C,0,-6.958,40.527,40.961\C,0,-4.75,39.48,41.249\C,0,-
 7.325,37.504,39.115\C,0,-6.638,36.305,38.511\C,0,-5.415,36.669,37.619\

 Normal termination of Gaussian 16 at Thu Apr 28 10:56:21 2022.
