 Gaussian 16, Revision A.03,
 Gaussian 16:  ES64L-G16RevA.03 25-Dec-2016

 ------------------------------
 #p blyp/Def2SVP td=(nstates=5)
 ------------------------------

 ---------------------------------------------------
 step_1001_chromophore_20 TDDFT with blyp functional
 ---------------------------------------------------
 Symbolic Z-matrix:
 Charge =  0 Multiplicity = 1

                         Standard orientation:
 ---------------------------------------------------------------------
 Center     Atomic      Atomic             Coordinates (Angstroms)
 Number     Number       Type             X           Y           Z
 ---------------------------------------------------------------------
      1         12           0        4.158844    1.550695   -0.725055
      2          6           0        4.241310   -1.977359   -1.006088
      3          6           0        1.861814    1.526952   -3.277362
      4          6           0        3.300627    4.706438    0.251434
      5          6           0        6.176961    1.350597    2.129438
      6          7           0        3.093962   -0.077564   -1.942034
      7          6           0        3.341092   -1.381157   -1.878888
      8          6           0        2.420396   -2.121978   -2.867090
      9          6           0        2.068111   -0.963077   -3.841092
     10          6           0        2.358474    0.259689   -3.021288
     11          6           0        2.832802   -0.970275   -5.193589
     12          6           0        1.113831   -2.584732   -2.142400
     13          6           0        0.491361   -3.940653   -2.697536
     14          6           0       -0.161977   -4.887022   -1.757383
     15          8           0        0.295930   -5.967504   -1.322488
     16          8           0       -1.341363   -4.315524   -1.200674
     17          7           0        2.780902    2.919473   -1.440772
     18          6           0        1.974418    2.762295   -2.591172
     19          6           0        1.242190    3.935849   -2.787045
     20          6           0        1.551579    4.856152   -1.701476
     21          6           0        2.526006    4.125607   -0.850035
     22          6           0        0.378574    4.185751   -3.985041
     23          6           0        1.038716    6.227177   -1.576540
     24          8           0        0.298937    6.655474   -2.435771
     25          6           0        1.237926    7.105318   -0.370988
     26          7           0        4.718853    2.965232    0.855554
     27          6           0        4.254192    4.175165    1.049425
     28          6           0        4.832259    4.899317    2.217465
     29          6           0        5.732965    3.779556    2.845652
     30          6           0        5.503763    2.579780    1.940035
     31          6           0        5.560710    6.191392    1.747893
     32          6           0        5.631714    3.491978    4.358914
     33          6           0        6.865093    3.193968    5.094519
     34          7           0        5.179803   -0.022434    0.323801
     35          6           0        5.930710    0.104858    1.445951
     36          6           0        6.393080   -1.255896    1.741734
     37          6           0        5.734215   -2.102905    0.779081
     38          6           0        4.962075   -1.259371   -0.039198
     39          6           0        7.246411   -1.763747    2.924530
     40          6           0        5.704036   -3.418380    0.252248
     41          8           0        6.332867   -4.395264    0.583797
     42          6           0        4.671874   -3.435950   -0.916622
     43          6           0        3.628504   -4.342857   -0.613163
     44          8           0        2.782668   -4.294035    0.256283
     45          8           0        3.777754   -5.409551   -1.429026
     46          6           0        3.238790   -6.695263   -0.975565
     47          6           0       -1.944984   -5.123612   -0.157646
     48          6           0       -3.157698   -4.457119    0.302615
     49          6           0       -4.225770   -5.013634    0.959389
     50          6           0       -4.313841   -6.552758    1.491790
     51          6           0       -5.439357   -4.064095    1.168800
     52          6           0       -4.979067   -2.863266    2.012022
     53          6           0       -5.753591   -2.629018    3.324625
     54          6           0       -5.580885   -1.157912    3.831975
     55          6           0       -4.820034   -1.336473    5.198372
     56          6           0       -6.923942   -0.278120    3.865596
     57          6           0       -6.920964    0.885233    2.850977
     58          6           0       -6.736138    0.519256    1.353822
     59          6           0       -8.021425    0.433390    0.543855
     60          6           0       -7.857142   -0.520017   -0.650100
     61          6           0       -8.608843    1.776851    0.070889
     62          6           0      -10.058087    1.933314    0.446268
     63          6           0      -10.655628    3.209057   -0.239709
     64          6           0      -11.440372    2.951210   -1.494451
     65          6           0      -11.354865    4.126234   -2.437974
     66          6           0      -12.975686    2.533759   -1.284125
     67          1           0        1.296542    1.537067   -4.211246
     68          1           0        2.940245    5.678492    0.593895
     69          1           0        6.818681    1.279544    3.009887
     70          1           0        2.922544   -2.955219   -3.357212
     71          1           0        1.025075   -0.852208   -4.137541
     72          1           0        2.026518   -0.857314   -5.917947
     73          1           0        3.412179   -1.885373   -5.315916
     74          1           0        3.489408   -0.102020   -5.144541
     75          1           0        0.381209   -1.824484   -2.411200
     76          1           0        1.231502   -2.599702   -1.058448
     77          1           0        1.215792   -4.478197   -3.308466
     78          1           0       -0.234010   -3.666788   -3.463509
     79          1           0        0.571415    5.104977   -4.538496
     80          1           0       -0.650152    4.282011   -3.637338
     81          1           0        0.414972    3.416909   -4.755857
     82          1           0        2.266882    7.455227   -0.285589
     83          1           0        1.022525    6.555413    0.544675
     84          1           0        0.586857    7.979428   -0.351270
     85          1           0        3.999009    5.140303    2.877835
     86          1           0        6.772781    4.028252    2.631133
     87          1           0        6.454203    6.286697    2.364747
     88          1           0        4.898588    7.016789    2.012926
     89          1           0        5.946966    6.070904    0.736208
     90          1           0        4.984905    2.620431    4.454501
     91          1           0        5.122882    4.288509    4.901233
     92          1           0        7.723120    3.085461    4.431027
     93          1           0        6.726730    2.231575    5.588094
     94          1           0        7.034760    3.897607    5.909734
     95          1           0        6.851463   -1.310552    3.833414
     96          1           0        8.252955   -1.385294    2.748924
     97          1           0        7.211007   -2.854080    2.934757
     98          1           0        5.132283   -3.655802   -1.879726
     99          1           0        3.113860   -7.247268   -1.907171
    100          1           0        2.409230   -6.573756   -0.279246
    101          1           0        4.024863   -7.235842   -0.447777
    102          1           0       -1.290202   -5.158191    0.712751
    103          1           0       -2.327342   -6.098549   -0.458784
    104          1           0       -3.210376   -3.456872   -0.126458
    105          1           0       -3.316728   -6.967716    1.345625
    106          1           0       -5.145210   -6.948503    0.908780
    107          1           0       -4.663908   -6.461801    2.519945
    108          1           0       -6.281572   -4.491271    1.713016
    109          1           0       -5.710722   -3.595055    0.222254
    110          1           0       -4.915601   -1.935987    1.442339
    111          1           0       -3.950073   -3.093646    2.286244
    112          1           0       -5.503002   -3.354309    4.099379
    113          1           0       -6.809791   -2.829227    3.143161
    114          1           0       -4.916883   -0.527059    3.241017
    115          1           0       -4.848011   -0.354902    5.672143
    116          1           0       -3.769496   -1.622420    5.156604
    117          1           0       -5.465082   -2.016571    5.754651
    118          1           0       -7.023004    0.192509    4.843881
    119          1           0       -7.832496   -0.878401    3.822636
    120          1           0       -6.290249    1.711316    3.177945
    121          1           0       -7.918554    1.317718    2.927009
    122          1           0       -6.195081   -0.404094    1.144499
    123          1           0       -6.286756    1.388886    0.873375
    124          1           0       -8.649765   -0.106367    1.253239
    125          1           0       -7.643064   -1.527103   -0.289196
    126          1           0       -7.046271   -0.310943   -1.347162
    127          1           0       -8.799750   -0.483096   -1.196090
    128          1           0       -8.589334    1.801674   -1.017822
    129          1           0       -8.026355    2.612415    0.457432
    130          1           0      -10.182355    1.958009    1.528689
    131          1           0      -10.586934    1.043403    0.105921
    132          1           0       -9.869105    3.925449   -0.479366
    133          1           0      -11.240788    3.669216    0.556016
    134          1           0      -11.028418    2.085752   -2.012342
    135          1           0      -10.875216    3.901664   -3.390611
    136          1           0      -11.000812    5.019028   -1.923030
    137          1           0      -12.321562    4.526506   -2.744394
    138          1           0      -13.635241    3.279844   -1.727140
    139          1           0      -13.215335    2.493557   -0.221313
    140          1           0      -13.210150    1.556396   -1.706007
 ---------------------------------------------------------------------

 SCF Done:  E(RB-LYP) =  -3007.36632832     A.U. after   22 cycles

 Excitation energies and oscillator strengths:

 Excited State   1:      Singlet-A      1.5792 eV  785.12 nm  f=0.0001  <S**2>=0.000
     244 -> 247        0.69488
     245 -> 247        0.12964
 This state for optimization and/or second-order correction.
 Total Energy, E(TD-HF/TD-DFT) =  -3007.30829473
 Copying the excited state density for this state as the 1-particle RhoCI density.

 Excited State   2:      Singlet-A      1.6890 eV  734.05 nm  f=0.0007  <S**2>=0.000
     243 -> 247        0.70619

 Excited State   3:      Singlet-A      1.8553 eV  668.28 nm  f=0.3046  <S**2>=0.000
     245 -> 248       -0.18631
     246 -> 247        0.68859
     246 <- 247       -0.14843

 Excited State   4:      Singlet-A      1.8956 eV  654.08 nm  f=0.0010  <S**2>=0.000
     242 -> 247        0.70644

 Excited State   5:      Singlet-A      2.0427 eV  606.96 nm  f=0.1149  <S**2>=0.000
     244 -> 247       -0.12137
     245 -> 247        0.64430
     246 -> 248        0.20818

 The electronic state is 1-A.
 Alpha  occ. eigenvalues --  -46.28424 -18.81649 -18.80557 -18.77026 -18.75723
 Alpha  occ. eigenvalues --  -18.75682 -18.74432 -14.03381 -14.03327 -14.01314
 Alpha  occ. eigenvalues --  -14.01286 -10.04313 -10.02637  -9.99444  -9.98875
 Alpha  occ. eigenvalues --   -9.97207  -9.96664  -9.96619  -9.96563  -9.96464
 Alpha  occ. eigenvalues --   -9.96379  -9.95831  -9.95616  -9.95615  -9.94494
 Alpha  occ. eigenvalues --   -9.94487  -9.94298  -9.94222  -9.94094  -9.93935
 Alpha  occ. eigenvalues --   -9.93916  -9.93869  -9.93850  -9.93676  -9.93522
 Alpha  occ. eigenvalues --   -9.93380  -9.93369  -9.93347  -9.92966  -9.92889
 Alpha  occ. eigenvalues --   -9.92768  -9.92648  -9.92532  -9.92404  -9.92367
 Alpha  occ. eigenvalues --   -9.92026  -9.91748  -9.91729  -9.91650  -9.91489
 Alpha  occ. eigenvalues --   -9.91429  -9.91295  -9.91208  -9.90863  -9.90768
 Alpha  occ. eigenvalues --   -9.90740  -9.90704  -9.90642  -9.90620  -9.90535
 Alpha  occ. eigenvalues --   -9.90513  -9.90498  -9.90488  -9.90311  -9.90196
 Alpha  occ. eigenvalues --   -9.90152  -2.92850  -1.73284  -1.72736  -1.72552
 Alpha  occ. eigenvalues --   -0.97521  -0.96083  -0.92184  -0.91566  -0.89063
 Alpha  occ. eigenvalues --   -0.88553  -0.87964  -0.87392  -0.86950  -0.84402
 Alpha  occ. eigenvalues --   -0.76505  -0.73492  -0.73269  -0.73039  -0.72411
 Alpha  occ. eigenvalues --   -0.72293  -0.71742  -0.71467  -0.70475  -0.69827
 Alpha  occ. eigenvalues --   -0.69277  -0.69027  -0.68709  -0.68063  -0.67528
 Alpha  occ. eigenvalues --   -0.66648  -0.66175  -0.65334  -0.64980  -0.64618
 Alpha  occ. eigenvalues --   -0.63684  -0.62743  -0.62626  -0.61692  -0.60688
 Alpha  occ. eigenvalues --   -0.60269  -0.59652  -0.59641  -0.59242  -0.58923
 Alpha  occ. eigenvalues --   -0.58394  -0.57283  -0.56891  -0.55189  -0.55064
 Alpha  occ. eigenvalues --   -0.54405  -0.53361  -0.53219  -0.52258  -0.52126
 Alpha  occ. eigenvalues --   -0.52028  -0.51238  -0.51025  -0.50806  -0.49808
 Alpha  occ. eigenvalues --   -0.49529  -0.49139  -0.47864  -0.47436  -0.46643
 Alpha  occ. eigenvalues --   -0.46406  -0.46100  -0.45835  -0.45189  -0.45138
 Alpha  occ. eigenvalues --   -0.44493  -0.43558  -0.43165  -0.42996  -0.42586
 Alpha  occ. eigenvalues --   -0.42301  -0.42041  -0.41360  -0.41216  -0.40907
 Alpha  occ. eigenvalues --   -0.40785  -0.40550  -0.40400  -0.40112  -0.39810
 Alpha  occ. eigenvalues --   -0.39604  -0.39535  -0.39489  -0.39106  -0.39048
 Alpha  occ. eigenvalues --   -0.38807  -0.38568  -0.38396  -0.38343  -0.38074
 Alpha  occ. eigenvalues --   -0.37859  -0.37538  -0.37493  -0.37379  -0.37237
 Alpha  occ. eigenvalues --   -0.36950  -0.36795  -0.36688  -0.36610  -0.36462
 Alpha  occ. eigenvalues --   -0.36132  -0.35908  -0.35900  -0.35671  -0.35625
 Alpha  occ. eigenvalues --   -0.35527  -0.35411  -0.35111  -0.34957  -0.34853
 Alpha  occ. eigenvalues --   -0.34458  -0.34326  -0.34065  -0.34034  -0.34009
 Alpha  occ. eigenvalues --   -0.33794  -0.33712  -0.33458  -0.33326  -0.33062
 Alpha  occ. eigenvalues --   -0.33016  -0.32791  -0.32557  -0.32350  -0.32265
 Alpha  occ. eigenvalues --   -0.32176  -0.31678  -0.31665  -0.31403  -0.31250
 Alpha  occ. eigenvalues --   -0.31127  -0.31076  -0.30816  -0.30685  -0.30536
 Alpha  occ. eigenvalues --   -0.30379  -0.30325  -0.30124  -0.29973  -0.29954
 Alpha  occ. eigenvalues --   -0.29661  -0.29420  -0.29244  -0.29056  -0.28657
 Alpha  occ. eigenvalues --   -0.28537  -0.28345  -0.28070  -0.27976  -0.27919
 Alpha  occ. eigenvalues --   -0.27543  -0.27104  -0.26692  -0.26617  -0.26226
 Alpha  occ. eigenvalues --   -0.25971  -0.25909  -0.25730  -0.25198  -0.25057
 Alpha  occ. eigenvalues --   -0.24751  -0.24257  -0.24152  -0.23652  -0.23492
 Alpha  occ. eigenvalues --   -0.23278  -0.22503  -0.21536  -0.21286  -0.20509
 Alpha  occ. eigenvalues --   -0.19974  -0.19011  -0.18355  -0.17883  -0.17649
 Alpha  occ. eigenvalues --   -0.16547
 Alpha virt. eigenvalues --   -0.12147  -0.06841  -0.05961  -0.04541  -0.04195
 Alpha virt. eigenvalues --   -0.03586  -0.02263  -0.01428  -0.01359   0.00184
 Alpha virt. eigenvalues --    0.01257   0.01599   0.02205   0.02640   0.02980

 Mulliken charges:
               1
     1  Mg   0.688015
     2  C   -0.034425
     3  C   -0.034376
     4  C   -0.022639
     5  C   -0.064076
     6  N   -0.146755
     7  C   -0.124867
     8  C   -0.006992
     9  C   -0.026233
    10  C   -0.030169
    11  C    0.153421
    12  C    0.135267
    13  C    0.155104
    14  C    0.123258
    15  O   -0.205535
    16  O   -0.308637
    17  N   -0.322310
    18  C    0.153248
    19  C   -0.113554
    20  C    0.043728
    21  C    0.117614
    22  C    0.189781
    23  C   -0.113340
    24  O   -0.164262
    25  C    0.144587
    26  N   -0.197538
    27  C   -0.049973
    28  C    0.028275
    29  C    0.045989
    30  C    0.028707
    31  C    0.156686
    32  C    0.095905
    33  C    0.083569
    34  N   -0.211298
    35  C    0.084662
    36  C   -0.190359
    37  C    0.072691
    38  C    0.084538
    39  C    0.175710
    40  C   -0.082977
    41  O   -0.117186
    42  C    0.154214
    43  C    0.086239
    44  O   -0.177163
    45  O   -0.277188
    46  C    0.220307
    47  C    0.346377
    48  C   -0.146243
    49  C   -0.195202
    50  C    0.137370
    51  C    0.183741
    52  C    0.006865
    53  C    0.131389
    54  C   -0.081729
    55  C    0.085875
    56  C    0.119935
    57  C    0.058085
    58  C    0.146347
    59  C   -0.098806
    60  C    0.093363
    61  C    0.129554
    62  C    0.042012
    63  C    0.136203
    64  C   -0.088987
    65  C    0.115727
    66  C    0.095195
    67  H   -0.072986
    68  H   -0.106120
    69  H   -0.066764
    70  H   -0.025453
    71  H   -0.030694
    72  H   -0.000881
    73  H   -0.002929
    74  H   -0.006512
    75  H   -0.014044
    76  H    0.021289
    77  H   -0.014182
    78  H   -0.016480
    79  H    0.004481
    80  H   -0.000433
    81  H   -0.032869
    82  H    0.010070
    83  H    0.004003
    84  H   -0.014846
    85  H   -0.023492
    86  H   -0.027850
    87  H   -0.019499
    88  H    0.006364
    89  H    0.002361
    90  H   -0.021750
    91  H   -0.027425
    92  H   -0.001660
    93  H   -0.014220
    94  H   -0.010393
    95  H    0.001846
    96  H   -0.001332
    97  H    0.017254
    98  H   -0.005365
    99  H    0.004946
   100  H    0.048063
   101  H   -0.002800
   102  H    0.009286
   103  H    0.007631
   104  H   -0.029226
   105  H    0.011068
   106  H    0.010475
   107  H    0.002537
   108  H   -0.042145
   109  H   -0.013592
   110  H   -0.020048
   111  H   -0.028376
   112  H   -0.035560
   113  H   -0.047074
   114  H   -0.026947
   115  H   -0.031555
   116  H   -0.000943
   117  H   -0.011963
   118  H   -0.050077
   119  H   -0.034091
   120  H   -0.030174
   121  H   -0.041190
   122  H   -0.046210
   123  H   -0.049416
   124  H   -0.045556
   125  H   -0.016135
   126  H   -0.019228
   127  H   -0.019837
   128  H   -0.037893
   129  H   -0.036604
   130  H   -0.035252
   131  H   -0.031423
   132  H   -0.035220
   133  H   -0.042165
   134  H   -0.036067
   135  H   -0.009005
   136  H   -0.022924
   137  H   -0.039539
   138  H   -0.016919
   139  H   -0.023244
   140  H   -0.011828
 Sum of Mulliken charges =  -0.00000

 Dipole moment (field-independent basis, Debye):
    X=              1.1279    Y=              2.9035    Z=              0.4258  Tot=              3.1438
 Quadrupole moment (field-independent basis, Debye-Ang):
   XX=           -391.0059   YY=           -428.1828   ZZ=           -385.1611
   XY=             42.1644   XZ=              1.2035   YZ=             29.7070

 Normal termination of Gaussian 16 at Tue Apr 26 22:12:41 2022.
