 Gaussian 16, Revision A.03,
 Gaussian 16:  ES64L-G16RevA.03 25-Dec-2016

 -----------------------------------
 #p cam-b3lyp/Def2SVP td=(nstates=5)
 -----------------------------------

 --------------------------------------------------------
 step_1001_chromophore_20 TDDFT with cam-b3lyp functional
 --------------------------------------------------------
 Symbolic Z-matrix:
 Charge =  0 Multiplicity = 1

                         Standard orientation:
 ---------------------------------------------------------------------
 Center     Atomic      Atomic             Coordinates (Angstroms)
 Number     Number       Type             X           Y           Z
 ---------------------------------------------------------------------
      1         12           0        4.158844    1.550695   -0.725055
      2          6           0        4.241310   -1.977359   -1.006088
      3          6           0        1.861814    1.526952   -3.277362
      4          6           0        3.300627    4.706438    0.251434
      5          6           0        6.176961    1.350597    2.129438
      6          7           0        3.093962   -0.077564   -1.942034
      7          6           0        3.341092   -1.381157   -1.878888
      8          6           0        2.420396   -2.121978   -2.867090
      9          6           0        2.068111   -0.963077   -3.841092
     10          6           0        2.358474    0.259689   -3.021288
     11          6           0        2.832802   -0.970275   -5.193589
     12          6           0        1.113831   -2.584732   -2.142400
     13          6           0        0.491361   -3.940653   -2.697536
     14          6           0       -0.161977   -4.887022   -1.757383
     15          8           0        0.295930   -5.967504   -1.322488
     16          8           0       -1.341363   -4.315524   -1.200674
     17          7           0        2.780902    2.919473   -1.440772
     18          6           0        1.974418    2.762295   -2.591172
     19          6           0        1.242190    3.935849   -2.787045
     20          6           0        1.551579    4.856152   -1.701476
     21          6           0        2.526006    4.125607   -0.850035
     22          6           0        0.378574    4.185751   -3.985041
     23          6           0        1.038716    6.227177   -1.576540
     24          8           0        0.298937    6.655474   -2.435771
     25          6           0        1.237926    7.105318   -0.370988
     26          7           0        4.718853    2.965232    0.855554
     27          6           0        4.254192    4.175165    1.049425
     28          6           0        4.832259    4.899317    2.217465
     29          6           0        5.732965    3.779556    2.845652
     30          6           0        5.503763    2.579780    1.940035
     31          6           0        5.560710    6.191392    1.747893
     32          6           0        5.631714    3.491978    4.358914
     33          6           0        6.865093    3.193968    5.094519
     34          7           0        5.179803   -0.022434    0.323801
     35          6           0        5.930710    0.104858    1.445951
     36          6           0        6.393080   -1.255896    1.741734
     37          6           0        5.734215   -2.102905    0.779081
     38          6           0        4.962075   -1.259371   -0.039198
     39          6           0        7.246411   -1.763747    2.924530
     40          6           0        5.704036   -3.418380    0.252248
     41          8           0        6.332867   -4.395264    0.583797
     42          6           0        4.671874   -3.435950   -0.916622
     43          6           0        3.628504   -4.342857   -0.613163
     44          8           0        2.782668   -4.294035    0.256283
     45          8           0        3.777754   -5.409551   -1.429026
     46          6           0        3.238790   -6.695263   -0.975565
     47          6           0       -1.944984   -5.123612   -0.157646
     48          6           0       -3.157698   -4.457119    0.302615
     49          6           0       -4.225770   -5.013634    0.959389
     50          6           0       -4.313841   -6.552758    1.491790
     51          6           0       -5.439357   -4.064095    1.168800
     52          6           0       -4.979067   -2.863266    2.012022
     53          6           0       -5.753591   -2.629018    3.324625
     54          6           0       -5.580885   -1.157912    3.831975
     55          6           0       -4.820034   -1.336473    5.198372
     56          6           0       -6.923942   -0.278120    3.865596
     57          6           0       -6.920964    0.885233    2.850977
     58          6           0       -6.736138    0.519256    1.353822
     59          6           0       -8.021425    0.433390    0.543855
     60          6           0       -7.857142   -0.520017   -0.650100
     61          6           0       -8.608843    1.776851    0.070889
     62          6           0      -10.058087    1.933314    0.446268
     63          6           0      -10.655628    3.209057   -0.239709
     64          6           0      -11.440372    2.951210   -1.494451
     65          6           0      -11.354865    4.126234   -2.437974
     66          6           0      -12.975686    2.533759   -1.284125
     67          1           0        1.296542    1.537067   -4.211246
     68          1           0        2.940245    5.678492    0.593895
     69          1           0        6.818681    1.279544    3.009887
     70          1           0        2.922544   -2.955219   -3.357212
     71          1           0        1.025075   -0.852208   -4.137541
     72          1           0        2.026518   -0.857314   -5.917947
     73          1           0        3.412179   -1.885373   -5.315916
     74          1           0        3.489408   -0.102020   -5.144541
     75          1           0        0.381209   -1.824484   -2.411200
     76          1           0        1.231502   -2.599702   -1.058448
     77          1           0        1.215792   -4.478197   -3.308466
     78          1           0       -0.234010   -3.666788   -3.463509
     79          1           0        0.571415    5.104977   -4.538496
     80          1           0       -0.650152    4.282011   -3.637338
     81          1           0        0.414972    3.416909   -4.755857
     82          1           0        2.266882    7.455227   -0.285589
     83          1           0        1.022525    6.555413    0.544675
     84          1           0        0.586857    7.979428   -0.351270
     85          1           0        3.999009    5.140303    2.877835
     86          1           0        6.772781    4.028252    2.631133
     87          1           0        6.454203    6.286697    2.364747
     88          1           0        4.898588    7.016789    2.012926
     89          1           0        5.946966    6.070904    0.736208
     90          1           0        4.984905    2.620431    4.454501
     91          1           0        5.122882    4.288509    4.901233
     92          1           0        7.723120    3.085461    4.431027
     93          1           0        6.726730    2.231575    5.588094
     94          1           0        7.034760    3.897607    5.909734
     95          1           0        6.851463   -1.310552    3.833414
     96          1           0        8.252955   -1.385294    2.748924
     97          1           0        7.211007   -2.854080    2.934757
     98          1           0        5.132283   -3.655802   -1.879726
     99          1           0        3.113860   -7.247268   -1.907171
    100          1           0        2.409230   -6.573756   -0.279246
    101          1           0        4.024863   -7.235842   -0.447777
    102          1           0       -1.290202   -5.158191    0.712751
    103          1           0       -2.327342   -6.098549   -0.458784
    104          1           0       -3.210376   -3.456872   -0.126458
    105          1           0       -3.316728   -6.967716    1.345625
    106          1           0       -5.145210   -6.948503    0.908780
    107          1           0       -4.663908   -6.461801    2.519945
    108          1           0       -6.281572   -4.491271    1.713016
    109          1           0       -5.710722   -3.595055    0.222254
    110          1           0       -4.915601   -1.935987    1.442339
    111          1           0       -3.950073   -3.093646    2.286244
    112          1           0       -5.503002   -3.354309    4.099379
    113          1           0       -6.809791   -2.829227    3.143161
    114          1           0       -4.916883   -0.527059    3.241017
    115          1           0       -4.848011   -0.354902    5.672143
    116          1           0       -3.769496   -1.622420    5.156604
    117          1           0       -5.465082   -2.016571    5.754651
    118          1           0       -7.023004    0.192509    4.843881
    119          1           0       -7.832496   -0.878401    3.822636
    120          1           0       -6.290249    1.711316    3.177945
    121          1           0       -7.918554    1.317718    2.927009
    122          1           0       -6.195081   -0.404094    1.144499
    123          1           0       -6.286756    1.388886    0.873375
    124          1           0       -8.649765   -0.106367    1.253239
    125          1           0       -7.643064   -1.527103   -0.289196
    126          1           0       -7.046271   -0.310943   -1.347162
    127          1           0       -8.799750   -0.483096   -1.196090
    128          1           0       -8.589334    1.801674   -1.017822
    129          1           0       -8.026355    2.612415    0.457432
    130          1           0      -10.182355    1.958009    1.528689
    131          1           0      -10.586934    1.043403    0.105921
    132          1           0       -9.869105    3.925449   -0.479366
    133          1           0      -11.240788    3.669216    0.556016
    134          1           0      -11.028418    2.085752   -2.012342
    135          1           0      -10.875216    3.901664   -3.390611
    136          1           0      -11.000812    5.019028   -1.923030
    137          1           0      -12.321562    4.526506   -2.744394
    138          1           0      -13.635241    3.279844   -1.727140
    139          1           0      -13.215335    2.493557   -0.221313
    140          1           0      -13.210150    1.556396   -1.706007
 ---------------------------------------------------------------------

 SCF Done:  E(RCAM-B3LYP) =  -3007.16847521     A.U. after   17 cycles

 Excitation energies and oscillator strengths:

 Excited State   1:      Singlet-A      1.7289 eV  717.12 nm  f=0.3871  <S**2>=0.000
     245 -> 248        0.17915
     246 -> 247        0.68630
     245 <- 248        0.10812
 This state for optimization and/or second-order correction.
 Total Energy, E(TD-HF/TD-DFT) =  -3007.10493871
 Copying the excited state density for this state as the 1-particle RhoCI density.

 Excited State   2:      Singlet-A      2.2250 eV  557.22 nm  f=0.1769  <S**2>=0.000
     245 -> 247        0.66017
     246 -> 248       -0.23854

 Excited State   3:      Singlet-A      3.0997 eV  399.98 nm  f=0.0083  <S**2>=0.000
     243 -> 247        0.69011

 Excited State   4:      Singlet-A      3.2840 eV  377.53 nm  f=0.0126  <S**2>=0.000
     240 -> 247        0.10140
     242 -> 247        0.67497

 Excited State   5:      Singlet-A      3.3950 eV  365.20 nm  f=0.0004  <S**2>=0.000
     241 -> 247        0.59552
     241 -> 248        0.10985
     241 -> 249        0.20883
     241 -> 251       -0.26103

 The electronic state is 1-A.
 Alpha  occ. eigenvalues --  -46.90111 -19.24534 -19.23543 -19.20138 -19.18968
 Alpha  occ. eigenvalues --  -19.18912 -19.17526 -14.42482 -14.41989 -14.39753
 Alpha  occ. eigenvalues --  -14.39731 -10.39836 -10.38161 -10.34792 -10.33872
 Alpha  occ. eigenvalues --  -10.31750 -10.31255 -10.31138 -10.30831 -10.30787
 Alpha  occ. eigenvalues --  -10.30449 -10.30158 -10.29836 -10.29616 -10.28785
 Alpha  occ. eigenvalues --  -10.28724 -10.28622 -10.28402 -10.28179 -10.28085
 Alpha  occ. eigenvalues --  -10.27994 -10.27963 -10.27919 -10.27850 -10.27755
 Alpha  occ. eigenvalues --  -10.27739 -10.27669 -10.27030 -10.26987 -10.26695
 Alpha  occ. eigenvalues --  -10.26628 -10.26551 -10.26309 -10.26274 -10.26271
 Alpha  occ. eigenvalues --  -10.25625 -10.25602 -10.25511 -10.25420 -10.25240
 Alpha  occ. eigenvalues --  -10.25131 -10.25001 -10.24882 -10.24862 -10.24538
 Alpha  occ. eigenvalues --  -10.24441 -10.24387 -10.24324 -10.24311 -10.24259
 Alpha  occ. eigenvalues --  -10.24164 -10.24116 -10.24087 -10.23968 -10.23800
 Alpha  occ. eigenvalues --  -10.23754  -3.18428  -1.93340  -1.92872  -1.92716
 Alpha  occ. eigenvalues --   -1.16232  -1.14489  -1.10675  -1.09893  -1.07122
 Alpha  occ. eigenvalues --   -1.06410  -1.05857  -1.05106  -1.04600  -1.01902
 Alpha  occ. eigenvalues --   -0.93817  -0.90197  -0.90122  -0.89861  -0.89188
 Alpha  occ. eigenvalues --   -0.88973  -0.88396  -0.88135  -0.87033  -0.86359
 Alpha  occ. eigenvalues --   -0.85721  -0.85480  -0.85010  -0.84358  -0.83736
 Alpha  occ. eigenvalues --   -0.82798  -0.82272  -0.81215  -0.80967  -0.80533
 Alpha  occ. eigenvalues --   -0.79467  -0.78387  -0.78163  -0.77289  -0.76109
 Alpha  occ. eigenvalues --   -0.75605  -0.74984  -0.74971  -0.74524  -0.74173
 Alpha  occ. eigenvalues --   -0.73478  -0.72218  -0.71838  -0.69924  -0.69693
 Alpha  occ. eigenvalues --   -0.69115  -0.67841  -0.67751  -0.66443  -0.66413
 Alpha  occ. eigenvalues --   -0.66271  -0.65294  -0.65253  -0.64954  -0.63782
 Alpha  occ. eigenvalues --   -0.63485  -0.63082  -0.61710  -0.61208  -0.60312
 Alpha  occ. eigenvalues --   -0.60071  -0.59566  -0.59323  -0.58981  -0.58536
 Alpha  occ. eigenvalues --   -0.57941  -0.56676  -0.56390  -0.56230  -0.55725
 Alpha  occ. eigenvalues --   -0.55300  -0.55116  -0.54272  -0.54031  -0.53757
 Alpha  occ. eigenvalues --   -0.53692  -0.53416  -0.53287  -0.52887  -0.52745
 Alpha  occ. eigenvalues --   -0.52284  -0.52219  -0.52126  -0.51810  -0.51585
 Alpha  occ. eigenvalues --   -0.51304  -0.51257  -0.50901  -0.50853  -0.50642
 Alpha  occ. eigenvalues --   -0.50179  -0.49900  -0.49706  -0.49580  -0.49550
 Alpha  occ. eigenvalues --   -0.49365  -0.49119  -0.49089  -0.48895  -0.48773
 Alpha  occ. eigenvalues --   -0.48668  -0.48500  -0.48153  -0.48001  -0.47691
 Alpha  occ. eigenvalues --   -0.47550  -0.47440  -0.47141  -0.46943  -0.46726
 Alpha  occ. eigenvalues --   -0.46531  -0.46358  -0.45959  -0.45896  -0.45718
 Alpha  occ. eigenvalues --   -0.45676  -0.45532  -0.45286  -0.45140  -0.45030
 Alpha  occ. eigenvalues --   -0.44720  -0.44516  -0.44173  -0.43914  -0.43822
 Alpha  occ. eigenvalues --   -0.43675  -0.43386  -0.43107  -0.43048  -0.42851
 Alpha  occ. eigenvalues --   -0.42642  -0.42506  -0.42308  -0.42174  -0.41996
 Alpha  occ. eigenvalues --   -0.41820  -0.41593  -0.41434  -0.41223  -0.41150
 Alpha  occ. eigenvalues --   -0.41046  -0.40825  -0.40606  -0.40381  -0.39932
 Alpha  occ. eigenvalues --   -0.39718  -0.39564  -0.39058  -0.39041  -0.38859
 Alpha  occ. eigenvalues --   -0.38418  -0.37929  -0.37433  -0.37368  -0.37090
 Alpha  occ. eigenvalues --   -0.36907  -0.36791  -0.36649  -0.36513  -0.35830
 Alpha  occ. eigenvalues --   -0.35298  -0.35111  -0.34630  -0.34423  -0.34066
 Alpha  occ. eigenvalues --   -0.34045  -0.33800  -0.33481  -0.31583  -0.31078
 Alpha  occ. eigenvalues --   -0.30204  -0.29791  -0.29231  -0.27922  -0.24327
 Alpha  occ. eigenvalues --   -0.21997
 Alpha virt. eigenvalues --   -0.09483  -0.01563   0.00421   0.01351   0.02522
 Alpha virt. eigenvalues --    0.03568   0.05068   0.05679   0.06026   0.06544
 Alpha virt. eigenvalues --    0.07997   0.08301   0.08601   0.08838   0.09132

 Mulliken charges:
               1
     1  Mg   0.817059
     2  C   -0.059379
     3  C   -0.043068
     4  C   -0.050446
     5  C   -0.075684
     6  N   -0.212511
     7  C   -0.076198
     8  C   -0.057077
     9  C   -0.080379
    10  C   -0.016908
    11  C    0.097172
    12  C    0.081370
    13  C    0.085505
    14  C    0.203280
    15  O   -0.246317
    16  O   -0.372943
    17  N   -0.410105
    18  C    0.157776
    19  C   -0.115772
    20  C   -0.034109
    21  C    0.160386
    22  C    0.132058
    23  C   -0.035890
    24  O   -0.205917
    25  C    0.058729
    26  N   -0.275262
    27  C   -0.020611
    28  C   -0.026875
    29  C   -0.017548
    30  C    0.059424
    31  C    0.095504
    32  C    0.037671
    33  C    0.015093
    34  N   -0.303968
    35  C    0.092564
    36  C   -0.179837
    37  C   -0.003153
    38  C    0.119787
    39  C    0.124242
    40  C    0.008158
    41  O   -0.156047
    42  C    0.071451
    43  C    0.175764
    44  O   -0.212752
    45  O   -0.339186
    46  C    0.180771
    47  C    0.311784
    48  C   -0.166004
    49  C   -0.218266
    50  C    0.084703
    51  C    0.121383
    52  C   -0.045998
    53  C    0.080516
    54  C   -0.144377
    55  C    0.032983
    56  C    0.070753
    57  C    0.004349
    58  C    0.091620
    59  C   -0.150309
    60  C    0.042962
    61  C    0.069920
    62  C   -0.006323
    63  C    0.074266
    64  C   -0.148541
    65  C    0.051845
    66  C    0.039942
    67  H   -0.036626
    68  H   -0.070999
    69  H   -0.032863
    70  H    0.007943
    71  H    0.004500
    72  H    0.022273
    73  H    0.021088
    74  H    0.019487
    75  H    0.017050
    76  H    0.053398
    77  H    0.018190
    78  H    0.017508
    79  H    0.033830
    80  H    0.027439
    81  H   -0.006694
    82  H    0.036508
    83  H    0.031364
    84  H    0.021883
    85  H    0.012019
    86  H    0.007985
    87  H    0.006132
    88  H    0.029159
    89  H    0.029081
    90  H    0.009679
    91  H    0.002667
    92  H    0.020085
    93  H    0.010295
    94  H    0.015845
    95  H    0.025005
    96  H    0.023535
    97  H    0.044600
    98  H    0.041736
    99  H    0.028584
   100  H    0.073822
   101  H    0.020455
   102  H    0.036968
   103  H    0.032297
   104  H    0.006725
   105  H    0.032106
   106  H    0.033549
   107  H    0.024899
   108  H   -0.011324
   109  H    0.015865
   110  H    0.004586
   111  H    0.003888
   112  H   -0.006916
   113  H   -0.019903
   114  H    0.004918
   115  H   -0.007401
   116  H    0.023169
   117  H    0.009612
   118  H   -0.018451
   119  H   -0.006871
   120  H   -0.000929
   121  H   -0.013705
   122  H   -0.022640
   123  H   -0.018831
   124  H   -0.014881
   125  H    0.004474
   126  H    0.005195
   127  H    0.003127
   128  H   -0.009122
   129  H   -0.007583
   130  H   -0.007127
   131  H   -0.005457
   132  H   -0.005029
   133  H   -0.011829
   134  H   -0.004721
   135  H    0.015637
   136  H    0.002216
   137  H   -0.013590
   138  H    0.006426
   139  H    0.000185
   140  H    0.011474
 Sum of Mulliken charges =  -0.00000

 Dipole moment (field-independent basis, Debye):
    X=              1.0420    Y=              2.9955    Z=              0.3064  Tot=              3.1863
 Quadrupole moment (field-independent basis, Debye-Ang):
   XX=           -390.7979   YY=           -425.9353   ZZ=           -382.6886
   XY=             42.1375   XZ=              1.3403   YZ=             31.4035

 Normal termination of Gaussian 16 at Tue Apr 26 21:12:23 2022.
