 Gaussian 16, Revision A.03,
 Gaussian 16:  ES64L-G16RevA.03 25-Dec-2016

 ---------------------------------
 #p PBE1PBE/Def2SVP td=(nstates=5)
 ---------------------------------

 ------------------------------------------------------
 step_1001_chromophore_20 TDDFT with PBE1PBE functional
 ------------------------------------------------------
 Symbolic Z-matrix:
 Charge =  0 Multiplicity = 1

                         Standard orientation:
 ---------------------------------------------------------------------
 Center     Atomic      Atomic             Coordinates (Angstroms)
 Number     Number       Type             X           Y           Z
 ---------------------------------------------------------------------
      1         12           0        4.158844    1.550695   -0.725055
      2          6           0        4.241310   -1.977359   -1.006088
      3          6           0        1.861814    1.526952   -3.277362
      4          6           0        3.300627    4.706438    0.251434
      5          6           0        6.176961    1.350597    2.129438
      6          7           0        3.093962   -0.077564   -1.942034
      7          6           0        3.341092   -1.381157   -1.878888
      8          6           0        2.420396   -2.121978   -2.867090
      9          6           0        2.068111   -0.963077   -3.841092
     10          6           0        2.358474    0.259689   -3.021288
     11          6           0        2.832802   -0.970275   -5.193589
     12          6           0        1.113831   -2.584732   -2.142400
     13          6           0        0.491361   -3.940653   -2.697536
     14          6           0       -0.161977   -4.887022   -1.757383
     15          8           0        0.295930   -5.967504   -1.322488
     16          8           0       -1.341363   -4.315524   -1.200674
     17          7           0        2.780902    2.919473   -1.440772
     18          6           0        1.974418    2.762295   -2.591172
     19          6           0        1.242190    3.935849   -2.787045
     20          6           0        1.551579    4.856152   -1.701476
     21          6           0        2.526006    4.125607   -0.850035
     22          6           0        0.378574    4.185751   -3.985041
     23          6           0        1.038716    6.227177   -1.576540
     24          8           0        0.298937    6.655474   -2.435771
     25          6           0        1.237926    7.105318   -0.370988
     26          7           0        4.718853    2.965232    0.855554
     27          6           0        4.254192    4.175165    1.049425
     28          6           0        4.832259    4.899317    2.217465
     29          6           0        5.732965    3.779556    2.845652
     30          6           0        5.503763    2.579780    1.940035
     31          6           0        5.560710    6.191392    1.747893
     32          6           0        5.631714    3.491978    4.358914
     33          6           0        6.865093    3.193968    5.094519
     34          7           0        5.179803   -0.022434    0.323801
     35          6           0        5.930710    0.104858    1.445951
     36          6           0        6.393080   -1.255896    1.741734
     37          6           0        5.734215   -2.102905    0.779081
     38          6           0        4.962075   -1.259371   -0.039198
     39          6           0        7.246411   -1.763747    2.924530
     40          6           0        5.704036   -3.418380    0.252248
     41          8           0        6.332867   -4.395264    0.583797
     42          6           0        4.671874   -3.435950   -0.916622
     43          6           0        3.628504   -4.342857   -0.613163
     44          8           0        2.782668   -4.294035    0.256283
     45          8           0        3.777754   -5.409551   -1.429026
     46          6           0        3.238790   -6.695263   -0.975565
     47          6           0       -1.944984   -5.123612   -0.157646
     48          6           0       -3.157698   -4.457119    0.302615
     49          6           0       -4.225770   -5.013634    0.959389
     50          6           0       -4.313841   -6.552758    1.491790
     51          6           0       -5.439357   -4.064095    1.168800
     52          6           0       -4.979067   -2.863266    2.012022
     53          6           0       -5.753591   -2.629018    3.324625
     54          6           0       -5.580885   -1.157912    3.831975
     55          6           0       -4.820034   -1.336473    5.198372
     56          6           0       -6.923942   -0.278120    3.865596
     57          6           0       -6.920964    0.885233    2.850977
     58          6           0       -6.736138    0.519256    1.353822
     59          6           0       -8.021425    0.433390    0.543855
     60          6           0       -7.857142   -0.520017   -0.650100
     61          6           0       -8.608843    1.776851    0.070889
     62          6           0      -10.058087    1.933314    0.446268
     63          6           0      -10.655628    3.209057   -0.239709
     64          6           0      -11.440372    2.951210   -1.494451
     65          6           0      -11.354865    4.126234   -2.437974
     66          6           0      -12.975686    2.533759   -1.284125
     67          1           0        1.296542    1.537067   -4.211246
     68          1           0        2.940245    5.678492    0.593895
     69          1           0        6.818681    1.279544    3.009887
     70          1           0        2.922544   -2.955219   -3.357212
     71          1           0        1.025075   -0.852208   -4.137541
     72          1           0        2.026518   -0.857314   -5.917947
     73          1           0        3.412179   -1.885373   -5.315916
     74          1           0        3.489408   -0.102020   -5.144541
     75          1           0        0.381209   -1.824484   -2.411200
     76          1           0        1.231502   -2.599702   -1.058448
     77          1           0        1.215792   -4.478197   -3.308466
     78          1           0       -0.234010   -3.666788   -3.463509
     79          1           0        0.571415    5.104977   -4.538496
     80          1           0       -0.650152    4.282011   -3.637338
     81          1           0        0.414972    3.416909   -4.755857
     82          1           0        2.266882    7.455227   -0.285589
     83          1           0        1.022525    6.555413    0.544675
     84          1           0        0.586857    7.979428   -0.351270
     85          1           0        3.999009    5.140303    2.877835
     86          1           0        6.772781    4.028252    2.631133
     87          1           0        6.454203    6.286697    2.364747
     88          1           0        4.898588    7.016789    2.012926
     89          1           0        5.946966    6.070904    0.736208
     90          1           0        4.984905    2.620431    4.454501
     91          1           0        5.122882    4.288509    4.901233
     92          1           0        7.723120    3.085461    4.431027
     93          1           0        6.726730    2.231575    5.588094
     94          1           0        7.034760    3.897607    5.909734
     95          1           0        6.851463   -1.310552    3.833414
     96          1           0        8.252955   -1.385294    2.748924
     97          1           0        7.211007   -2.854080    2.934757
     98          1           0        5.132283   -3.655802   -1.879726
     99          1           0        3.113860   -7.247268   -1.907171
    100          1           0        2.409230   -6.573756   -0.279246
    101          1           0        4.024863   -7.235842   -0.447777
    102          1           0       -1.290202   -5.158191    0.712751
    103          1           0       -2.327342   -6.098549   -0.458784
    104          1           0       -3.210376   -3.456872   -0.126458
    105          1           0       -3.316728   -6.967716    1.345625
    106          1           0       -5.145210   -6.948503    0.908780
    107          1           0       -4.663908   -6.461801    2.519945
    108          1           0       -6.281572   -4.491271    1.713016
    109          1           0       -5.710722   -3.595055    0.222254
    110          1           0       -4.915601   -1.935987    1.442339
    111          1           0       -3.950073   -3.093646    2.286244
    112          1           0       -5.503002   -3.354309    4.099379
    113          1           0       -6.809791   -2.829227    3.143161
    114          1           0       -4.916883   -0.527059    3.241017
    115          1           0       -4.848011   -0.354902    5.672143
    116          1           0       -3.769496   -1.622420    5.156604
    117          1           0       -5.465082   -2.016571    5.754651
    118          1           0       -7.023004    0.192509    4.843881
    119          1           0       -7.832496   -0.878401    3.822636
    120          1           0       -6.290249    1.711316    3.177945
    121          1           0       -7.918554    1.317718    2.927009
    122          1           0       -6.195081   -0.404094    1.144499
    123          1           0       -6.286756    1.388886    0.873375
    124          1           0       -8.649765   -0.106367    1.253239
    125          1           0       -7.643064   -1.527103   -0.289196
    126          1           0       -7.046271   -0.310943   -1.347162
    127          1           0       -8.799750   -0.483096   -1.196090
    128          1           0       -8.589334    1.801674   -1.017822
    129          1           0       -8.026355    2.612415    0.457432
    130          1           0      -10.182355    1.958009    1.528689
    131          1           0      -10.586934    1.043403    0.105921
    132          1           0       -9.869105    3.925449   -0.479366
    133          1           0      -11.240788    3.669216    0.556016
    134          1           0      -11.028418    2.085752   -2.012342
    135          1           0      -10.875216    3.901664   -3.390611
    136          1           0      -11.000812    5.019028   -1.923030
    137          1           0      -12.321562    4.526506   -2.744394
    138          1           0      -13.635241    3.279844   -1.727140
    139          1           0      -13.215335    2.493557   -0.221313
    140          1           0      -13.210150    1.556396   -1.706007
 ---------------------------------------------------------------------

 SCF Done:  E(RPBE1PBE) =  -3005.35729524     A.U. after   15 cycles

 Excitation energies and oscillator strengths:

 Excited State   1:      Singlet-A      1.8937 eV  654.73 nm  f=0.3718  <S**2>=0.000
     245 -> 248       -0.17301
     246 -> 247        0.69292
     246 <- 247       -0.10768
 This state for optimization and/or second-order correction.
 Total Energy, E(TD-HF/TD-DFT) =  -3005.28770373
 Copying the excited state density for this state as the 1-particle RhoCI density.

 Excited State   2:      Singlet-A      2.2395 eV  553.62 nm  f=0.1612  <S**2>=0.000
     245 -> 247        0.66567
     246 -> 248        0.22071

 Excited State   3:      Singlet-A      2.7240 eV  455.16 nm  f=0.0000  <S**2>=0.000
     244 -> 247        0.70487

 Excited State   4:      Singlet-A      2.7334 eV  453.59 nm  f=0.0019  <S**2>=0.000
     242 -> 247        0.30358
     243 -> 247        0.61722

 Excited State   5:      Singlet-A      2.7841 eV  445.33 nm  f=0.0065  <S**2>=0.000
     242 -> 247        0.61653
     243 -> 247       -0.31803

 The electronic state is 1-A.
 Alpha  occ. eigenvalues --  -46.93462 -19.25179 -19.24134 -19.20342 -19.19081
 Alpha  occ. eigenvalues --  -19.19064 -19.17783 -14.41807 -14.41599 -14.39434
 Alpha  occ. eigenvalues --  -14.39328 -10.36806 -10.35002 -10.31863 -10.31028
 Alpha  occ. eigenvalues --  -10.29474 -10.28912 -10.28815 -10.28524 -10.28479
 Alpha  occ. eigenvalues --  -10.27807 -10.27798 -10.27562 -10.26807 -10.26480
 Alpha  occ. eigenvalues --  -10.26422 -10.26404 -10.26047 -10.26007 -10.25850
 Alpha  occ. eigenvalues --  -10.25720 -10.25704 -10.25600 -10.25411 -10.25281
 Alpha  occ. eigenvalues --  -10.25257 -10.25242 -10.24728 -10.24555 -10.24366
 Alpha  occ. eigenvalues --  -10.24094 -10.24080 -10.24072 -10.23921 -10.23711
 Alpha  occ. eigenvalues --  -10.23233 -10.23075 -10.23038 -10.22968 -10.22681
 Alpha  occ. eigenvalues --  -10.22679 -10.22582 -10.22558 -10.22388 -10.22207
 Alpha  occ. eigenvalues --  -10.21979 -10.21900 -10.21872 -10.21805 -10.21726
 Alpha  occ. eigenvalues --  -10.21683 -10.21509 -10.21494 -10.21482 -10.21354
 Alpha  occ. eigenvalues --  -10.21142  -3.15366  -1.88216  -1.87726  -1.87574
 Alpha  occ. eigenvalues --   -1.10903  -1.09221  -1.05381  -1.04678  -1.01839
 Alpha  occ. eigenvalues --   -1.01198  -1.00428  -0.99745  -0.99283  -0.96561
 Alpha  occ. eigenvalues --   -0.88115  -0.84500  -0.84187  -0.84053  -0.83375
 Alpha  occ. eigenvalues --   -0.83243  -0.82692  -0.82241  -0.81162  -0.80641
 Alpha  occ. eigenvalues --   -0.79999  -0.79730  -0.79320  -0.78626  -0.77914
 Alpha  occ. eigenvalues --   -0.77040  -0.76433  -0.75574  -0.75187  -0.74711
 Alpha  occ. eigenvalues --   -0.73648  -0.72622  -0.72463  -0.71600  -0.70383
 Alpha  occ. eigenvalues --   -0.69957  -0.69118  -0.69050  -0.68643  -0.68336
 Alpha  occ. eigenvalues --   -0.67913  -0.66619  -0.66183  -0.64238  -0.64064
 Alpha  occ. eigenvalues --   -0.63551  -0.62291  -0.61974  -0.60872  -0.60691
 Alpha  occ. eigenvalues --   -0.60591  -0.59849  -0.59487  -0.59446  -0.58045
 Alpha  occ. eigenvalues --   -0.57737  -0.57239  -0.56209  -0.55403  -0.54789
 Alpha  occ. eigenvalues --   -0.54559  -0.54182  -0.53862  -0.53315  -0.53011
 Alpha  occ. eigenvalues --   -0.52554  -0.51189  -0.50950  -0.50656  -0.50303
 Alpha  occ. eigenvalues --   -0.49818  -0.49590  -0.48793  -0.48404  -0.48215
 Alpha  occ. eigenvalues --   -0.48142  -0.47954  -0.47823  -0.47461  -0.47241
 Alpha  occ. eigenvalues --   -0.46847  -0.46799  -0.46598  -0.46280  -0.46090
 Alpha  occ. eigenvalues --   -0.45851  -0.45763  -0.45488  -0.45398  -0.45130
 Alpha  occ. eigenvalues --   -0.44689  -0.44574  -0.44230  -0.44103  -0.44086
 Alpha  occ. eigenvalues --   -0.43967  -0.43759  -0.43656  -0.43562  -0.43302
 Alpha  occ. eigenvalues --   -0.43279  -0.43074  -0.42818  -0.42520  -0.42395
 Alpha  occ. eigenvalues --   -0.42097  -0.42006  -0.41805  -0.41660  -0.41254
 Alpha  occ. eigenvalues --   -0.41207  -0.41024  -0.40676  -0.40605  -0.40417
 Alpha  occ. eigenvalues --   -0.40265  -0.40227  -0.39924  -0.39871  -0.39682
 Alpha  occ. eigenvalues --   -0.39487  -0.39217  -0.38898  -0.38678  -0.38633
 Alpha  occ. eigenvalues --   -0.38346  -0.38115  -0.37823  -0.37768  -0.37695
 Alpha  occ. eigenvalues --   -0.37522  -0.37389  -0.37104  -0.37020  -0.36695
 Alpha  occ. eigenvalues --   -0.36635  -0.36439  -0.36288  -0.36100  -0.35902
 Alpha  occ. eigenvalues --   -0.35871  -0.35562  -0.35539  -0.35283  -0.34780
 Alpha  occ. eigenvalues --   -0.34473  -0.34309  -0.33955  -0.33811  -0.33587
 Alpha  occ. eigenvalues --   -0.33157  -0.32709  -0.32464  -0.32249  -0.32128
 Alpha  occ. eigenvalues --   -0.31816  -0.31782  -0.31540  -0.31358  -0.30616
 Alpha  occ. eigenvalues --   -0.30135  -0.29950  -0.29624  -0.29570  -0.29192
 Alpha  occ. eigenvalues --   -0.28970  -0.28604  -0.28486  -0.27232  -0.25914
 Alpha  occ. eigenvalues --   -0.25416  -0.24984  -0.24829  -0.23176  -0.21316
 Alpha  occ. eigenvalues --   -0.19574
 Alpha virt. eigenvalues --   -0.11853  -0.05117  -0.03711  -0.01955  -0.01436
 Alpha virt. eigenvalues --   -0.00956   0.00644   0.01452   0.01664   0.02981
 Alpha virt. eigenvalues --    0.04242   0.04370   0.05067   0.05572   0.05780

 Mulliken charges:
               1
     1  Mg   0.952037
     2  C   -0.063737
     3  C   -0.043285
     4  C   -0.044000
     5  C   -0.063777
     6  N   -0.319340
     7  C    0.014881
     8  C   -0.131003
     9  C   -0.160882
    10  C    0.024832
    11  C    0.043288
    12  C    0.034928
    13  C    0.015566
    14  C    0.260080
    15  O   -0.278040
    16  O   -0.402443
    17  N   -0.523121
    18  C    0.185001
    19  C   -0.144058
    20  C   -0.088275
    21  C    0.204021
    22  C    0.077011
    23  C    0.014437
    24  O   -0.240593
    25  C   -0.019911
    26  N   -0.378743
    27  C    0.017456
    28  C   -0.105515
    29  C   -0.094911
    30  C    0.092852
    31  C    0.035355
    32  C   -0.022671
    33  C   -0.058644
    34  N   -0.439696
    35  C    0.116817
    36  C   -0.189576
    37  C   -0.047560
    38  C    0.173329
    39  C    0.065658
    40  C    0.091776
    41  O   -0.203878
    42  C   -0.043887
    43  C    0.278171
    44  O   -0.252799
    45  O   -0.374183
    46  C    0.127402
    47  C    0.272806
    48  C   -0.176137
    49  C   -0.260520
    50  C    0.015202
    51  C    0.055738
    52  C   -0.109838
    53  C    0.029388
    54  C   -0.227999
    55  C   -0.031925
    56  C    0.023405
    57  C   -0.068165
    58  C    0.028594
    59  C   -0.232960
    60  C   -0.022907
    61  C    0.012451
    62  C   -0.069907
    63  C    0.015624
    64  C   -0.240430
    65  C   -0.006939
    66  C   -0.017924
    67  H   -0.004828
    68  H   -0.035258
    69  H    0.003654
    70  H    0.042843
    71  H    0.040615
    72  H    0.048919
    73  H    0.048458
    74  H    0.047994
    75  H    0.050108
    76  H    0.084808
    77  H    0.048970
    78  H    0.049334
    79  H    0.060769
    80  H    0.055726
    81  H    0.020799
    82  H    0.062815
    83  H    0.058350
    84  H    0.050558
    85  H    0.048924
    86  H    0.047009
    87  H    0.035477
    88  H    0.056017
    89  H    0.056772
    90  H    0.043542
    91  H    0.035380
    92  H    0.045706
    93  H    0.037892
    94  H    0.044184
    95  H    0.052229
    96  H    0.052149
    97  H    0.071883
    98  H    0.077770
    99  H    0.050022
   100  H    0.094296
   101  H    0.043532
   102  H    0.064498
   103  H    0.058935
   104  H    0.037144
   105  H    0.058290
   106  H    0.061833
   107  H    0.053359
   108  H    0.020726
   109  H    0.050867
   110  H    0.034288
   111  H    0.040582
   112  H    0.024809
   113  H    0.012617
   114  H    0.043584
   115  H    0.021625
   116  H    0.051156
   117  H    0.038153
   118  H    0.014644
   119  H    0.023245
   120  H    0.030947
   121  H    0.022299
   122  H    0.020488
   123  H    0.016295
   124  H    0.024918
   125  H    0.034892
   126  H    0.033157
   127  H    0.032064
   128  H    0.025395
   129  H    0.024403
   130  H    0.025351
   131  H    0.028306
   132  H    0.027208
   133  H    0.021140
   134  H    0.033474
   135  H    0.042616
   136  H    0.029079
   137  H    0.013654
   138  H    0.032921
   139  H    0.027526
   140  H    0.038170
 Sum of Mulliken charges =  -0.00000

 Dipole moment (field-independent basis, Debye):
    X=              1.1059    Y=              3.2028    Z=              0.4246  Tot=              3.4148
 Quadrupole moment (field-independent basis, Debye-Ang):
   XX=           -386.7375   YY=           -422.5237   ZZ=           -378.5051
   XY=             42.8270   XZ=              2.4950   YZ=             31.8850

 Normal termination of Gaussian 16 at Tue Apr 26 21:29:30 2022.
