 Gaussian 16, Revision A.03,
 Gaussian 16:  ES64L-G16RevA.03 25-Dec-2016

 --------------------------------
 #p wB97XD/Def2SVP td=(nstates=5)
 --------------------------------

 -----------------------------------------------------
 step_1001_chromophore_20 TDDFT with wB97XD functional
 -----------------------------------------------------
 Symbolic Z-matrix:
 Charge =  0 Multiplicity = 1

                         Standard orientation:
 ---------------------------------------------------------------------
 Center     Atomic      Atomic             Coordinates (Angstroms)
 Number     Number       Type             X           Y           Z
 ---------------------------------------------------------------------
      1         12           0        4.158844    1.550695   -0.725055
      2          6           0        4.241310   -1.977359   -1.006088
      3          6           0        1.861814    1.526952   -3.277362
      4          6           0        3.300627    4.706438    0.251434
      5          6           0        6.176961    1.350597    2.129438
      6          7           0        3.093962   -0.077564   -1.942034
      7          6           0        3.341092   -1.381157   -1.878888
      8          6           0        2.420396   -2.121978   -2.867090
      9          6           0        2.068111   -0.963077   -3.841092
     10          6           0        2.358474    0.259689   -3.021288
     11          6           0        2.832802   -0.970275   -5.193589
     12          6           0        1.113831   -2.584732   -2.142400
     13          6           0        0.491361   -3.940653   -2.697536
     14          6           0       -0.161977   -4.887022   -1.757383
     15          8           0        0.295930   -5.967504   -1.322488
     16          8           0       -1.341363   -4.315524   -1.200674
     17          7           0        2.780902    2.919473   -1.440772
     18          6           0        1.974418    2.762295   -2.591172
     19          6           0        1.242190    3.935849   -2.787045
     20          6           0        1.551579    4.856152   -1.701476
     21          6           0        2.526006    4.125607   -0.850035
     22          6           0        0.378574    4.185751   -3.985041
     23          6           0        1.038716    6.227177   -1.576540
     24          8           0        0.298937    6.655474   -2.435771
     25          6           0        1.237926    7.105318   -0.370988
     26          7           0        4.718853    2.965232    0.855554
     27          6           0        4.254192    4.175165    1.049425
     28          6           0        4.832259    4.899317    2.217465
     29          6           0        5.732965    3.779556    2.845652
     30          6           0        5.503763    2.579780    1.940035
     31          6           0        5.560710    6.191392    1.747893
     32          6           0        5.631714    3.491978    4.358914
     33          6           0        6.865093    3.193968    5.094519
     34          7           0        5.179803   -0.022434    0.323801
     35          6           0        5.930710    0.104858    1.445951
     36          6           0        6.393080   -1.255896    1.741734
     37          6           0        5.734215   -2.102905    0.779081
     38          6           0        4.962075   -1.259371   -0.039198
     39          6           0        7.246411   -1.763747    2.924530
     40          6           0        5.704036   -3.418380    0.252248
     41          8           0        6.332867   -4.395264    0.583797
     42          6           0        4.671874   -3.435950   -0.916622
     43          6           0        3.628504   -4.342857   -0.613163
     44          8           0        2.782668   -4.294035    0.256283
     45          8           0        3.777754   -5.409551   -1.429026
     46          6           0        3.238790   -6.695263   -0.975565
     47          6           0       -1.944984   -5.123612   -0.157646
     48          6           0       -3.157698   -4.457119    0.302615
     49          6           0       -4.225770   -5.013634    0.959389
     50          6           0       -4.313841   -6.552758    1.491790
     51          6           0       -5.439357   -4.064095    1.168800
     52          6           0       -4.979067   -2.863266    2.012022
     53          6           0       -5.753591   -2.629018    3.324625
     54          6           0       -5.580885   -1.157912    3.831975
     55          6           0       -4.820034   -1.336473    5.198372
     56          6           0       -6.923942   -0.278120    3.865596
     57          6           0       -6.920964    0.885233    2.850977
     58          6           0       -6.736138    0.519256    1.353822
     59          6           0       -8.021425    0.433390    0.543855
     60          6           0       -7.857142   -0.520017   -0.650100
     61          6           0       -8.608843    1.776851    0.070889
     62          6           0      -10.058087    1.933314    0.446268
     63          6           0      -10.655628    3.209057   -0.239709
     64          6           0      -11.440372    2.951210   -1.494451
     65          6           0      -11.354865    4.126234   -2.437974
     66          6           0      -12.975686    2.533759   -1.284125
     67          1           0        1.296542    1.537067   -4.211246
     68          1           0        2.940245    5.678492    0.593895
     69          1           0        6.818681    1.279544    3.009887
     70          1           0        2.922544   -2.955219   -3.357212
     71          1           0        1.025075   -0.852208   -4.137541
     72          1           0        2.026518   -0.857314   -5.917947
     73          1           0        3.412179   -1.885373   -5.315916
     74          1           0        3.489408   -0.102020   -5.144541
     75          1           0        0.381209   -1.824484   -2.411200
     76          1           0        1.231502   -2.599702   -1.058448
     77          1           0        1.215792   -4.478197   -3.308466
     78          1           0       -0.234010   -3.666788   -3.463509
     79          1           0        0.571415    5.104977   -4.538496
     80          1           0       -0.650152    4.282011   -3.637338
     81          1           0        0.414972    3.416909   -4.755857
     82          1           0        2.266882    7.455227   -0.285589
     83          1           0        1.022525    6.555413    0.544675
     84          1           0        0.586857    7.979428   -0.351270
     85          1           0        3.999009    5.140303    2.877835
     86          1           0        6.772781    4.028252    2.631133
     87          1           0        6.454203    6.286697    2.364747
     88          1           0        4.898588    7.016789    2.012926
     89          1           0        5.946966    6.070904    0.736208
     90          1           0        4.984905    2.620431    4.454501
     91          1           0        5.122882    4.288509    4.901233
     92          1           0        7.723120    3.085461    4.431027
     93          1           0        6.726730    2.231575    5.588094
     94          1           0        7.034760    3.897607    5.909734
     95          1           0        6.851463   -1.310552    3.833414
     96          1           0        8.252955   -1.385294    2.748924
     97          1           0        7.211007   -2.854080    2.934757
     98          1           0        5.132283   -3.655802   -1.879726
     99          1           0        3.113860   -7.247268   -1.907171
    100          1           0        2.409230   -6.573756   -0.279246
    101          1           0        4.024863   -7.235842   -0.447777
    102          1           0       -1.290202   -5.158191    0.712751
    103          1           0       -2.327342   -6.098549   -0.458784
    104          1           0       -3.210376   -3.456872   -0.126458
    105          1           0       -3.316728   -6.967716    1.345625
    106          1           0       -5.145210   -6.948503    0.908780
    107          1           0       -4.663908   -6.461801    2.519945
    108          1           0       -6.281572   -4.491271    1.713016
    109          1           0       -5.710722   -3.595055    0.222254
    110          1           0       -4.915601   -1.935987    1.442339
    111          1           0       -3.950073   -3.093646    2.286244
    112          1           0       -5.503002   -3.354309    4.099379
    113          1           0       -6.809791   -2.829227    3.143161
    114          1           0       -4.916883   -0.527059    3.241017
    115          1           0       -4.848011   -0.354902    5.672143
    116          1           0       -3.769496   -1.622420    5.156604
    117          1           0       -5.465082   -2.016571    5.754651
    118          1           0       -7.023004    0.192509    4.843881
    119          1           0       -7.832496   -0.878401    3.822636
    120          1           0       -6.290249    1.711316    3.177945
    121          1           0       -7.918554    1.317718    2.927009
    122          1           0       -6.195081   -0.404094    1.144499
    123          1           0       -6.286756    1.388886    0.873375
    124          1           0       -8.649765   -0.106367    1.253239
    125          1           0       -7.643064   -1.527103   -0.289196
    126          1           0       -7.046271   -0.310943   -1.347162
    127          1           0       -8.799750   -0.483096   -1.196090
    128          1           0       -8.589334    1.801674   -1.017822
    129          1           0       -8.026355    2.612415    0.457432
    130          1           0      -10.182355    1.958009    1.528689
    131          1           0      -10.586934    1.043403    0.105921
    132          1           0       -9.869105    3.925449   -0.479366
    133          1           0      -11.240788    3.669216    0.556016
    134          1           0      -11.028418    2.085752   -2.012342
    135          1           0      -10.875216    3.901664   -3.390611
    136          1           0      -11.000812    5.019028   -1.923030
    137          1           0      -12.321562    4.526506   -2.744394
    138          1           0      -13.635241    3.279844   -1.727140
    139          1           0      -13.215335    2.493557   -0.221313
    140          1           0      -13.210150    1.556396   -1.706007
 ---------------------------------------------------------------------

 SCF Done:  E(RwB97XD) =  -3007.86708573     A.U. after   18 cycles

 Excitation energies and oscillator strengths:

 Excited State   1:      Singlet-A      1.6692 eV  742.78 nm  f=0.3863  <S**2>=0.000
     245 -> 248       -0.18526
     246 -> 247        0.68418
     245 <- 248       -0.11787
 This state for optimization and/or second-order correction.
 Total Energy, E(TD-HF/TD-DFT) =  -3007.80574424
 Copying the excited state density for this state as the 1-particle RhoCI density.

 Excited State   2:      Singlet-A      2.1733 eV  570.49 nm  f=0.1718  <S**2>=0.000
     245 -> 247        0.65739
     246 -> 248        0.24284

 Excited State   3:      Singlet-A      3.1318 eV  395.89 nm  f=0.0082  <S**2>=0.000
     243 -> 247        0.68257

 Excited State   4:      Singlet-A      3.3153 eV  373.98 nm  f=0.0107  <S**2>=0.000
     240 -> 247        0.11820
     242 -> 247        0.66258

 Excited State   5:      Singlet-A      3.4287 eV  361.61 nm  f=0.0004  <S**2>=0.000
     241 -> 247        0.57821
     241 -> 248       -0.10655
     241 -> 249       -0.23768
     241 -> 250       -0.13240
     241 -> 251        0.24007

 The electronic state is 1-A.
 Alpha  occ. eigenvalues --  -46.96440 -19.29763 -19.28761 -19.25057 -19.23957
 Alpha  occ. eigenvalues --  -19.23894 -19.22519 -14.47094 -14.46538 -14.44356
 Alpha  occ. eigenvalues --  -14.44287 -10.43645 -10.41969 -10.38793 -10.37799
 Alpha  occ. eigenvalues --  -10.35771 -10.35312 -10.35147 -10.34872 -10.34795
 Alpha  occ. eigenvalues --  -10.34298 -10.34117 -10.33868 -10.33369 -10.32876
 Alpha  occ. eigenvalues --  -10.32765 -10.32701 -10.32562 -10.32221 -10.32194
 Alpha  occ. eigenvalues --  -10.32027 -10.31965 -10.31866 -10.31864 -10.31837
 Alpha  occ. eigenvalues --  -10.31765 -10.31662 -10.31024 -10.30893 -10.30638
 Alpha  occ. eigenvalues --  -10.30527 -10.30493 -10.30291 -10.30211 -10.30145
 Alpha  occ. eigenvalues --  -10.29502 -10.29476 -10.29407 -10.29358 -10.29164
 Alpha  occ. eigenvalues --  -10.29053 -10.28939 -10.28924 -10.28765 -10.28492
 Alpha  occ. eigenvalues --  -10.28352 -10.28283 -10.28242 -10.28173 -10.28141
 Alpha  occ. eigenvalues --  -10.28070 -10.27937 -10.27909 -10.27888 -10.27735
 Alpha  occ. eigenvalues --  -10.27558  -3.22228  -1.95822  -1.95331  -1.95180
 Alpha  occ. eigenvalues --   -1.18386  -1.16636  -1.12913  -1.12082  -1.09301
 Alpha  occ. eigenvalues --   -1.08587  -1.07867  -1.07097  -1.06626  -1.03938
 Alpha  occ. eigenvalues --   -0.95811  -0.92041  -0.91859  -0.91711  -0.91012
 Alpha  occ. eigenvalues --   -0.90860  -0.90304  -0.89905  -0.88827  -0.88283
 Alpha  occ. eigenvalues --   -0.87632  -0.87393  -0.86913  -0.86270  -0.85572
 Alpha  occ. eigenvalues --   -0.84694  -0.84106  -0.83179  -0.82862  -0.82381
 Alpha  occ. eigenvalues --   -0.81329  -0.80277  -0.80069  -0.79224  -0.78040
 Alpha  occ. eigenvalues --   -0.77551  -0.76809  -0.76752  -0.76330  -0.75995
 Alpha  occ. eigenvalues --   -0.75457  -0.74173  -0.73783  -0.71840  -0.71602
 Alpha  occ. eigenvalues --   -0.71113  -0.69809  -0.69613  -0.68397  -0.68247
 Alpha  occ. eigenvalues --   -0.68176  -0.67250  -0.67124  -0.66957  -0.65631
 Alpha  occ. eigenvalues --   -0.65368  -0.64890  -0.63703  -0.63032  -0.62276
 Alpha  occ. eigenvalues --   -0.62028  -0.61557  -0.61269  -0.60919  -0.60475
 Alpha  occ. eigenvalues --   -0.59944  -0.58599  -0.58353  -0.58125  -0.57693
 Alpha  occ. eigenvalues --   -0.57218  -0.57033  -0.56193  -0.55889  -0.55662
 Alpha  occ. eigenvalues --   -0.55585  -0.55299  -0.55219  -0.54804  -0.54646
 Alpha  occ. eigenvalues --   -0.54177  -0.54142  -0.54002  -0.53693  -0.53480
 Alpha  occ. eigenvalues --   -0.53231  -0.53178  -0.52818  -0.52804  -0.52498
 Alpha  occ. eigenvalues --   -0.52049  -0.51805  -0.51576  -0.51480  -0.51414
 Alpha  occ. eigenvalues --   -0.51308  -0.51050  -0.50995  -0.50839  -0.50644
 Alpha  occ. eigenvalues --   -0.50616  -0.50380  -0.50059  -0.49865  -0.49600
 Alpha  occ. eigenvalues --   -0.49414  -0.49329  -0.49052  -0.48862  -0.48567
 Alpha  occ. eigenvalues --   -0.48443  -0.48283  -0.47864  -0.47834  -0.47599
 Alpha  occ. eigenvalues --   -0.47537  -0.47430  -0.47156  -0.47078  -0.47007
 Alpha  occ. eigenvalues --   -0.46643  -0.46423  -0.46058  -0.45787  -0.45758
 Alpha  occ. eigenvalues --   -0.45525  -0.45304  -0.44983  -0.44934  -0.44768
 Alpha  occ. eigenvalues --   -0.44554  -0.44425  -0.44213  -0.44093  -0.43859
 Alpha  occ. eigenvalues --   -0.43814  -0.43520  -0.43316  -0.43149  -0.43000
 Alpha  occ. eigenvalues --   -0.42972  -0.42663  -0.42474  -0.42285  -0.41827
 Alpha  occ. eigenvalues --   -0.41570  -0.41400  -0.40944  -0.40886  -0.40677
 Alpha  occ. eigenvalues --   -0.40226  -0.39749  -0.39467  -0.39219  -0.39121
 Alpha  occ. eigenvalues --   -0.38750  -0.38719  -0.38633  -0.38345  -0.37667
 Alpha  occ. eigenvalues --   -0.37124  -0.37085  -0.36475  -0.36439  -0.36052
 Alpha  occ. eigenvalues --   -0.35878  -0.35723  -0.35598  -0.33805  -0.33056
 Alpha  occ. eigenvalues --   -0.32106  -0.31972  -0.31410  -0.29933  -0.26231
 Alpha  occ. eigenvalues --   -0.23799
 Alpha virt. eigenvalues --   -0.07842   0.00366   0.02530   0.04426   0.04711
 Alpha virt. eigenvalues --    0.05798   0.07286   0.08173   0.08364   0.09355
 Alpha virt. eigenvalues --    0.10831   0.11176   0.11758   0.12221   0.12457

 Mulliken charges:
               1
     1  Mg   0.946812
     2  C   -0.067721
     3  C   -0.054210
     4  C   -0.059827
     5  C   -0.083117
     6  N   -0.279859
     7  C   -0.028442
     8  C   -0.103552
     9  C   -0.129351
    10  C    0.006065
    11  C    0.050444
    12  C    0.043311
    13  C    0.029630
    14  C    0.251864
    15  O   -0.274828
    16  O   -0.401645
    17  N   -0.492520
    18  C    0.174588
    19  C   -0.132365
    20  C   -0.081664
    21  C    0.193856
    22  C    0.084629
    23  C    0.010084
    24  O   -0.236694
    25  C   -0.004256
    26  N   -0.348428
    27  C    0.009620
    28  C   -0.082734
    29  C   -0.067386
    30  C    0.086328
    31  C    0.045419
    32  C   -0.007939
    33  C   -0.045352
    34  N   -0.395630
    35  C    0.106687
    36  C   -0.189366
    37  C   -0.043726
    38  C    0.152499
    39  C    0.078786
    40  C    0.077367
    41  O   -0.193239
    42  C   -0.000383
    43  C    0.242902
    44  O   -0.241831
    45  O   -0.369558
    46  C    0.140298
    47  C    0.284494
    48  C   -0.184998
    49  C   -0.246397
    50  C    0.034902
    51  C    0.070627
    52  C   -0.087207
    53  C    0.043942
    54  C   -0.200813
    55  C   -0.014731
    56  C    0.031201
    57  C   -0.044115
    58  C    0.053935
    59  C   -0.202413
    60  C   -0.004294
    61  C    0.027272
    62  C   -0.050397
    63  C    0.031331
    64  C   -0.213244
    65  C    0.005433
    66  C   -0.005585
    67  H   -0.011505
    68  H   -0.050524
    69  H   -0.006520
    70  H    0.030906
    71  H    0.029262
    72  H    0.044342
    73  H    0.043491
    74  H    0.041149
    75  H    0.041572
    76  H    0.077313
    77  H    0.043507
    78  H    0.044214
    79  H    0.057504
    80  H    0.051619
    81  H    0.015813
    82  H    0.056982
    83  H    0.051904
    84  H    0.049331
    85  H    0.040206
    86  H    0.032904
    87  H    0.028970
    88  H    0.051156
    89  H    0.051453
    90  H    0.034170
    91  H    0.028422
    92  H    0.039418
    93  H    0.032379
    94  H    0.039897
    95  H    0.046521
    96  H    0.046399
    97  H    0.068527
    98  H    0.072882
    99  H    0.047738
   100  H    0.090455
   101  H    0.040212
   102  H    0.059753
   103  H    0.051878
   104  H    0.033159
   105  H    0.052936
   106  H    0.055728
   107  H    0.046896
   108  H    0.013149
   109  H    0.042252
   110  H    0.026077
   111  H    0.027159
   112  H    0.016191
   113  H    0.001411
   114  H    0.029320
   115  H    0.014573
   116  H    0.046127
   117  H    0.029759
   118  H    0.007256
   119  H    0.015894
   120  H    0.024694
   121  H    0.010055
   122  H   -0.005542
   123  H    0.005973
   124  H    0.008562
   125  H    0.026569
   126  H    0.027088
   127  H    0.024183
   128  H    0.013402
   129  H    0.015681
   130  H    0.017490
   131  H    0.016485
   132  H    0.016853
   133  H    0.013663
   134  H    0.021113
   135  H    0.038130
   136  H    0.022534
   137  H    0.006625
   138  H    0.026218
   139  H    0.020957
   140  H    0.033168
 Sum of Mulliken charges =  -0.00000

 Dipole moment (field-independent basis, Debye):
    X=              1.0487    Y=              3.0484    Z=              0.2987  Tot=              3.2376
 Quadrupole moment (field-independent basis, Debye-Ang):
   XX=           -386.7980   YY=           -421.7563   ZZ=           -378.2177
   XY=             42.0715   XZ=              1.8053   YZ=             31.6274

 Normal termination of Gaussian 16 at Tue Apr 26 21:59:41 2022.
