 Gaussian 16, Revision A.03,
 Gaussian 16:  ES64L-G16RevA.03 25-Dec-2016

 --------------------
 #p ZINDO=(nstates=5)
 --------------------

 ------------------------------
 step_1001_chromophore_20 ZINDO
 ------------------------------
 Symbolic Z-matrix:
 Charge =  0 Multiplicity = 1

                         Standard orientation:
 ---------------------------------------------------------------------
 Center     Atomic      Atomic             Coordinates (Angstroms)
 Number     Number       Type             X           Y           Z
 ---------------------------------------------------------------------
      1         12           0        4.158844    1.550695   -0.725055
      2          6           0        4.241310   -1.977359   -1.006088
      3          6           0        1.861814    1.526952   -3.277362
      4          6           0        3.300627    4.706438    0.251434
      5          6           0        6.176961    1.350597    2.129438
      6          7           0        3.093962   -0.077564   -1.942034
      7          6           0        3.341092   -1.381157   -1.878888
      8          6           0        2.420396   -2.121978   -2.867090
      9          6           0        2.068111   -0.963077   -3.841092
     10          6           0        2.358474    0.259689   -3.021288
     11          6           0        2.832802   -0.970275   -5.193589
     12          6           0        1.113831   -2.584732   -2.142400
     13          6           0        0.491361   -3.940653   -2.697536
     14          6           0       -0.161977   -4.887022   -1.757383
     15          8           0        0.295930   -5.967504   -1.322488
     16          8           0       -1.341363   -4.315524   -1.200674
     17          7           0        2.780902    2.919473   -1.440772
     18          6           0        1.974418    2.762295   -2.591172
     19          6           0        1.242190    3.935849   -2.787045
     20          6           0        1.551579    4.856152   -1.701476
     21          6           0        2.526006    4.125607   -0.850035
     22          6           0        0.378574    4.185751   -3.985041
     23          6           0        1.038716    6.227177   -1.576540
     24          8           0        0.298937    6.655474   -2.435771
     25          6           0        1.237926    7.105318   -0.370988
     26          7           0        4.718853    2.965232    0.855554
     27          6           0        4.254192    4.175165    1.049425
     28          6           0        4.832259    4.899317    2.217465
     29          6           0        5.732965    3.779556    2.845652
     30          6           0        5.503763    2.579780    1.940035
     31          6           0        5.560710    6.191392    1.747893
     32          6           0        5.631714    3.491978    4.358914
     33          6           0        6.865093    3.193968    5.094519
     34          7           0        5.179803   -0.022434    0.323801
     35          6           0        5.930710    0.104858    1.445951
     36          6           0        6.393080   -1.255896    1.741734
     37          6           0        5.734215   -2.102905    0.779081
     38          6           0        4.962075   -1.259371   -0.039198
     39          6           0        7.246411   -1.763747    2.924530
     40          6           0        5.704036   -3.418380    0.252248
     41          8           0        6.332867   -4.395264    0.583797
     42          6           0        4.671874   -3.435950   -0.916622
     43          6           0        3.628504   -4.342857   -0.613163
     44          8           0        2.782668   -4.294035    0.256283
     45          8           0        3.777754   -5.409551   -1.429026
     46          6           0        3.238790   -6.695263   -0.975565
     47          6           0       -1.944984   -5.123612   -0.157646
     48          6           0       -3.157698   -4.457119    0.302615
     49          6           0       -4.225770   -5.013634    0.959389
     50          6           0       -4.313841   -6.552758    1.491790
     51          6           0       -5.439357   -4.064095    1.168800
     52          6           0       -4.979067   -2.863266    2.012022
     53          6           0       -5.753591   -2.629018    3.324625
     54          6           0       -5.580885   -1.157912    3.831975
     55          6           0       -4.820034   -1.336473    5.198372
     56          6           0       -6.923942   -0.278120    3.865596
     57          6           0       -6.920964    0.885233    2.850977
     58          6           0       -6.736138    0.519256    1.353822
     59          6           0       -8.021425    0.433390    0.543855
     60          6           0       -7.857142   -0.520017   -0.650100
     61          6           0       -8.608843    1.776851    0.070889
     62          6           0      -10.058087    1.933314    0.446268
     63          6           0      -10.655628    3.209057   -0.239709
     64          6           0      -11.440372    2.951210   -1.494451
     65          6           0      -11.354865    4.126234   -2.437974
     66          6           0      -12.975686    2.533759   -1.284125
     67          1           0        1.296542    1.537067   -4.211246
     68          1           0        2.940245    5.678492    0.593895
     69          1           0        6.818681    1.279544    3.009887
     70          1           0        2.922544   -2.955219   -3.357212
     71          1           0        1.025075   -0.852208   -4.137541
     72          1           0        2.026518   -0.857314   -5.917947
     73          1           0        3.412179   -1.885373   -5.315916
     74          1           0        3.489408   -0.102020   -5.144541
     75          1           0        0.381209   -1.824484   -2.411200
     76          1           0        1.231502   -2.599702   -1.058448
     77          1           0        1.215792   -4.478197   -3.308466
     78          1           0       -0.234010   -3.666788   -3.463509
     79          1           0        0.571415    5.104977   -4.538496
     80          1           0       -0.650152    4.282011   -3.637338
     81          1           0        0.414972    3.416909   -4.755857
     82          1           0        2.266882    7.455227   -0.285589
     83          1           0        1.022525    6.555413    0.544675
     84          1           0        0.586857    7.979428   -0.351270
     85          1           0        3.999009    5.140303    2.877835
     86          1           0        6.772781    4.028252    2.631133
     87          1           0        6.454203    6.286697    2.364747
     88          1           0        4.898588    7.016789    2.012926
     89          1           0        5.946966    6.070904    0.736208
     90          1           0        4.984905    2.620431    4.454501
     91          1           0        5.122882    4.288509    4.901233
     92          1           0        7.723120    3.085461    4.431027
     93          1           0        6.726730    2.231575    5.588094
     94          1           0        7.034760    3.897607    5.909734
     95          1           0        6.851463   -1.310552    3.833414
     96          1           0        8.252955   -1.385294    2.748924
     97          1           0        7.211007   -2.854080    2.934757
     98          1           0        5.132283   -3.655802   -1.879726
     99          1           0        3.113860   -7.247268   -1.907171
    100          1           0        2.409230   -6.573756   -0.279246
    101          1           0        4.024863   -7.235842   -0.447777
    102          1           0       -1.290202   -5.158191    0.712751
    103          1           0       -2.327342   -6.098549   -0.458784
    104          1           0       -3.210376   -3.456872   -0.126458
    105          1           0       -3.316728   -6.967716    1.345625
    106          1           0       -5.145210   -6.948503    0.908780
    107          1           0       -4.663908   -6.461801    2.519945
    108          1           0       -6.281572   -4.491271    1.713016
    109          1           0       -5.710722   -3.595055    0.222254
    110          1           0       -4.915601   -1.935987    1.442339
    111          1           0       -3.950073   -3.093646    2.286244
    112          1           0       -5.503002   -3.354309    4.099379
    113          1           0       -6.809791   -2.829227    3.143161
    114          1           0       -4.916883   -0.527059    3.241017
    115          1           0       -4.848011   -0.354902    5.672143
    116          1           0       -3.769496   -1.622420    5.156604
    117          1           0       -5.465082   -2.016571    5.754651
    118          1           0       -7.023004    0.192509    4.843881
    119          1           0       -7.832496   -0.878401    3.822636
    120          1           0       -6.290249    1.711316    3.177945
    121          1           0       -7.918554    1.317718    2.927009
    122          1           0       -6.195081   -0.404094    1.144499
    123          1           0       -6.286756    1.388886    0.873375
    124          1           0       -8.649765   -0.106367    1.253239
    125          1           0       -7.643064   -1.527103   -0.289196
    126          1           0       -7.046271   -0.310943   -1.347162
    127          1           0       -8.799750   -0.483096   -1.196090
    128          1           0       -8.589334    1.801674   -1.017822
    129          1           0       -8.026355    2.612415    0.457432
    130          1           0      -10.182355    1.958009    1.528689
    131          1           0      -10.586934    1.043403    0.105921
    132          1           0       -9.869105    3.925449   -0.479366
    133          1           0      -11.240788    3.669216    0.556016
    134          1           0      -11.028418    2.085752   -2.012342
    135          1           0      -10.875216    3.901664   -3.390611
    136          1           0      -11.000812    5.019028   -1.923030
    137          1           0      -12.321562    4.526506   -2.744394
    138          1           0      -13.635241    3.279844   -1.727140
    139          1           0      -13.215335    2.493557   -0.221313
    140          1           0      -13.210150    1.556396   -1.706007
 ---------------------------------------------------------------------

 SCF Done:  E(RZINDO/S) =  -474.584490493     A.U. after   20 cycles

 Excitation energies and oscillator strengths:

 Excited State   1:      Singlet-A      1.2478 eV  993.65 nm  f=0.6363  <S**2>=0.000
     175 ->178         0.19279
     176 ->177         0.66300
 This state for optimization and/or second-order correction.
 Total Energy, E(CIS/TDA) =  -474.538635971
 Copying the excited state density for this state as the 1-particle RhoCI density.

 Excited State   2:      Singlet-A      1.9360 eV  640.41 nm  f=0.1370  <S**2>=0.000
     175 ->177         0.59181
     176 ->178        -0.35980

 Excited State   3:      Singlet-A      2.8916 eV  428.77 nm  f=0.0001  <S**2>=0.000
     169 ->179        -0.16424
     169 ->182        -0.11167
     170 ->177         0.32927
     170 ->178         0.11811
     170 ->179        -0.25299
     170 ->182        -0.36071
     170 ->185        -0.16949
     170 ->187        -0.15914

 Excited State   4:      Singlet-A      2.9201 eV  424.59 nm  f=0.0001  <S**2>=0.000
     167 ->179        -0.10358
     168 ->177         0.19034
     168 ->179         0.20518
     168 ->182        -0.11452
     168 ->185         0.10068
     169 ->177         0.33549
     169 ->179         0.27697
     169 ->182        -0.18893
     169 ->185         0.12440
     170 ->179        -0.15590

 Excited State   5:      Singlet-A      3.0276 eV  409.51 nm  f=0.0405  <S**2>=0.000
     171 ->177         0.36260
     173 ->177         0.55028
     176 ->178        -0.12053
     176 ->179        -0.10699

 The electronic state is 1-A.
 Alpha  occ. eigenvalues --   -1.86672  -1.82962  -1.81336  -1.75218  -1.72629
 Alpha  occ. eigenvalues --   -1.70467  -1.66197  -1.60429  -1.60113  -1.60040
 Alpha  occ. eigenvalues --   -1.54891  -1.50617  -1.49987  -1.49470  -1.46186
 Alpha  occ. eigenvalues --   -1.44282  -1.42833  -1.40804  -1.39449  -1.37352
 Alpha  occ. eigenvalues --   -1.36976  -1.33038  -1.32135  -1.31186  -1.29091
 Alpha  occ. eigenvalues --   -1.28149  -1.27117  -1.23410  -1.20459  -1.18824
 Alpha  occ. eigenvalues --   -1.18565  -1.15395  -1.14809  -1.13888  -1.12673
 Alpha  occ. eigenvalues --   -1.12351  -1.10757  -1.09915  -1.05843  -1.03994
 Alpha  occ. eigenvalues --   -1.02137  -0.99267  -0.98256  -0.96916  -0.96627
 Alpha  occ. eigenvalues --   -0.95290  -0.94984  -0.94500  -0.93808  -0.92680
 Alpha  occ. eigenvalues --   -0.91258  -0.90632  -0.89465  -0.88441  -0.86551
 Alpha  occ. eigenvalues --   -0.85688  -0.84066  -0.83931  -0.82443  -0.80661
 Alpha  occ. eigenvalues --   -0.79371  -0.77401  -0.77323  -0.76860  -0.76462
 Alpha  occ. eigenvalues --   -0.75436  -0.74963  -0.74387  -0.74019  -0.73000
 Alpha  occ. eigenvalues --   -0.72586  -0.72433  -0.71977  -0.71453  -0.70872
 Alpha  occ. eigenvalues --   -0.70015  -0.69138  -0.68408  -0.68161  -0.67689
 Alpha  occ. eigenvalues --   -0.67455  -0.66570  -0.66345  -0.66056  -0.65231
 Alpha  occ. eigenvalues --   -0.65073  -0.64632  -0.64177  -0.63839  -0.63644
 Alpha  occ. eigenvalues --   -0.63261  -0.62812  -0.62710  -0.62469  -0.61789
 Alpha  occ. eigenvalues --   -0.61571  -0.61087  -0.60884  -0.60103  -0.60057
 Alpha  occ. eigenvalues --   -0.59677  -0.59066  -0.58686  -0.58594  -0.58339
 Alpha  occ. eigenvalues --   -0.57679  -0.57393  -0.57293  -0.56483  -0.56299
 Alpha  occ. eigenvalues --   -0.55806  -0.55601  -0.55503  -0.55434  -0.54579
 Alpha  occ. eigenvalues --   -0.54220  -0.53937  -0.53457  -0.53250  -0.52876
 Alpha  occ. eigenvalues --   -0.52543  -0.52331  -0.52020  -0.51818  -0.51638
 Alpha  occ. eigenvalues --   -0.50891  -0.50708  -0.50677  -0.50067  -0.49815
 Alpha  occ. eigenvalues --   -0.49704  -0.49295  -0.48807  -0.48617  -0.48440
 Alpha  occ. eigenvalues --   -0.48345  -0.47755  -0.47599  -0.47422  -0.47355
 Alpha  occ. eigenvalues --   -0.47142  -0.46981  -0.46713  -0.46693  -0.46466
 Alpha  occ. eigenvalues --   -0.46083  -0.45968  -0.45805  -0.45402  -0.45217
 Alpha  occ. eigenvalues --   -0.44985  -0.44933  -0.44701  -0.44155  -0.44048
 Alpha  occ. eigenvalues --   -0.43073  -0.42946  -0.42804  -0.42535  -0.42038
 Alpha  occ. eigenvalues --   -0.41730  -0.41450  -0.40602  -0.39139  -0.38577
 Alpha  occ. eigenvalues --   -0.37827  -0.36940  -0.35157  -0.34783  -0.34416
 Alpha  occ. eigenvalues --   -0.32976  -0.32620  -0.32015  -0.29964  -0.26772
 Alpha  occ. eigenvalues --   -0.22426
 Alpha virt. eigenvalues --   -0.09278  -0.01872  -0.00473   0.00759   0.01173
 Alpha virt. eigenvalues --    0.01391   0.02947   0.03335   0.05124   0.05285
 Alpha virt. eigenvalues --    0.06581   0.07017   0.07810   0.07863   0.08101

 Mulliken charges:
               1
     1  Mg   0.427446
     2  C   -0.034616
     3  C   -0.051679
     4  C   -0.111905
     5  C   -0.083857
     6  N   -0.271084
     7  C    0.125438
     8  C    0.005288
     9  C   -0.001196
    10  C    0.124390
    11  C   -0.056910
    12  C   -0.015466
    13  C    0.008235
    14  C    0.469013
    15  O   -0.509589
    16  O   -0.276850
    17  N   -0.332660
    18  C    0.089273
    19  C    0.053403
    20  C   -0.067737
    21  C    0.133329
    22  C   -0.035759
    23  C    0.329963
    24  O   -0.532550
    25  C   -0.026033
    26  N   -0.287882
    27  C    0.170574
    28  C    0.001174
    29  C    0.003292
    30  C    0.123854
    31  C   -0.050205
    32  C   -0.021091
    33  C   -0.050473
    34  N   -0.302015
    35  C    0.104665
    36  C    0.016099
    37  C   -0.060512
    38  C    0.116795
    39  C   -0.039431
    40  C    0.345761
    41  O   -0.519252
    42  C    0.064040
    43  C    0.505588
    44  O   -0.531517
    45  O   -0.283746
    46  C    0.071901
    47  C    0.107429
    48  C   -0.084560
    49  C   -0.046665
    50  C   -0.049870
    51  C   -0.027015
    52  C   -0.040017
    53  C   -0.032759
    54  C   -0.023000
    55  C   -0.062514
    56  C   -0.033234
    57  C   -0.032027
    58  C   -0.040101
    59  C   -0.015875
    60  C   -0.057824
    61  C   -0.024833
    62  C   -0.036525
    63  C   -0.028795
    64  C   -0.001725
    65  C   -0.059927
    66  C   -0.063824
    67  H    0.021932
    68  H    0.018653
    69  H    0.029424
    70  H    0.032244
    71  H    0.026587
    72  H    0.026229
    73  H    0.026994
    74  H    0.028029
    75  H    0.023956
    76  H    0.048946
    77  H    0.031261
    78  H    0.030626
    79  H    0.039363
    80  H    0.036103
    81  H    0.014253
    82  H    0.033407
    83  H    0.027662
    84  H    0.034303
    85  H    0.032935
    86  H    0.029058
    87  H    0.012150
    88  H    0.031370
    89  H    0.037729
    90  H    0.017648
    91  H    0.016060
    92  H    0.022459
    93  H    0.013808
    94  H    0.020667
    95  H    0.029967
    96  H    0.031230
    97  H    0.042944
    98  H    0.054556
    99  H    0.035450
   100  H    0.073412
   101  H    0.031105
   102  H    0.057667
   103  H    0.056061
   104  H    0.031450
   105  H    0.042335
   106  H    0.035275
   107  H    0.032120
   108  H    0.025166
   109  H    0.028397
   110  H    0.023512
   111  H    0.017066
   112  H    0.023592
   113  H    0.010527
   114  H    0.021846
   115  H    0.004023
   116  H    0.030654
   117  H    0.021264
   118  H    0.009280
   119  H    0.023523
   120  H    0.022465
   121  H    0.007029
   122  H    0.030620
   123  H    0.013015
   124  H    0.015695
   125  H    0.010950
   126  H    0.019354
   127  H    0.013291
   128  H    0.018749
   129  H    0.020464
   130  H    0.017181
   131  H    0.016985
   132  H    0.018010
   133  H    0.014262
   134  H    0.017785
   135  H    0.022670
   136  H    0.019463
   137  H    0.007464
   138  H    0.021071
   139  H    0.015348
   140  H    0.020000
 Sum of Mulliken charges =  -0.00000

 Dipole moment (field-independent basis, Debye):
    X=              1.3202    Y=              3.6285    Z=             -0.4371  Tot=              3.8859
 N-N= 4.483551697906D+03 E-N= 0.000000000000D+00  KE=-9.642153733053D+03
 Leave Link  601 at Tue Apr 26 22:12:48 2022, MaxMem=  6710886400 cpu:               0.8 elap:               0.0
 (Enter /sw/apps/gaussian-16.0/g16/l9999.exe)
 1\1\GINC-BP1-COMPUTE165\SP\RZINDO CIS\STO-3G\C55H74Mg1N4O6\OF15641\26-
 Apr-2022\0\\#p ZINDO=(nstates=5)\\step_1001_chromophore_20 ZINDO\\0,1\
 Mg,0,6.606,57.271,41.575\C,0,5.141,54.05,41.466\C,0,9.512,55.796,40.49
 3\C,0,7.647,60.392,40.667\C,0,3.464,58.655,42.263\N,0,7.221,55.15,40.9
 51\C,0,6.463,54.063,41.042\C,0,7.257,52.845,40.533\C,0,8.71,53.372,40.
 697\C,0,8.521,54.86,40.738\C,0,9.481,52.834,41.934\C,0,6.974,52.615,39
 .012\C,0,7.02,51.092,38.551\C,0,6.085,50.615,37.5\O,0,5.055,49.921,37.

 Normal termination of Gaussian 16 at Tue Apr 26 22:12:48 2022.
