 Gaussian 16, Revision A.03,
 Gaussian 16:  ES64L-G16RevA.03 25-Dec-2016

 ------------------------------
 #p blyp/Def2SVP td=(nstates=5)
 ------------------------------

 --------------------------------------------------
 step_801_chromophore_27 TDDFT with blyp functional
 --------------------------------------------------
 Symbolic Z-matrix:
 Charge =  0 Multiplicity = 1

                         Standard orientation:
 ---------------------------------------------------------------------
 Center     Atomic      Atomic             Coordinates (Angstroms)
 Number     Number       Type             X           Y           Z
 ---------------------------------------------------------------------
      1         12           0       -4.596340    0.856058    0.068761
      2          6           0       -3.864402   -2.564625    0.313641
      3          6           0       -1.194458    1.494409    0.555888
      4          6           0       -5.368316    4.006988    0.002597
      5          6           0       -8.112798    0.012112    0.264772
      6          7           0       -2.760885   -0.439880    0.529409
      7          6           0       -2.686939   -1.826178    0.467493
      8          6           0       -1.233914   -2.307286    0.555276
      9          6           0       -0.412629   -0.975670    0.831361
     10          6           0       -1.524478    0.126239    0.688711
     11          6           0        0.306989   -0.950217    2.294362
     12          6           0       -0.783115   -3.090046   -0.755469
     13          6           0        0.334085   -4.093665   -0.578388
     14          6           0        1.255350   -4.133855   -1.818834
     15          8           0        0.951275   -4.637209   -2.930722
     16          8           0        2.462476   -3.385066   -1.661359
     17          7           0       -3.428460    2.490212    0.284112
     18          6           0       -2.098855    2.606883    0.409650
     19          6           0       -1.720007    3.999073    0.162333
     20          6           0       -2.929792    4.748613    0.075253
     21          6           0       -3.978099    3.732007    0.127728
     22          6           0       -0.293824    4.370448    0.197060
     23          6           0       -3.111250    6.283946    0.163066
     24          8           0       -4.211393    6.843956    0.281824
     25          6           0       -1.935452    7.192334    0.313011
     26          7           0       -6.579115    1.911511    0.308956
     27          6           0       -6.539495    3.193459    0.034802
     28          6           0       -8.009259    3.847633    0.059824
     29          6           0       -8.911426    2.539825   -0.031609
     30          6           0       -7.852556    1.429126    0.198390
     31          6           0       -8.217934    4.773032    1.246532
     32          6           0       -9.601288    2.520579   -1.360699
     33          6           0      -11.080835    1.957183   -1.287549
     34          7           0       -5.784222   -0.821292    0.188509
     35          6           0       -7.172113   -0.997932    0.218975
     36          6           0       -7.507360   -2.409448    0.254454
     37          6           0       -6.240139   -3.097005    0.150872
     38          6           0       -5.204190   -2.059366    0.252149
     39          6           0       -8.925156   -3.022241    0.403544
     40          6           0       -5.558750   -4.385276    0.180426
     41          8           0       -5.942534   -5.525038    0.204116
     42          6           0       -3.988807   -4.069588    0.115653
     43          6           0       -3.285478   -4.841357    1.148108
     44          8           0       -3.318706   -4.559457    2.363730
     45          8           0       -2.640874   -5.923017    0.555084
     46          6           0       -2.029234   -6.813490    1.543771
     47          6           0        3.174887   -3.048819   -2.888514
     48          6           0        4.205150   -1.960109   -2.629219
     49          6           0        5.511863   -2.115070   -2.224829
     50          6           0        6.196999   -3.425397   -1.810799
     51          6           0        6.263130   -0.833153   -2.076547
     52          6           0        6.540871   -0.192261   -3.471210
     53          6           0        8.035549    0.277026   -3.638632
     54          6           0        8.231331    1.804111   -3.812738
     55          6           0        8.186425    2.068463   -5.269504
     56          6           0        9.475515    2.297630   -3.179753
     57          6           0        9.204416    2.980005   -1.781874
     58          6           0       10.212060    2.629963   -0.719211
     59          6           0        9.849613    1.437252    0.275124
     60          6           0       10.140888    0.105111   -0.410243
     61          6           0       10.585589    1.589553    1.662746
     62          6           0        9.671209    1.395631    2.875863
     63          6           0       10.023101    0.136397    3.721229
     64          6           0       10.313268    0.371276    5.243587
     65          6           0       11.735911    0.002925    5.687727
     66          6           0        9.221886   -0.215127    6.160140
     67          1           0       -0.114975    1.656711    0.507409
     68          1           0       -5.573282    5.069478   -0.143787
     69          1           0       -9.170342   -0.259108    0.281687
     70          1           0       -1.128436   -3.017384    1.374771
     71          1           0        0.385080   -0.849739    0.097964
     72          1           0        1.295807   -1.408322    2.269546
     73          1           0       -0.282410   -1.472158    3.047188
     74          1           0        0.535716    0.048801    2.666781
     75          1           0       -0.610859   -2.407531   -1.587457
     76          1           0       -1.654572   -3.615568   -1.146487
     77          1           0       -0.119009   -5.083184   -0.541960
     78          1           0        0.873026   -3.968716    0.360879
     79          1           0       -0.121326    5.308611   -0.330517
     80          1           0        0.358840    3.521881   -0.008921
     81          1           0       -0.090073    4.521396    1.256664
     82          1           0       -1.320747    6.722695    1.081107
     83          1           0       -2.350386    8.136963    0.663804
     84          1           0       -1.490539    7.423726   -0.655432
     85          1           0       -7.955595    4.417899   -0.866917
     86          1           0       -9.501279    2.576223    0.883816
     87          1           0       -8.051736    4.209243    2.164758
     88          1           0       -9.228989    5.163293    1.363340
     89          1           0       -7.381538    5.470150    1.188580
     90          1           0       -9.083419    1.764641   -1.951310
     91          1           0       -9.650185    3.498706   -1.839141
     92          1           0      -11.189285    0.969747   -1.734383
     93          1           0      -11.719898    2.692617   -1.776961
     94          1           0      -11.404799    1.840002   -0.253122
     95          1           0       -8.856510   -4.104203    0.292988
     96          1           0       -9.577832   -2.650877   -0.386987
     97          1           0       -9.346535   -2.750845    1.371992
     98          1           0       -3.568846   -4.476378   -0.804131
     99          1           0       -1.511526   -7.523683    0.898982
    100          1           0       -2.755476   -7.355945    2.149598
    101          1           0       -1.331284   -6.200528    2.113236
    102          1           0        2.503488   -2.726446   -3.684547
    103          1           0        3.663803   -3.981139   -3.171364
    104          1           0        3.858838   -0.940190   -2.797946
    105          1           0        6.220829   -3.462477   -0.722036
    106          1           0        7.201945   -3.450438   -2.230086
    107          1           0        5.538282   -4.194553   -2.214212
    108          1           0        7.100287   -1.065791   -1.418241
    109          1           0        5.540432   -0.203895   -1.556587
    110          1           0        5.843956    0.633726   -3.612410
    111          1           0        6.315704   -0.846475   -4.313840
    112          1           0        8.353309   -0.334792   -4.482787
    113          1           0        8.457621   -0.119551   -2.714728
    114          1           0        7.378700    2.335155   -3.389381
    115          1           0        9.084663    1.560881   -5.620400
    116          1           0        8.144208    3.143656   -5.444336
    117          1           0        7.397253    1.526223   -5.789687
    118          1           0        9.931461    2.998315   -3.879563
    119          1           0       10.217935    1.538094   -2.933412
    120          1           0        8.170759    2.831925   -1.467441
    121          1           0        9.291846    4.036694   -2.034107
    122          1           0       10.245484    3.474148   -0.031414
    123          1           0       11.158164    2.408903   -1.213387
    124          1           0        8.795874    1.566842    0.522766
    125          1           0        9.230677   -0.491933   -0.450930
    126          1           0       10.930947   -0.362276    0.177646
    127          1           0       10.614252    0.322450   -1.367823
    128          1           0       11.006694    2.574214    1.866761
    129          1           0       11.444609    0.937845    1.821888
    130          1           0        8.624112    1.263419    2.603094
    131          1           0        9.681306    2.291981    3.495332
    132          1           0       10.844322   -0.459081    3.322744
    133          1           0        9.212058   -0.577637    3.582906
    134          1           0       10.291212    1.440237    5.457498
    135          1           0       11.716728   -0.271866    6.742359
    136          1           0       12.430770    0.841320    5.742212
    137          1           0       12.282117   -0.743087    5.111135
    138          1           0        8.761625    0.516011    6.824067
    139          1           0        9.626409   -1.144881    6.560381
    140          1           0        8.381014   -0.516357    5.535920
 ---------------------------------------------------------------------

 SCF Done:  E(RB-LYP) =  -3007.38212479     A.U. after   21 cycles

 Excitation energies and oscillator strengths:

 Excited State   1:      Singlet-A      1.8294 eV  677.75 nm  f=0.2716  <S**2>=0.000
     245 -> 248       -0.20551
     246 -> 247        0.67875
     246 <- 247       -0.13511
 This state for optimization and/or second-order correction.
 Total Energy, E(TD-HF/TD-DFT) =  -3007.31489715
 Copying the excited state density for this state as the 1-particle RhoCI density.

 Excited State   2:      Singlet-A      1.9777 eV  626.92 nm  f=0.0518  <S**2>=0.000
     243 -> 247        0.17443
     244 -> 247        0.29938
     245 -> 247        0.57431
     246 -> 248        0.19866

 Excited State   3:      Singlet-A      2.0855 eV  594.51 nm  f=0.0043  <S**2>=0.000
     243 -> 247       -0.43001
     244 -> 247        0.54134
     245 -> 247       -0.12139

 Excited State   4:      Singlet-A      2.1278 eV  582.69 nm  f=0.0179  <S**2>=0.000
     243 -> 247        0.52904
     244 -> 247        0.33659
     245 -> 247       -0.26946
     246 -> 248       -0.15584

 Excited State   5:      Singlet-A      2.2981 eV  539.51 nm  f=0.0005  <S**2>=0.000
     242 -> 247        0.70676

 The electronic state is 1-A.
 Alpha  occ. eigenvalues --  -46.28086 -18.82428 -18.81152 -18.77030 -18.76545
 Alpha  occ. eigenvalues --  -18.76082 -18.75890 -14.03280 -14.03136 -14.01705
 Alpha  occ. eigenvalues --  -14.01381 -10.04455 -10.03396 -10.00582  -9.99866
 Alpha  occ. eigenvalues --   -9.97528  -9.97221  -9.96904  -9.96803  -9.96682
 Alpha  occ. eigenvalues --   -9.96264  -9.96223  -9.96054  -9.95564  -9.95483
 Alpha  occ. eigenvalues --   -9.95021  -9.94754  -9.94346  -9.94281  -9.94111
 Alpha  occ. eigenvalues --   -9.93858  -9.93760  -9.93609  -9.93528  -9.93451
 Alpha  occ. eigenvalues --   -9.93434  -9.93384  -9.93338  -9.93194  -9.93107
 Alpha  occ. eigenvalues --   -9.93004  -9.92837  -9.92762  -9.92743  -9.92353
 Alpha  occ. eigenvalues --   -9.92335  -9.92294  -9.92138  -9.91984  -9.91977
 Alpha  occ. eigenvalues --   -9.91932  -9.91878  -9.91856  -9.91618  -9.91333
 Alpha  occ. eigenvalues --   -9.91222  -9.91221  -9.91204  -9.91149  -9.91126
 Alpha  occ. eigenvalues --   -9.91040  -9.91019  -9.90798  -9.90769  -9.90723
 Alpha  occ. eigenvalues --   -9.90717  -2.92631  -1.73036  -1.72573  -1.72303
 Alpha  occ. eigenvalues --   -0.96865  -0.95369  -0.92353  -0.91340  -0.88904
 Alpha  occ. eigenvalues --   -0.88126  -0.86891  -0.86306  -0.85092  -0.84242
 Alpha  occ. eigenvalues --   -0.74757  -0.74332  -0.73283  -0.72535  -0.72459
 Alpha  occ. eigenvalues --   -0.72367  -0.71695  -0.70969  -0.70849  -0.70135
 Alpha  occ. eigenvalues --   -0.69421  -0.68487  -0.68053  -0.67401  -0.67167
 Alpha  occ. eigenvalues --   -0.66669  -0.66143  -0.65374  -0.65044  -0.64568
 Alpha  occ. eigenvalues --   -0.64344  -0.62845  -0.62102  -0.61708  -0.61042
 Alpha  occ. eigenvalues --   -0.60393  -0.60362  -0.60096  -0.59824  -0.59159
 Alpha  occ. eigenvalues --   -0.57698  -0.57254  -0.56539  -0.55216  -0.54323
 Alpha  occ. eigenvalues --   -0.53935  -0.53621  -0.52737  -0.52612  -0.51699
 Alpha  occ. eigenvalues --   -0.51219  -0.51197  -0.50899  -0.50315  -0.50277
 Alpha  occ. eigenvalues --   -0.49471  -0.49228  -0.49070  -0.47982  -0.46768
 Alpha  occ. eigenvalues --   -0.45772  -0.45726  -0.45623  -0.45072  -0.44177
 Alpha  occ. eigenvalues --   -0.43462  -0.43279  -0.42909  -0.42671  -0.42305
 Alpha  occ. eigenvalues --   -0.42062  -0.41548  -0.41425  -0.41351  -0.41019
 Alpha  occ. eigenvalues --   -0.40936  -0.40771  -0.40563  -0.40349  -0.40144
 Alpha  occ. eigenvalues --   -0.39919  -0.39537  -0.39487  -0.39325  -0.39281
 Alpha  occ. eigenvalues --   -0.39179  -0.39031  -0.38633  -0.38538  -0.38246
 Alpha  occ. eigenvalues --   -0.38229  -0.38072  -0.37820  -0.37758  -0.37429
 Alpha  occ. eigenvalues --   -0.37077  -0.36903  -0.36834  -0.36586  -0.36404
 Alpha  occ. eigenvalues --   -0.36309  -0.36115  -0.35913  -0.35822  -0.35621
 Alpha  occ. eigenvalues --   -0.35525  -0.35391  -0.35245  -0.35092  -0.34986
 Alpha  occ. eigenvalues --   -0.34573  -0.34537  -0.34421  -0.34361  -0.34011
 Alpha  occ. eigenvalues --   -0.33675  -0.33559  -0.33463  -0.33352  -0.33173
 Alpha  occ. eigenvalues --   -0.33115  -0.33007  -0.32777  -0.32586  -0.32389
 Alpha  occ. eigenvalues --   -0.32231  -0.32192  -0.32128  -0.31832  -0.31528
 Alpha  occ. eigenvalues --   -0.31384  -0.31085  -0.31042  -0.30868  -0.30781
 Alpha  occ. eigenvalues --   -0.30676  -0.30461  -0.30347  -0.30259  -0.30187
 Alpha  occ. eigenvalues --   -0.29879  -0.29735  -0.29627  -0.29197  -0.28832
 Alpha  occ. eigenvalues --   -0.28461  -0.28324  -0.28143  -0.28130  -0.27941
 Alpha  occ. eigenvalues --   -0.27683  -0.27340  -0.27169  -0.27121  -0.26417
 Alpha  occ. eigenvalues --   -0.26343  -0.26285  -0.25789  -0.25609  -0.25240
 Alpha  occ. eigenvalues --   -0.25113  -0.24475  -0.24058  -0.23977  -0.23623
 Alpha  occ. eigenvalues --   -0.23188  -0.22099  -0.21887  -0.21354  -0.21198
 Alpha  occ. eigenvalues --   -0.20645  -0.19872  -0.19058  -0.18943  -0.17202
 Alpha  occ. eigenvalues --   -0.15919
 Alpha virt. eigenvalues --   -0.11429  -0.07241  -0.06390  -0.04952  -0.04263
 Alpha virt. eigenvalues --   -0.03309  -0.03055  -0.02967  -0.01762   0.00043
 Alpha virt. eigenvalues --    0.01436   0.01894   0.02406   0.02596   0.02830

 Mulliken charges:
               1
     1  Mg   0.698030
     2  C    0.064991
     3  C   -0.071662
     4  C   -0.036125
     5  C   -0.090037
     6  N   -0.209766
     7  C   -0.073101
     8  C    0.043720
     9  C    0.007847
    10  C    0.036275
    11  C    0.082768
    12  C    0.080747
    13  C    0.187067
    14  C    0.082615
    15  O   -0.224774
    16  O   -0.303622
    17  N   -0.288796
    18  C    0.120013
    19  C   -0.169894
    20  C    0.041440
    21  C    0.099278
    22  C    0.184522
    23  C   -0.078501
    24  O   -0.178017
    25  C    0.144125
    26  N   -0.162157
    27  C   -0.033868
    28  C   -0.043556
    29  C    0.086993
    30  C   -0.047859
    31  C    0.156509
    32  C    0.116728
    33  C    0.044370
    34  N   -0.281273
    35  C    0.175213
    36  C   -0.190558
    37  C    0.056849
    38  C    0.061801
    39  C    0.175090
    40  C   -0.020538
    41  O   -0.106538
    42  C    0.025505
    43  C    0.091311
    44  O   -0.211729
    45  O   -0.280831
    46  C    0.226638
    47  C    0.321538
    48  C   -0.094557
    49  C   -0.219900
    50  C    0.179189
    51  C    0.150558
    52  C    0.044232
    53  C    0.102827
    54  C   -0.040667
    55  C    0.121094
    56  C    0.130097
    57  C    0.078010
    58  C    0.082704
    59  C   -0.082807
    60  C    0.165393
    61  C    0.114200
    62  C    0.060021
    63  C    0.096438
    64  C   -0.086393
    65  C    0.095825
    66  C    0.119446
    67  H   -0.061161
    68  H   -0.037390
    69  H   -0.065393
    70  H   -0.007544
    71  H   -0.015120
    72  H   -0.007062
    73  H    0.008325
    74  H   -0.012829
    75  H   -0.016873
    76  H   -0.020815
    77  H   -0.002115
    78  H   -0.007824
    79  H    0.004634
    80  H   -0.006007
    81  H    0.003850
    82  H    0.008540
    83  H   -0.007774
    84  H    0.019405
    85  H   -0.023593
    86  H   -0.029217
    87  H   -0.022490
    88  H   -0.001357
    89  H    0.006807
    90  H   -0.014003
    91  H   -0.003492
    92  H   -0.003059
    93  H   -0.005268
    94  H   -0.013523
    95  H    0.010487
    96  H   -0.000851
    97  H    0.009315
    98  H    0.012577
    99  H    0.011043
   100  H    0.030202
   101  H    0.012634
   102  H   -0.009240
   103  H   -0.017736
   104  H   -0.042461
   105  H    0.015364
   106  H    0.000230
   107  H   -0.010753
   108  H   -0.028763
   109  H   -0.015695
   110  H   -0.032618
   111  H   -0.022814
   112  H   -0.035373
   113  H   -0.054284
   114  H   -0.041910
   115  H   -0.027457
   116  H   -0.011866
   117  H   -0.028293
   118  H   -0.048915
   119  H   -0.041001
   120  H   -0.032918
   121  H   -0.034327
   122  H   -0.041654
   123  H   -0.027268
   124  H   -0.044781
   125  H    0.004584
   126  H   -0.032494
   127  H   -0.019482
   128  H   -0.044609
   129  H   -0.034898
   130  H   -0.032810
   131  H   -0.029784
   132  H   -0.041352
   133  H   -0.045591
   134  H   -0.036576
   135  H   -0.029724
   136  H   -0.026968
   137  H   -0.013338
   138  H   -0.010146
   139  H   -0.012196
   140  H   -0.037633
 Sum of Mulliken charges =  -0.00000

 Dipole moment (field-independent basis, Debye):
    X=              3.7998    Y=              3.7988    Z=             -0.4835  Tot=              5.3947
 Quadrupole moment (field-independent basis, Debye-Ang):
   XX=           -376.8121   YY=           -434.2116   ZZ=           -417.2228
   XY=            -16.4507   XZ=              9.8217   YZ=             -9.1047

 Normal termination of Gaussian 16 at Sat Apr 30 17:32:04 2022.
