 Gaussian 16, Revision A.03,
 Gaussian 16:  ES64L-G16RevA.03 25-Dec-2016

 -----------------------------------
 #p cam-b3lyp/Def2SVP td=(nstates=5)
 -----------------------------------

 -------------------------------------------------------
 step_801_chromophore_27 TDDFT with cam-b3lyp functional
 -------------------------------------------------------
 Symbolic Z-matrix:
 Charge =  0 Multiplicity = 1

                         Standard orientation:
 ---------------------------------------------------------------------
 Center     Atomic      Atomic             Coordinates (Angstroms)
 Number     Number       Type             X           Y           Z
 ---------------------------------------------------------------------
      1         12           0       -4.596340    0.856058    0.068761
      2          6           0       -3.864402   -2.564625    0.313641
      3          6           0       -1.194458    1.494409    0.555888
      4          6           0       -5.368316    4.006988    0.002597
      5          6           0       -8.112798    0.012112    0.264772
      6          7           0       -2.760885   -0.439880    0.529409
      7          6           0       -2.686939   -1.826178    0.467493
      8          6           0       -1.233914   -2.307286    0.555276
      9          6           0       -0.412629   -0.975670    0.831361
     10          6           0       -1.524478    0.126239    0.688711
     11          6           0        0.306989   -0.950217    2.294362
     12          6           0       -0.783115   -3.090046   -0.755469
     13          6           0        0.334085   -4.093665   -0.578388
     14          6           0        1.255350   -4.133855   -1.818834
     15          8           0        0.951275   -4.637209   -2.930722
     16          8           0        2.462476   -3.385066   -1.661359
     17          7           0       -3.428460    2.490212    0.284112
     18          6           0       -2.098855    2.606883    0.409650
     19          6           0       -1.720007    3.999073    0.162333
     20          6           0       -2.929792    4.748613    0.075253
     21          6           0       -3.978099    3.732007    0.127728
     22          6           0       -0.293824    4.370448    0.197060
     23          6           0       -3.111250    6.283946    0.163066
     24          8           0       -4.211393    6.843956    0.281824
     25          6           0       -1.935452    7.192334    0.313011
     26          7           0       -6.579115    1.911511    0.308956
     27          6           0       -6.539495    3.193459    0.034802
     28          6           0       -8.009259    3.847633    0.059824
     29          6           0       -8.911426    2.539825   -0.031609
     30          6           0       -7.852556    1.429126    0.198390
     31          6           0       -8.217934    4.773032    1.246532
     32          6           0       -9.601288    2.520579   -1.360699
     33          6           0      -11.080835    1.957183   -1.287549
     34          7           0       -5.784222   -0.821292    0.188509
     35          6           0       -7.172113   -0.997932    0.218975
     36          6           0       -7.507360   -2.409448    0.254454
     37          6           0       -6.240139   -3.097005    0.150872
     38          6           0       -5.204190   -2.059366    0.252149
     39          6           0       -8.925156   -3.022241    0.403544
     40          6           0       -5.558750   -4.385276    0.180426
     41          8           0       -5.942534   -5.525038    0.204116
     42          6           0       -3.988807   -4.069588    0.115653
     43          6           0       -3.285478   -4.841357    1.148108
     44          8           0       -3.318706   -4.559457    2.363730
     45          8           0       -2.640874   -5.923017    0.555084
     46          6           0       -2.029234   -6.813490    1.543771
     47          6           0        3.174887   -3.048819   -2.888514
     48          6           0        4.205150   -1.960109   -2.629219
     49          6           0        5.511863   -2.115070   -2.224829
     50          6           0        6.196999   -3.425397   -1.810799
     51          6           0        6.263130   -0.833153   -2.076547
     52          6           0        6.540871   -0.192261   -3.471210
     53          6           0        8.035549    0.277026   -3.638632
     54          6           0        8.231331    1.804111   -3.812738
     55          6           0        8.186425    2.068463   -5.269504
     56          6           0        9.475515    2.297630   -3.179753
     57          6           0        9.204416    2.980005   -1.781874
     58          6           0       10.212060    2.629963   -0.719211
     59          6           0        9.849613    1.437252    0.275124
     60          6           0       10.140888    0.105111   -0.410243
     61          6           0       10.585589    1.589553    1.662746
     62          6           0        9.671209    1.395631    2.875863
     63          6           0       10.023101    0.136397    3.721229
     64          6           0       10.313268    0.371276    5.243587
     65          6           0       11.735911    0.002925    5.687727
     66          6           0        9.221886   -0.215127    6.160140
     67          1           0       -0.114975    1.656711    0.507409
     68          1           0       -5.573282    5.069478   -0.143787
     69          1           0       -9.170342   -0.259108    0.281687
     70          1           0       -1.128436   -3.017384    1.374771
     71          1           0        0.385080   -0.849739    0.097964
     72          1           0        1.295807   -1.408322    2.269546
     73          1           0       -0.282410   -1.472158    3.047188
     74          1           0        0.535716    0.048801    2.666781
     75          1           0       -0.610859   -2.407531   -1.587457
     76          1           0       -1.654572   -3.615568   -1.146487
     77          1           0       -0.119009   -5.083184   -0.541960
     78          1           0        0.873026   -3.968716    0.360879
     79          1           0       -0.121326    5.308611   -0.330517
     80          1           0        0.358840    3.521881   -0.008921
     81          1           0       -0.090073    4.521396    1.256664
     82          1           0       -1.320747    6.722695    1.081107
     83          1           0       -2.350386    8.136963    0.663804
     84          1           0       -1.490539    7.423726   -0.655432
     85          1           0       -7.955595    4.417899   -0.866917
     86          1           0       -9.501279    2.576223    0.883816
     87          1           0       -8.051736    4.209243    2.164758
     88          1           0       -9.228989    5.163293    1.363340
     89          1           0       -7.381538    5.470150    1.188580
     90          1           0       -9.083419    1.764641   -1.951310
     91          1           0       -9.650185    3.498706   -1.839141
     92          1           0      -11.189285    0.969747   -1.734383
     93          1           0      -11.719898    2.692617   -1.776961
     94          1           0      -11.404799    1.840002   -0.253122
     95          1           0       -8.856510   -4.104203    0.292988
     96          1           0       -9.577832   -2.650877   -0.386987
     97          1           0       -9.346535   -2.750845    1.371992
     98          1           0       -3.568846   -4.476378   -0.804131
     99          1           0       -1.511526   -7.523683    0.898982
    100          1           0       -2.755476   -7.355945    2.149598
    101          1           0       -1.331284   -6.200528    2.113236
    102          1           0        2.503488   -2.726446   -3.684547
    103          1           0        3.663803   -3.981139   -3.171364
    104          1           0        3.858838   -0.940190   -2.797946
    105          1           0        6.220829   -3.462477   -0.722036
    106          1           0        7.201945   -3.450438   -2.230086
    107          1           0        5.538282   -4.194553   -2.214212
    108          1           0        7.100287   -1.065791   -1.418241
    109          1           0        5.540432   -0.203895   -1.556587
    110          1           0        5.843956    0.633726   -3.612410
    111          1           0        6.315704   -0.846475   -4.313840
    112          1           0        8.353309   -0.334792   -4.482787
    113          1           0        8.457621   -0.119551   -2.714728
    114          1           0        7.378700    2.335155   -3.389381
    115          1           0        9.084663    1.560881   -5.620400
    116          1           0        8.144208    3.143656   -5.444336
    117          1           0        7.397253    1.526223   -5.789687
    118          1           0        9.931461    2.998315   -3.879563
    119          1           0       10.217935    1.538094   -2.933412
    120          1           0        8.170759    2.831925   -1.467441
    121          1           0        9.291846    4.036694   -2.034107
    122          1           0       10.245484    3.474148   -0.031414
    123          1           0       11.158164    2.408903   -1.213387
    124          1           0        8.795874    1.566842    0.522766
    125          1           0        9.230677   -0.491933   -0.450930
    126          1           0       10.930947   -0.362276    0.177646
    127          1           0       10.614252    0.322450   -1.367823
    128          1           0       11.006694    2.574214    1.866761
    129          1           0       11.444609    0.937845    1.821888
    130          1           0        8.624112    1.263419    2.603094
    131          1           0        9.681306    2.291981    3.495332
    132          1           0       10.844322   -0.459081    3.322744
    133          1           0        9.212058   -0.577637    3.582906
    134          1           0       10.291212    1.440237    5.457498
    135          1           0       11.716728   -0.271866    6.742359
    136          1           0       12.430770    0.841320    5.742212
    137          1           0       12.282117   -0.743087    5.111135
    138          1           0        8.761625    0.516011    6.824067
    139          1           0        9.626409   -1.144881    6.560381
    140          1           0        8.381014   -0.516357    5.535920
 ---------------------------------------------------------------------

 SCF Done:  E(RCAM-B3LYP) =  -3007.16246156     A.U. after   19 cycles

 Excitation energies and oscillator strengths:

 Excited State   1:      Singlet-A      1.7387 eV  713.08 nm  f=0.3501  <S**2>=0.000
     245 -> 248        0.20026
     246 -> 247        0.67936
     245 <- 248        0.11081
 This state for optimization and/or second-order correction.
 Total Energy, E(TD-HF/TD-DFT) =  -3007.09856486
 Copying the excited state density for this state as the 1-particle RhoCI density.

 Excited State   2:      Singlet-A      2.2485 eV  551.42 nm  f=0.0909  <S**2>=0.000
     245 -> 247        0.62874
     246 -> 248       -0.31421

 Excited State   3:      Singlet-A      3.4725 eV  357.05 nm  f=0.5471  <S**2>=0.000
     241 -> 247        0.14811
     243 -> 247        0.25713
     245 -> 247        0.26345
     246 -> 248        0.56742
     245 <- 247       -0.10120

 Excited State   4:      Singlet-A      3.5456 eV  349.69 nm  f=0.1302  <S**2>=0.000
     241 -> 247       -0.11624
     242 -> 247       -0.21219
     243 -> 247        0.58684
     245 -> 247       -0.12266
     246 -> 248       -0.20017

 Excited State   5:      Singlet-A      3.6756 eV  337.31 nm  f=0.0016  <S**2>=0.000
     239 -> 247        0.43216
     239 -> 248        0.15903
     239 -> 249       -0.29805
     239 -> 251       -0.22334
     240 -> 247        0.20460
     240 -> 249       -0.14509
     241 -> 247       -0.20537

 The electronic state is 1-A.
 Alpha  occ. eigenvalues --  -46.89659 -19.25437 -19.24021 -19.20123 -19.19670
 Alpha  occ. eigenvalues --  -19.19475 -19.18905 -14.42096 -14.42000 -14.40268
 Alpha  occ. eigenvalues --  -14.39734 -10.40030 -10.38947 -10.35995 -10.35074
 Alpha  occ. eigenvalues --  -10.31553 -10.31545 -10.31306 -10.31264 -10.30926
 Alpha  occ. eigenvalues --  -10.30807 -10.30742 -10.30635 -10.29800 -10.29538
 Alpha  occ. eigenvalues --  -10.29149 -10.29072 -10.28862 -10.28766 -10.28173
 Alpha  occ. eigenvalues --  -10.28073 -10.27931 -10.27650 -10.27647 -10.27582
 Alpha  occ. eigenvalues --  -10.27567 -10.27450 -10.27366 -10.27351 -10.27305
 Alpha  occ. eigenvalues --  -10.26675 -10.26653 -10.26553 -10.26526 -10.26498
 Alpha  occ. eigenvalues --  -10.26400 -10.26066 -10.25942 -10.25827 -10.25681
 Alpha  occ. eigenvalues --  -10.25586 -10.25581 -10.25524 -10.25483 -10.24960
 Alpha  occ. eigenvalues --  -10.24880 -10.24879 -10.24871 -10.24847 -10.24739
 Alpha  occ. eigenvalues --  -10.24718 -10.24708 -10.24456 -10.24366 -10.24314
 Alpha  occ. eigenvalues --  -10.24286  -3.18103  -1.92985  -1.92596  -1.92379
 Alpha  occ. eigenvalues --   -1.15381  -1.13781  -1.10654  -1.09893  -1.06878
 Alpha  occ. eigenvalues --   -1.05976  -1.04679  -1.03999  -1.02639  -1.01623
 Alpha  occ. eigenvalues --   -0.91770  -0.91230  -0.90102  -0.89325  -0.89149
 Alpha  occ. eigenvalues --   -0.89098  -0.88532  -0.87554  -0.87542  -0.86645
 Alpha  occ. eigenvalues --   -0.85847  -0.84816  -0.84321  -0.83569  -0.83359
 Alpha  occ. eigenvalues --   -0.82766  -0.82485  -0.81294  -0.80912  -0.80379
 Alpha  occ. eigenvalues --   -0.80111  -0.78630  -0.77688  -0.77187  -0.76424
 Alpha  occ. eigenvalues --   -0.75762  -0.75740  -0.75450  -0.75080  -0.74416
 Alpha  occ. eigenvalues --   -0.72685  -0.72217  -0.71393  -0.69996  -0.68879
 Alpha  occ. eigenvalues --   -0.68538  -0.68261  -0.67249  -0.67026  -0.65797
 Alpha  occ. eigenvalues --   -0.65440  -0.65356  -0.64886  -0.64373  -0.64243
 Alpha  occ. eigenvalues --   -0.63442  -0.63022  -0.62979  -0.61719  -0.60452
 Alpha  occ. eigenvalues --   -0.59359  -0.59251  -0.59065  -0.58395  -0.57525
 Alpha  occ. eigenvalues --   -0.57023  -0.56631  -0.56162  -0.55747  -0.55552
 Alpha  occ. eigenvalues --   -0.54926  -0.54748  -0.54404  -0.54111  -0.53853
 Alpha  occ. eigenvalues --   -0.53710  -0.53434  -0.53336  -0.53245  -0.52906
 Alpha  occ. eigenvalues --   -0.52643  -0.52386  -0.52159  -0.51838  -0.51754
 Alpha  occ. eigenvalues --   -0.51714  -0.51501  -0.51128  -0.50871  -0.50775
 Alpha  occ. eigenvalues --   -0.50534  -0.50432  -0.50298  -0.50136  -0.49948
 Alpha  occ. eigenvalues --   -0.49691  -0.49566  -0.49301  -0.49084  -0.48973
 Alpha  occ. eigenvalues --   -0.48533  -0.48376  -0.47922  -0.47837  -0.47662
 Alpha  occ. eigenvalues --   -0.47582  -0.47266  -0.47219  -0.47050  -0.46873
 Alpha  occ. eigenvalues --   -0.46518  -0.46377  -0.46349  -0.46090  -0.45806
 Alpha  occ. eigenvalues --   -0.45544  -0.45330  -0.45204  -0.45162  -0.44963
 Alpha  occ. eigenvalues --   -0.44888  -0.44811  -0.44544  -0.44265  -0.44090
 Alpha  occ. eigenvalues --   -0.43972  -0.43737  -0.43645  -0.43478  -0.43195
 Alpha  occ. eigenvalues --   -0.42966  -0.42713  -0.42543  -0.42369  -0.42238
 Alpha  occ. eigenvalues --   -0.42132  -0.41853  -0.41809  -0.41772  -0.41443
 Alpha  occ. eigenvalues --   -0.41364  -0.41041  -0.40716  -0.40623  -0.39930
 Alpha  occ. eigenvalues --   -0.39580  -0.39335  -0.39073  -0.39050  -0.38916
 Alpha  occ. eigenvalues --   -0.38549  -0.38182  -0.38165  -0.37944  -0.37411
 Alpha  occ. eigenvalues --   -0.37042  -0.36977  -0.36758  -0.36516  -0.36280
 Alpha  occ. eigenvalues --   -0.36105  -0.35439  -0.34988  -0.34252  -0.34034
 Alpha  occ. eigenvalues --   -0.33922  -0.33853  -0.33115  -0.31557  -0.31208
 Alpha  occ. eigenvalues --   -0.30739  -0.30626  -0.29709  -0.29536  -0.23884
 Alpha  occ. eigenvalues --   -0.21197
 Alpha virt. eigenvalues --   -0.08399  -0.02146   0.00060   0.01861   0.02046
 Alpha virt. eigenvalues --    0.03316   0.04372   0.04584   0.05609   0.06735
 Alpha virt. eigenvalues --    0.08200   0.08672   0.08707   0.09056   0.09159

 Mulliken charges:
               1
     1  Mg   0.828962
     2  C    0.029682
     3  C   -0.091511
     4  C   -0.057246
     5  C   -0.091282
     6  N   -0.280935
     7  C   -0.027245
     8  C   -0.004234
     9  C   -0.045521
    10  C    0.057928
    11  C    0.030641
    12  C    0.026245
    13  C    0.119192
    14  C    0.166027
    15  O   -0.264681
    16  O   -0.367899
    17  N   -0.379839
    18  C    0.134965
    19  C   -0.172902
    20  C   -0.024421
    21  C    0.123530
    22  C    0.119212
    23  C    0.003699
    24  O   -0.218482
    25  C    0.059388
    26  N   -0.225047
    27  C   -0.011390
    28  C   -0.088813
    29  C    0.024964
    30  C   -0.033526
    31  C    0.097558
    32  C    0.055846
    33  C   -0.013619
    34  N   -0.369550
    35  C    0.172769
    36  C   -0.181888
    37  C   -0.025455
    38  C    0.099133
    39  C    0.123276
    40  C    0.078697
    41  O   -0.147285
    42  C   -0.052255
    43  C    0.180949
    44  O   -0.247396
    45  O   -0.343374
    46  C    0.183980
    47  C    0.287315
    48  C   -0.122623
    49  C   -0.227785
    50  C    0.119865
    51  C    0.084469
    52  C   -0.002212
    53  C    0.051564
    54  C   -0.101550
    55  C    0.060978
    56  C    0.073699
    57  C    0.025801
    58  C    0.027504
    59  C   -0.134387
    60  C    0.104480
    61  C    0.056955
    62  C    0.006550
    63  C    0.042282
    64  C   -0.147631
    65  C    0.035756
    66  C    0.057521
    67  H   -0.028281
    68  H    0.002540
    69  H   -0.028390
    70  H    0.024561
    71  H    0.019059
    72  H    0.016793
    73  H    0.032116
    74  H    0.012296
    75  H    0.015094
    76  H    0.010634
    77  H    0.030537
    78  H    0.025569
    79  H    0.031639
    80  H    0.022645
    81  H    0.032590
    82  H    0.034841
    83  H    0.029026
    84  H    0.047752
    85  H    0.009986
    86  H    0.006931
    87  H    0.002577
    88  H    0.023807
    89  H    0.029999
    90  H    0.016654
    91  H    0.024826
    92  H    0.019316
    93  H    0.018111
    94  H    0.008632
    95  H    0.037752
    96  H    0.022803
    97  H    0.034429
    98  H    0.054129
    99  H    0.034977
   100  H    0.053970
   101  H    0.034843
   102  H    0.020508
   103  H    0.010675
   104  H   -0.010336
   105  H    0.039027
   106  H    0.023275
   107  H    0.012344
   108  H   -0.003445
   109  H    0.015456
   110  H   -0.005985
   111  H    0.007038
   112  H   -0.005279
   113  H   -0.028451
   114  H   -0.010232
   115  H   -0.002916
   116  H    0.013069
   117  H   -0.002620
   118  H   -0.015811
   119  H   -0.014635
   120  H   -0.005994
   121  H   -0.003952
   122  H   -0.010947
   123  H    0.000049
   124  H   -0.013805
   125  H    0.022496
   126  H   -0.005521
   127  H    0.002583
   128  H   -0.012934
   129  H   -0.006616
   130  H   -0.004576
   131  H   -0.001226
   132  H   -0.014042
   133  H   -0.015426
   134  H   -0.004371
   135  H   -0.003943
   136  H   -0.001725
   137  H    0.009849
   138  H    0.014638
   139  H    0.011818
   140  H   -0.012201
 Sum of Mulliken charges =  -0.00000

 Dipole moment (field-independent basis, Debye):
    X=              4.1510    Y=              4.4072    Z=             -0.4518  Tot=              6.0711
 Quadrupole moment (field-independent basis, Debye-Ang):
   XX=           -377.3973   YY=           -430.0210   ZZ=           -417.7554
   XY=            -18.3744   XZ=             10.8319   YZ=             -9.8291

 Normal termination of Gaussian 16 at Sat Apr 30 16:26:29 2022.
