 Gaussian 16, Revision A.03,
 Gaussian 16:  ES64L-G16RevA.03 25-Dec-2016

 ---------------------------------
 #p PBE1PBE/Def2SVP td=(nstates=5)
 ---------------------------------

 -----------------------------------------------------
 step_801_chromophore_27 TDDFT with PBE1PBE functional
 -----------------------------------------------------
 Symbolic Z-matrix:
 Charge =  0 Multiplicity = 1

                         Standard orientation:
 ---------------------------------------------------------------------
 Center     Atomic      Atomic             Coordinates (Angstroms)
 Number     Number       Type             X           Y           Z
 ---------------------------------------------------------------------
      1         12           0       -4.596340    0.856058    0.068761
      2          6           0       -3.864402   -2.564625    0.313641
      3          6           0       -1.194458    1.494409    0.555888
      4          6           0       -5.368316    4.006988    0.002597
      5          6           0       -8.112798    0.012112    0.264772
      6          7           0       -2.760885   -0.439880    0.529409
      7          6           0       -2.686939   -1.826178    0.467493
      8          6           0       -1.233914   -2.307286    0.555276
      9          6           0       -0.412629   -0.975670    0.831361
     10          6           0       -1.524478    0.126239    0.688711
     11          6           0        0.306989   -0.950217    2.294362
     12          6           0       -0.783115   -3.090046   -0.755469
     13          6           0        0.334085   -4.093665   -0.578388
     14          6           0        1.255350   -4.133855   -1.818834
     15          8           0        0.951275   -4.637209   -2.930722
     16          8           0        2.462476   -3.385066   -1.661359
     17          7           0       -3.428460    2.490212    0.284112
     18          6           0       -2.098855    2.606883    0.409650
     19          6           0       -1.720007    3.999073    0.162333
     20          6           0       -2.929792    4.748613    0.075253
     21          6           0       -3.978099    3.732007    0.127728
     22          6           0       -0.293824    4.370448    0.197060
     23          6           0       -3.111250    6.283946    0.163066
     24          8           0       -4.211393    6.843956    0.281824
     25          6           0       -1.935452    7.192334    0.313011
     26          7           0       -6.579115    1.911511    0.308956
     27          6           0       -6.539495    3.193459    0.034802
     28          6           0       -8.009259    3.847633    0.059824
     29          6           0       -8.911426    2.539825   -0.031609
     30          6           0       -7.852556    1.429126    0.198390
     31          6           0       -8.217934    4.773032    1.246532
     32          6           0       -9.601288    2.520579   -1.360699
     33          6           0      -11.080835    1.957183   -1.287549
     34          7           0       -5.784222   -0.821292    0.188509
     35          6           0       -7.172113   -0.997932    0.218975
     36          6           0       -7.507360   -2.409448    0.254454
     37          6           0       -6.240139   -3.097005    0.150872
     38          6           0       -5.204190   -2.059366    0.252149
     39          6           0       -8.925156   -3.022241    0.403544
     40          6           0       -5.558750   -4.385276    0.180426
     41          8           0       -5.942534   -5.525038    0.204116
     42          6           0       -3.988807   -4.069588    0.115653
     43          6           0       -3.285478   -4.841357    1.148108
     44          8           0       -3.318706   -4.559457    2.363730
     45          8           0       -2.640874   -5.923017    0.555084
     46          6           0       -2.029234   -6.813490    1.543771
     47          6           0        3.174887   -3.048819   -2.888514
     48          6           0        4.205150   -1.960109   -2.629219
     49          6           0        5.511863   -2.115070   -2.224829
     50          6           0        6.196999   -3.425397   -1.810799
     51          6           0        6.263130   -0.833153   -2.076547
     52          6           0        6.540871   -0.192261   -3.471210
     53          6           0        8.035549    0.277026   -3.638632
     54          6           0        8.231331    1.804111   -3.812738
     55          6           0        8.186425    2.068463   -5.269504
     56          6           0        9.475515    2.297630   -3.179753
     57          6           0        9.204416    2.980005   -1.781874
     58          6           0       10.212060    2.629963   -0.719211
     59          6           0        9.849613    1.437252    0.275124
     60          6           0       10.140888    0.105111   -0.410243
     61          6           0       10.585589    1.589553    1.662746
     62          6           0        9.671209    1.395631    2.875863
     63          6           0       10.023101    0.136397    3.721229
     64          6           0       10.313268    0.371276    5.243587
     65          6           0       11.735911    0.002925    5.687727
     66          6           0        9.221886   -0.215127    6.160140
     67          1           0       -0.114975    1.656711    0.507409
     68          1           0       -5.573282    5.069478   -0.143787
     69          1           0       -9.170342   -0.259108    0.281687
     70          1           0       -1.128436   -3.017384    1.374771
     71          1           0        0.385080   -0.849739    0.097964
     72          1           0        1.295807   -1.408322    2.269546
     73          1           0       -0.282410   -1.472158    3.047188
     74          1           0        0.535716    0.048801    2.666781
     75          1           0       -0.610859   -2.407531   -1.587457
     76          1           0       -1.654572   -3.615568   -1.146487
     77          1           0       -0.119009   -5.083184   -0.541960
     78          1           0        0.873026   -3.968716    0.360879
     79          1           0       -0.121326    5.308611   -0.330517
     80          1           0        0.358840    3.521881   -0.008921
     81          1           0       -0.090073    4.521396    1.256664
     82          1           0       -1.320747    6.722695    1.081107
     83          1           0       -2.350386    8.136963    0.663804
     84          1           0       -1.490539    7.423726   -0.655432
     85          1           0       -7.955595    4.417899   -0.866917
     86          1           0       -9.501279    2.576223    0.883816
     87          1           0       -8.051736    4.209243    2.164758
     88          1           0       -9.228989    5.163293    1.363340
     89          1           0       -7.381538    5.470150    1.188580
     90          1           0       -9.083419    1.764641   -1.951310
     91          1           0       -9.650185    3.498706   -1.839141
     92          1           0      -11.189285    0.969747   -1.734383
     93          1           0      -11.719898    2.692617   -1.776961
     94          1           0      -11.404799    1.840002   -0.253122
     95          1           0       -8.856510   -4.104203    0.292988
     96          1           0       -9.577832   -2.650877   -0.386987
     97          1           0       -9.346535   -2.750845    1.371992
     98          1           0       -3.568846   -4.476378   -0.804131
     99          1           0       -1.511526   -7.523683    0.898982
    100          1           0       -2.755476   -7.355945    2.149598
    101          1           0       -1.331284   -6.200528    2.113236
    102          1           0        2.503488   -2.726446   -3.684547
    103          1           0        3.663803   -3.981139   -3.171364
    104          1           0        3.858838   -0.940190   -2.797946
    105          1           0        6.220829   -3.462477   -0.722036
    106          1           0        7.201945   -3.450438   -2.230086
    107          1           0        5.538282   -4.194553   -2.214212
    108          1           0        7.100287   -1.065791   -1.418241
    109          1           0        5.540432   -0.203895   -1.556587
    110          1           0        5.843956    0.633726   -3.612410
    111          1           0        6.315704   -0.846475   -4.313840
    112          1           0        8.353309   -0.334792   -4.482787
    113          1           0        8.457621   -0.119551   -2.714728
    114          1           0        7.378700    2.335155   -3.389381
    115          1           0        9.084663    1.560881   -5.620400
    116          1           0        8.144208    3.143656   -5.444336
    117          1           0        7.397253    1.526223   -5.789687
    118          1           0        9.931461    2.998315   -3.879563
    119          1           0       10.217935    1.538094   -2.933412
    120          1           0        8.170759    2.831925   -1.467441
    121          1           0        9.291846    4.036694   -2.034107
    122          1           0       10.245484    3.474148   -0.031414
    123          1           0       11.158164    2.408903   -1.213387
    124          1           0        8.795874    1.566842    0.522766
    125          1           0        9.230677   -0.491933   -0.450930
    126          1           0       10.930947   -0.362276    0.177646
    127          1           0       10.614252    0.322450   -1.367823
    128          1           0       11.006694    2.574214    1.866761
    129          1           0       11.444609    0.937845    1.821888
    130          1           0        8.624112    1.263419    2.603094
    131          1           0        9.681306    2.291981    3.495332
    132          1           0       10.844322   -0.459081    3.322744
    133          1           0        9.212058   -0.577637    3.582906
    134          1           0       10.291212    1.440237    5.457498
    135          1           0       11.716728   -0.271866    6.742359
    136          1           0       12.430770    0.841320    5.742212
    137          1           0       12.282117   -0.743087    5.111135
    138          1           0        8.761625    0.516011    6.824067
    139          1           0        9.626409   -1.144881    6.560381
    140          1           0        8.381014   -0.516357    5.535920
 ---------------------------------------------------------------------

 SCF Done:  E(RPBE1PBE) =  -3005.35162820     A.U. after   15 cycles

 Excitation energies and oscillator strengths:

 Excited State   1:      Singlet-A      1.8918 eV  655.39 nm  f=0.3411  <S**2>=0.000
     245 -> 248        0.19235
     246 -> 247        0.68559
 This state for optimization and/or second-order correction.
 Total Energy, E(TD-HF/TD-DFT) =  -3005.28210736
 Copying the excited state density for this state as the 1-particle RhoCI density.

 Excited State   2:      Singlet-A      2.2470 eV  551.77 nm  f=0.0924  <S**2>=0.000
     245 -> 247        0.64256
     246 -> 248       -0.28408

 Excited State   3:      Singlet-A      3.0794 eV  402.62 nm  f=0.0018  <S**2>=0.000
     242 -> 247        0.21011
     243 -> 247        0.64009
     246 -> 248        0.12573

 Excited State   4:      Singlet-A      3.2138 eV  385.79 nm  f=0.0194  <S**2>=0.000
     240 -> 247        0.11859
     241 -> 247        0.62103
     241 -> 248        0.11569
     241 -> 249       -0.17490
     241 -> 250       -0.10873
     246 -> 248        0.14547

 Excited State   5:      Singlet-A      3.2664 eV  379.58 nm  f=0.0423  <S**2>=0.000
     240 -> 247        0.19501
     242 -> 247        0.58666
     243 -> 247       -0.24866
     246 -> 248        0.15004

 The electronic state is 1-A.
 Alpha  occ. eigenvalues --  -46.93064 -19.26113 -19.24746 -19.20433 -19.19939
 Alpha  occ. eigenvalues --  -19.19606 -19.19246 -14.41640 -14.41498 -14.39835
 Alpha  occ. eigenvalues --  -14.39472 -10.37128 -10.36003 -10.33044 -10.32332
 Alpha  occ. eigenvalues --  -10.29190 -10.29073 -10.28846 -10.28784 -10.28702
 Alpha  occ. eigenvalues --  -10.28442 -10.28409 -10.28164 -10.27622 -10.27434
 Alpha  occ. eigenvalues --  -10.26961 -10.26705 -10.26612 -10.26588 -10.25894
 Alpha  occ. eigenvalues --  -10.25656 -10.25644 -10.25501 -10.25386 -10.25355
 Alpha  occ. eigenvalues --  -10.25219 -10.25183 -10.25102 -10.24881 -10.24720
 Alpha  occ. eigenvalues --  -10.24240 -10.24048 -10.24043 -10.24030 -10.24026
 Alpha  occ. eigenvalues --  -10.23887 -10.23786 -10.23702 -10.23426 -10.23359
 Alpha  occ. eigenvalues --  -10.23194 -10.23156 -10.23033 -10.22948 -10.22624
 Alpha  occ. eigenvalues --  -10.22454 -10.22451 -10.22432 -10.22415 -10.22309
 Alpha  occ. eigenvalues --  -10.22291 -10.22148 -10.22024 -10.21759 -10.21702
 Alpha  occ. eigenvalues --  -10.21665  -3.15092  -1.87914  -1.87503  -1.87290
 Alpha  occ. eigenvalues --   -1.10161  -1.08583  -1.05532  -1.04515  -1.01700
 Alpha  occ. eigenvalues --   -1.00852  -0.99270  -0.98620  -0.97304  -0.96349
 Alpha  occ. eigenvalues --   -0.86185  -0.85357  -0.84255  -0.83515  -0.83426
 Alpha  occ. eigenvalues --   -0.83222  -0.82723  -0.81832  -0.81666  -0.80993
 Alpha  occ. eigenvalues --   -0.80228  -0.79065  -0.78483  -0.77876  -0.77620
 Alpha  occ. eigenvalues --   -0.76966  -0.76585  -0.75577  -0.75128  -0.74709
 Alpha  occ. eigenvalues --   -0.74356  -0.72914  -0.71962  -0.71512  -0.70626
 Alpha  occ. eigenvalues --   -0.70109  -0.69836  -0.69567  -0.69443  -0.68605
 Alpha  occ. eigenvalues --   -0.67146  -0.66578  -0.65854  -0.64317  -0.63261
 Alpha  occ. eigenvalues --   -0.62814  -0.62650  -0.61687  -0.61246  -0.60194
 Alpha  occ. eigenvalues --   -0.59787  -0.59651  -0.59504  -0.58834  -0.58459
 Alpha  occ. eigenvalues --   -0.57626  -0.57557  -0.57188  -0.56313  -0.54969
 Alpha  occ. eigenvalues --   -0.53890  -0.53844  -0.53447  -0.53025  -0.52192
 Alpha  occ. eigenvalues --   -0.51481  -0.51161  -0.50717  -0.50161  -0.50034
 Alpha  occ. eigenvalues --   -0.49444  -0.49254  -0.49001  -0.48552  -0.48412
 Alpha  occ. eigenvalues --   -0.48201  -0.47793  -0.47775  -0.47735  -0.47467
 Alpha  occ. eigenvalues --   -0.47105  -0.47031  -0.46760  -0.46483  -0.46344
 Alpha  occ. eigenvalues --   -0.46244  -0.46018  -0.45860  -0.45414  -0.45276
 Alpha  occ. eigenvalues --   -0.45107  -0.45006  -0.44872  -0.44715  -0.44485
 Alpha  occ. eigenvalues --   -0.44240  -0.44113  -0.43943  -0.43708  -0.43553
 Alpha  occ. eigenvalues --   -0.43166  -0.42965  -0.42646  -0.42442  -0.42317
 Alpha  occ. eigenvalues --   -0.42271  -0.41885  -0.41835  -0.41724  -0.41508
 Alpha  occ. eigenvalues --   -0.41232  -0.41178  -0.41093  -0.40775  -0.40596
 Alpha  occ. eigenvalues --   -0.40308  -0.39998  -0.39943  -0.39749  -0.39681
 Alpha  occ. eigenvalues --   -0.39606  -0.39570  -0.39313  -0.38968  -0.38885
 Alpha  occ. eigenvalues --   -0.38778  -0.38500  -0.38382  -0.38224  -0.38032
 Alpha  occ. eigenvalues --   -0.37829  -0.37511  -0.37356  -0.37211  -0.37015
 Alpha  occ. eigenvalues --   -0.36932  -0.36722  -0.36714  -0.36583  -0.36308
 Alpha  occ. eigenvalues --   -0.36154  -0.36010  -0.35501  -0.35451  -0.34717
 Alpha  occ. eigenvalues --   -0.34414  -0.34129  -0.33996  -0.33853  -0.33804
 Alpha  occ. eigenvalues --   -0.33362  -0.33185  -0.33017  -0.32741  -0.32461
 Alpha  occ. eigenvalues --   -0.32087  -0.31821  -0.31717  -0.31350  -0.31219
 Alpha  occ. eigenvalues --   -0.31138  -0.30403  -0.29923  -0.29459  -0.28978
 Alpha  occ. eigenvalues --   -0.28930  -0.28782  -0.28427  -0.26899  -0.26235
 Alpha  occ. eigenvalues --   -0.26137  -0.25912  -0.25314  -0.24895  -0.20862
 Alpha  occ. eigenvalues --   -0.18842
 Alpha virt. eigenvalues --   -0.10941  -0.05614  -0.04137  -0.02384  -0.01297
 Alpha virt. eigenvalues --   -0.00835  -0.00291   0.00050   0.01118   0.03020
 Alpha virt. eigenvalues --    0.04381   0.04748   0.05344   0.05437   0.05814

 Mulliken charges:
               1
     1  Mg   0.974576
     2  C    0.013885
     3  C   -0.085310
     4  C   -0.052877
     5  C   -0.079782
     6  N   -0.378830
     7  C    0.044169
     8  C   -0.068325
     9  C   -0.119758
    10  C    0.094483
    11  C   -0.025388
    12  C   -0.022684
    13  C    0.040333
    14  C    0.225312
    15  O   -0.294208
    16  O   -0.394698
    17  N   -0.500547
    18  C    0.163857
    19  C   -0.201310
    20  C   -0.067600
    21  C    0.148921
    22  C    0.053744
    23  C    0.053734
    24  O   -0.255143
    25  C   -0.016595
    26  N   -0.322343
    27  C    0.029975
    28  C   -0.158411
    29  C   -0.058314
    30  C    0.009708
    31  C    0.034625
    32  C   -0.004281
    33  C   -0.082797
    34  N   -0.494898
    35  C    0.183101
    36  C   -0.188894
    37  C   -0.069566
    38  C    0.147284
    39  C    0.065250
    40  C    0.170957
    41  O   -0.192718
    42  C   -0.167050
    43  C    0.273798
    44  O   -0.280593
    45  O   -0.375866
    46  C    0.127422
    47  C    0.245218
    48  C   -0.136262
    49  C   -0.255526
    50  C    0.048109
    51  C    0.002131
    52  C   -0.050535
    53  C   -0.010444
    54  C   -0.195017
    55  C   -0.002658
    56  C    0.019098
    57  C   -0.030064
    58  C   -0.040065
    59  C   -0.214727
    60  C    0.035730
    61  C    0.004019
    62  C   -0.054542
    63  C   -0.009708
    64  C   -0.237921
    65  C   -0.024052
    66  C   -0.006160
    67  H    0.003778
    68  H    0.033720
    69  H    0.004098
    70  H    0.062609
    71  H    0.053971
    72  H    0.044292
    73  H    0.058410
    74  H    0.039711
    75  H    0.046977
    76  H    0.046775
    77  H    0.065588
    78  H    0.056298
    79  H    0.060447
    80  H    0.050145
    81  H    0.061508
    82  H    0.061901
    83  H    0.056643
    84  H    0.073499
    85  H    0.047372
    86  H    0.044730
    87  H    0.031626
    88  H    0.051744
    89  H    0.059099
    90  H    0.050809
    91  H    0.056362
    92  H    0.046034
    93  H    0.045898
    94  H    0.035649
    95  H    0.065598
    96  H    0.050109
    97  H    0.062139
    98  H    0.090801
    99  H    0.056462
   100  H    0.075861
   101  H    0.056970
   102  H    0.047164
   103  H    0.037880
   104  H    0.019614
   105  H    0.066937
   106  H    0.051278
   107  H    0.041286
   108  H    0.034754
   109  H    0.049537
   110  H    0.025022
   111  H    0.038760
   112  H    0.027263
   113  H    0.014028
   114  H    0.027706
   115  H    0.026425
   116  H    0.041408
   117  H    0.027248
   118  H    0.017675
   119  H    0.019490
   120  H    0.024792
   121  H    0.030179
   122  H    0.023452
   123  H    0.033752
   124  H    0.024088
   125  H    0.052833
   126  H    0.023679
   127  H    0.030221
   128  H    0.018968
   129  H    0.025043
   130  H    0.027115
   131  H    0.030268
   132  H    0.017130
   133  H    0.016708
   134  H    0.034191
   135  H    0.023872
   136  H    0.026266
   137  H    0.036232
   138  H    0.041613
   139  H    0.039208
   140  H    0.016305
 Sum of Mulliken charges =  -0.00000

 Dipole moment (field-independent basis, Debye):
    X=              4.0549    Y=              4.2344    Z=             -0.4303  Tot=              5.8786
 Quadrupole moment (field-independent basis, Debye-Ang):
   XX=           -370.6945   YY=           -427.8760   ZZ=           -415.3208
   XY=            -17.8652   XZ=             10.9404   YZ=             -9.7854

 Normal termination of Gaussian 16 at Sat Apr 30 16:48:12 2022.
