 Gaussian 16, Revision A.03,
 Gaussian 16:  ES64L-G16RevA.03 25-Dec-2016

 --------------------------------
 #p wB97XD/Def2SVP td=(nstates=5)
 --------------------------------

 ----------------------------------------------------
 step_801_chromophore_27 TDDFT with wB97XD functional
 ----------------------------------------------------
 Symbolic Z-matrix:
 Charge =  0 Multiplicity = 1

                         Standard orientation:
 ---------------------------------------------------------------------
 Center     Atomic      Atomic             Coordinates (Angstroms)
 Number     Number       Type             X           Y           Z
 ---------------------------------------------------------------------
      1         12           0       -4.596340    0.856058    0.068761
      2          6           0       -3.864402   -2.564625    0.313641
      3          6           0       -1.194458    1.494409    0.555888
      4          6           0       -5.368316    4.006988    0.002597
      5          6           0       -8.112798    0.012112    0.264772
      6          7           0       -2.760885   -0.439880    0.529409
      7          6           0       -2.686939   -1.826178    0.467493
      8          6           0       -1.233914   -2.307286    0.555276
      9          6           0       -0.412629   -0.975670    0.831361
     10          6           0       -1.524478    0.126239    0.688711
     11          6           0        0.306989   -0.950217    2.294362
     12          6           0       -0.783115   -3.090046   -0.755469
     13          6           0        0.334085   -4.093665   -0.578388
     14          6           0        1.255350   -4.133855   -1.818834
     15          8           0        0.951275   -4.637209   -2.930722
     16          8           0        2.462476   -3.385066   -1.661359
     17          7           0       -3.428460    2.490212    0.284112
     18          6           0       -2.098855    2.606883    0.409650
     19          6           0       -1.720007    3.999073    0.162333
     20          6           0       -2.929792    4.748613    0.075253
     21          6           0       -3.978099    3.732007    0.127728
     22          6           0       -0.293824    4.370448    0.197060
     23          6           0       -3.111250    6.283946    0.163066
     24          8           0       -4.211393    6.843956    0.281824
     25          6           0       -1.935452    7.192334    0.313011
     26          7           0       -6.579115    1.911511    0.308956
     27          6           0       -6.539495    3.193459    0.034802
     28          6           0       -8.009259    3.847633    0.059824
     29          6           0       -8.911426    2.539825   -0.031609
     30          6           0       -7.852556    1.429126    0.198390
     31          6           0       -8.217934    4.773032    1.246532
     32          6           0       -9.601288    2.520579   -1.360699
     33          6           0      -11.080835    1.957183   -1.287549
     34          7           0       -5.784222   -0.821292    0.188509
     35          6           0       -7.172113   -0.997932    0.218975
     36          6           0       -7.507360   -2.409448    0.254454
     37          6           0       -6.240139   -3.097005    0.150872
     38          6           0       -5.204190   -2.059366    0.252149
     39          6           0       -8.925156   -3.022241    0.403544
     40          6           0       -5.558750   -4.385276    0.180426
     41          8           0       -5.942534   -5.525038    0.204116
     42          6           0       -3.988807   -4.069588    0.115653
     43          6           0       -3.285478   -4.841357    1.148108
     44          8           0       -3.318706   -4.559457    2.363730
     45          8           0       -2.640874   -5.923017    0.555084
     46          6           0       -2.029234   -6.813490    1.543771
     47          6           0        3.174887   -3.048819   -2.888514
     48          6           0        4.205150   -1.960109   -2.629219
     49          6           0        5.511863   -2.115070   -2.224829
     50          6           0        6.196999   -3.425397   -1.810799
     51          6           0        6.263130   -0.833153   -2.076547
     52          6           0        6.540871   -0.192261   -3.471210
     53          6           0        8.035549    0.277026   -3.638632
     54          6           0        8.231331    1.804111   -3.812738
     55          6           0        8.186425    2.068463   -5.269504
     56          6           0        9.475515    2.297630   -3.179753
     57          6           0        9.204416    2.980005   -1.781874
     58          6           0       10.212060    2.629963   -0.719211
     59          6           0        9.849613    1.437252    0.275124
     60          6           0       10.140888    0.105111   -0.410243
     61          6           0       10.585589    1.589553    1.662746
     62          6           0        9.671209    1.395631    2.875863
     63          6           0       10.023101    0.136397    3.721229
     64          6           0       10.313268    0.371276    5.243587
     65          6           0       11.735911    0.002925    5.687727
     66          6           0        9.221886   -0.215127    6.160140
     67          1           0       -0.114975    1.656711    0.507409
     68          1           0       -5.573282    5.069478   -0.143787
     69          1           0       -9.170342   -0.259108    0.281687
     70          1           0       -1.128436   -3.017384    1.374771
     71          1           0        0.385080   -0.849739    0.097964
     72          1           0        1.295807   -1.408322    2.269546
     73          1           0       -0.282410   -1.472158    3.047188
     74          1           0        0.535716    0.048801    2.666781
     75          1           0       -0.610859   -2.407531   -1.587457
     76          1           0       -1.654572   -3.615568   -1.146487
     77          1           0       -0.119009   -5.083184   -0.541960
     78          1           0        0.873026   -3.968716    0.360879
     79          1           0       -0.121326    5.308611   -0.330517
     80          1           0        0.358840    3.521881   -0.008921
     81          1           0       -0.090073    4.521396    1.256664
     82          1           0       -1.320747    6.722695    1.081107
     83          1           0       -2.350386    8.136963    0.663804
     84          1           0       -1.490539    7.423726   -0.655432
     85          1           0       -7.955595    4.417899   -0.866917
     86          1           0       -9.501279    2.576223    0.883816
     87          1           0       -8.051736    4.209243    2.164758
     88          1           0       -9.228989    5.163293    1.363340
     89          1           0       -7.381538    5.470150    1.188580
     90          1           0       -9.083419    1.764641   -1.951310
     91          1           0       -9.650185    3.498706   -1.839141
     92          1           0      -11.189285    0.969747   -1.734383
     93          1           0      -11.719898    2.692617   -1.776961
     94          1           0      -11.404799    1.840002   -0.253122
     95          1           0       -8.856510   -4.104203    0.292988
     96          1           0       -9.577832   -2.650877   -0.386987
     97          1           0       -9.346535   -2.750845    1.371992
     98          1           0       -3.568846   -4.476378   -0.804131
     99          1           0       -1.511526   -7.523683    0.898982
    100          1           0       -2.755476   -7.355945    2.149598
    101          1           0       -1.331284   -6.200528    2.113236
    102          1           0        2.503488   -2.726446   -3.684547
    103          1           0        3.663803   -3.981139   -3.171364
    104          1           0        3.858838   -0.940190   -2.797946
    105          1           0        6.220829   -3.462477   -0.722036
    106          1           0        7.201945   -3.450438   -2.230086
    107          1           0        5.538282   -4.194553   -2.214212
    108          1           0        7.100287   -1.065791   -1.418241
    109          1           0        5.540432   -0.203895   -1.556587
    110          1           0        5.843956    0.633726   -3.612410
    111          1           0        6.315704   -0.846475   -4.313840
    112          1           0        8.353309   -0.334792   -4.482787
    113          1           0        8.457621   -0.119551   -2.714728
    114          1           0        7.378700    2.335155   -3.389381
    115          1           0        9.084663    1.560881   -5.620400
    116          1           0        8.144208    3.143656   -5.444336
    117          1           0        7.397253    1.526223   -5.789687
    118          1           0        9.931461    2.998315   -3.879563
    119          1           0       10.217935    1.538094   -2.933412
    120          1           0        8.170759    2.831925   -1.467441
    121          1           0        9.291846    4.036694   -2.034107
    122          1           0       10.245484    3.474148   -0.031414
    123          1           0       11.158164    2.408903   -1.213387
    124          1           0        8.795874    1.566842    0.522766
    125          1           0        9.230677   -0.491933   -0.450930
    126          1           0       10.930947   -0.362276    0.177646
    127          1           0       10.614252    0.322450   -1.367823
    128          1           0       11.006694    2.574214    1.866761
    129          1           0       11.444609    0.937845    1.821888
    130          1           0        8.624112    1.263419    2.603094
    131          1           0        9.681306    2.291981    3.495332
    132          1           0       10.844322   -0.459081    3.322744
    133          1           0        9.212058   -0.577637    3.582906
    134          1           0       10.291212    1.440237    5.457498
    135          1           0       11.716728   -0.271866    6.742359
    136          1           0       12.430770    0.841320    5.742212
    137          1           0       12.282117   -0.743087    5.111135
    138          1           0        8.761625    0.516011    6.824067
    139          1           0        9.626409   -1.144881    6.560381
    140          1           0        8.381014   -0.516357    5.535920
 ---------------------------------------------------------------------

 SCF Done:  E(RwB97XD) =  -3007.86080243     A.U. after   20 cycles

 Excitation energies and oscillator strengths:

 Excited State   1:      Singlet-A      1.6838 eV  736.36 nm  f=0.3478  <S**2>=0.000
     245 -> 248        0.20589
     246 -> 247        0.67739
     245 <- 248        0.12032
 This state for optimization and/or second-order correction.
 Total Energy, E(TD-HF/TD-DFT) =  -3007.79892559
 Copying the excited state density for this state as the 1-particle RhoCI density.

 Excited State   2:      Singlet-A      2.1969 eV  564.36 nm  f=0.0892  <S**2>=0.000
     245 -> 247        0.62724
     246 -> 248       -0.31560

 Excited State   3:      Singlet-A      3.4881 eV  355.45 nm  f=0.5774  <S**2>=0.000
     241 -> 247        0.14204
     243 -> 247        0.24467
     245 -> 247        0.26648
     246 -> 248        0.57335
     245 <- 247       -0.10810

 Excited State   4:      Singlet-A      3.5736 eV  346.94 nm  f=0.1069  <S**2>=0.000
     241 -> 247       -0.24754
     243 -> 247        0.58448
     245 -> 247       -0.10829
     246 -> 248       -0.17023

 Excited State   5:      Singlet-A      3.6804 eV  336.88 nm  f=0.0039  <S**2>=0.000
     239 -> 247        0.30573
     239 -> 248        0.11994
     239 -> 249       -0.23952
     239 -> 250       -0.16761
     240 -> 247        0.36955
     240 -> 248        0.13240
     240 -> 249       -0.26432
     240 -> 250       -0.16955
     241 -> 247       -0.15086

 The electronic state is 1-A.
 Alpha  occ. eigenvalues --  -46.95998 -19.30642 -19.29293 -19.25102 -19.24606
 Alpha  occ. eigenvalues --  -19.24540 -19.23918 -14.46680 -14.46584 -14.44880
 Alpha  occ. eigenvalues --  -14.44320 -10.43906 -10.42793 -10.40004 -10.39067
 Alpha  occ. eigenvalues --  -10.35622 -10.35295 -10.35278 -10.35210 -10.34912
 Alpha  occ. eigenvalues --  -10.34902 -10.34793 -10.34735 -10.33815 -10.33517
 Alpha  occ. eigenvalues --  -10.33253 -10.33222 -10.32941 -10.32896 -10.32229
 Alpha  occ. eigenvalues --  -10.32085 -10.32034 -10.31679 -10.31659 -10.31621
 Alpha  occ. eigenvalues --  -10.31570 -10.31485 -10.31415 -10.31337 -10.31326
 Alpha  occ. eigenvalues --  -10.30810 -10.30478 -10.30431 -10.30400 -10.30391
 Alpha  occ. eigenvalues --  -10.30316 -10.30065 -10.29991 -10.29774 -10.29633
 Alpha  occ. eigenvalues --  -10.29549 -10.29489 -10.29447 -10.29300 -10.28929
 Alpha  occ. eigenvalues --  -10.28821 -10.28813 -10.28793 -10.28787 -10.28659
 Alpha  occ. eigenvalues --  -10.28637 -10.28601 -10.28399 -10.28180 -10.28127
 Alpha  occ. eigenvalues --  -10.28124  -3.21903  -1.95471  -1.95061  -1.94843
 Alpha  occ. eigenvalues --   -1.17533  -1.15971  -1.12872  -1.12137  -1.09048
 Alpha  occ. eigenvalues --   -1.08205  -1.06721  -1.06037  -1.04630  -1.03635
 Alpha  occ. eigenvalues --   -0.93718  -0.93019  -0.91914  -0.91163  -0.91015
 Alpha  occ. eigenvalues --   -0.90880  -0.90480  -0.89511  -0.89327  -0.88587
 Alpha  occ. eigenvalues --   -0.87782  -0.86701  -0.86145  -0.85468  -0.85276
 Alpha  occ. eigenvalues --   -0.84626  -0.84419  -0.83207  -0.82775  -0.82334
 Alpha  occ. eigenvalues --   -0.82010  -0.80617  -0.79584  -0.79097  -0.78287
 Alpha  occ. eigenvalues --   -0.77700  -0.77527  -0.77267  -0.77020  -0.76260
 Alpha  occ. eigenvalues --   -0.74666  -0.74169  -0.73379  -0.71928  -0.70790
 Alpha  occ. eigenvalues --   -0.70446  -0.70242  -0.69275  -0.68898  -0.67700
 Alpha  occ. eigenvalues --   -0.67307  -0.67292  -0.66906  -0.66254  -0.66171
 Alpha  occ. eigenvalues --   -0.65262  -0.65026  -0.64831  -0.63699  -0.62485
 Alpha  occ. eigenvalues --   -0.61332  -0.61225  -0.60968  -0.60379  -0.59526
 Alpha  occ. eigenvalues --   -0.58969  -0.58616  -0.58124  -0.57626  -0.57461
 Alpha  occ. eigenvalues --   -0.56844  -0.56655  -0.56356  -0.55999  -0.55786
 Alpha  occ. eigenvalues --   -0.55641  -0.55372  -0.55205  -0.55167  -0.54873
 Alpha  occ. eigenvalues --   -0.54493  -0.54352  -0.54088  -0.53782  -0.53680
 Alpha  occ. eigenvalues --   -0.53604  -0.53380  -0.53077  -0.52795  -0.52719
 Alpha  occ. eigenvalues --   -0.52423  -0.52353  -0.52194  -0.52071  -0.51828
 Alpha  occ. eigenvalues --   -0.51661  -0.51535  -0.51241  -0.51021  -0.50861
 Alpha  occ. eigenvalues --   -0.50437  -0.50260  -0.49833  -0.49738  -0.49597
 Alpha  occ. eigenvalues --   -0.49483  -0.49201  -0.49107  -0.48964  -0.48754
 Alpha  occ. eigenvalues --   -0.48455  -0.48326  -0.48257  -0.47973  -0.47742
 Alpha  occ. eigenvalues --   -0.47465  -0.47216  -0.47126  -0.47012  -0.46866
 Alpha  occ. eigenvalues --   -0.46782  -0.46753  -0.46478  -0.46200  -0.46026
 Alpha  occ. eigenvalues --   -0.45884  -0.45652  -0.45524  -0.45384  -0.45138
 Alpha  occ. eigenvalues --   -0.44861  -0.44647  -0.44552  -0.44284  -0.44174
 Alpha  occ. eigenvalues --   -0.44022  -0.43799  -0.43755  -0.43675  -0.43363
 Alpha  occ. eigenvalues --   -0.43265  -0.42941  -0.42565  -0.42502  -0.41796
 Alpha  occ. eigenvalues --   -0.41461  -0.41204  -0.40952  -0.40894  -0.40811
 Alpha  occ. eigenvalues --   -0.40411  -0.40077  -0.40023  -0.39805  -0.39321
 Alpha  occ. eigenvalues --   -0.39162  -0.38883  -0.38751  -0.38375  -0.38146
 Alpha  occ. eigenvalues --   -0.38052  -0.37443  -0.36838  -0.36267  -0.35974
 Alpha  occ. eigenvalues --   -0.35829  -0.35772  -0.35292  -0.33590  -0.33345
 Alpha  occ. eigenvalues --   -0.32920  -0.32695  -0.31836  -0.31577  -0.25810
 Alpha  occ. eigenvalues --   -0.23016
 Alpha virt. eigenvalues --   -0.06749  -0.00246   0.02126   0.04133   0.05013
 Alpha virt. eigenvalues --    0.05520   0.06521   0.06843   0.07927   0.09524
 Alpha virt. eigenvalues --    0.10758   0.11646   0.12047   0.12139   0.12487

 Mulliken charges:
               1
     1  Mg   0.967118
     2  C    0.011925
     3  C   -0.104996
     4  C   -0.064851
     5  C   -0.094411
     6  N   -0.348009
     7  C    0.015263
     8  C   -0.045356
     9  C   -0.097358
    10  C    0.083138
    11  C   -0.014686
    12  C   -0.012463
    13  C    0.058768
    14  C    0.218062
    15  O   -0.292339
    16  O   -0.395202
    17  N   -0.467964
    18  C    0.155871
    19  C   -0.188820
    20  C   -0.064096
    21  C    0.142282
    22  C    0.066654
    23  C    0.051020
    24  O   -0.249089
    25  C   -0.006085
    26  N   -0.288161
    27  C    0.012094
    28  C   -0.131599
    29  C   -0.030483
    30  C   -0.010316
    31  C    0.046485
    32  C    0.007629
    33  C   -0.066736
    34  N   -0.459209
    35  C    0.178341
    36  C   -0.189254
    37  C   -0.069139
    38  C    0.132366
    39  C    0.076250
    40  C    0.154605
    41  O   -0.185187
    42  C   -0.123169
    43  C    0.246593
    44  O   -0.274953
    45  O   -0.373430
    46  C    0.141493
    47  C    0.257956
    48  C   -0.145480
    49  C   -0.246423
    50  C    0.066953
    51  C    0.032291
    52  C   -0.041472
    53  C    0.017679
    54  C   -0.159563
    55  C    0.011004
    56  C    0.033835
    57  C   -0.019266
    58  C   -0.013226
    59  C   -0.188591
    60  C    0.053707
    61  C    0.017384
    62  C   -0.038053
    63  C    0.005189
    64  C   -0.210253
    65  C   -0.012805
    66  C    0.007416
    67  H   -0.003667
    68  H    0.026329
    69  H   -0.000831
    70  H    0.048570
    71  H    0.046116
    72  H    0.038737
    73  H    0.053442
    74  H    0.033777
    75  H    0.040005
    76  H    0.034743
    77  H    0.058299
    78  H    0.051123
    79  H    0.055316
    80  H    0.046305
    81  H    0.056346
    82  H    0.055678
    83  H    0.055663
    84  H    0.070873
    85  H    0.035660
    86  H    0.033395
    87  H    0.024506
    88  H    0.047416
    89  H    0.052080
    90  H    0.041616
    91  H    0.048821
    92  H    0.040519
    93  H    0.040477
    94  H    0.028550
    95  H    0.062509
    96  H    0.044241
    97  H    0.057097
    98  H    0.083095
    99  H    0.053411
   100  H    0.072672
   101  H    0.051973
   102  H    0.043315
   103  H    0.032011
   104  H    0.015589
   105  H    0.061683
   106  H    0.045503
   107  H    0.033715
   108  H    0.019634
   109  H    0.040769
   110  H    0.016181
   111  H    0.029960
   112  H    0.019472
   113  H   -0.011601
   114  H    0.013508
   115  H    0.017369
   116  H    0.036316
   117  H    0.020650
   118  H    0.010404
   119  H    0.004755
   120  H    0.015209
   121  H    0.023022
   122  H    0.014163
   123  H    0.023091
   124  H    0.009537
   125  H    0.044503
   126  H    0.017613
   127  H    0.021456
   128  H    0.011654
   129  H    0.014527
   130  H    0.018505
   131  H    0.022265
   132  H    0.005979
   133  H    0.008217
   134  H    0.021947
   135  H    0.017252
   136  H    0.020542
   137  H    0.030632
   138  H    0.037362
   139  H    0.032818
   140  H    0.008731
 Sum of Mulliken charges =  -0.00000

 Dipole moment (field-independent basis, Debye):
    X=              4.2514    Y=              4.5742    Z=             -0.4516  Tot=              6.2611
 Quadrupole moment (field-independent basis, Debye-Ang):
   XX=           -372.8510   YY=           -425.7090   ZZ=           -414.9621
   XY=            -18.6814   XZ=             11.0568   YZ=            -10.0174

 Normal termination of Gaussian 16 at Sat Apr 30 17:20:27 2022.
