 Gaussian 16, Revision A.03,
 Gaussian 16:  ES64L-G16RevA.03 25-Dec-2016

 --------------------
 #p ZINDO=(nstates=5)
 --------------------

 -----------------------------
 step_801_chromophore_27 ZINDO
 -----------------------------
 Symbolic Z-matrix:
 Charge =  0 Multiplicity = 1

                         Standard orientation:
 ---------------------------------------------------------------------
 Center     Atomic      Atomic             Coordinates (Angstroms)
 Number     Number       Type             X           Y           Z
 ---------------------------------------------------------------------
      1         12           0       -4.596340    0.856058    0.068761
      2          6           0       -3.864402   -2.564625    0.313641
      3          6           0       -1.194458    1.494409    0.555888
      4          6           0       -5.368316    4.006988    0.002597
      5          6           0       -8.112798    0.012112    0.264772
      6          7           0       -2.760885   -0.439880    0.529409
      7          6           0       -2.686939   -1.826178    0.467493
      8          6           0       -1.233914   -2.307286    0.555276
      9          6           0       -0.412629   -0.975670    0.831361
     10          6           0       -1.524478    0.126239    0.688711
     11          6           0        0.306989   -0.950217    2.294362
     12          6           0       -0.783115   -3.090046   -0.755469
     13          6           0        0.334085   -4.093665   -0.578388
     14          6           0        1.255350   -4.133855   -1.818834
     15          8           0        0.951275   -4.637209   -2.930722
     16          8           0        2.462476   -3.385066   -1.661359
     17          7           0       -3.428460    2.490212    0.284112
     18          6           0       -2.098855    2.606883    0.409650
     19          6           0       -1.720007    3.999073    0.162333
     20          6           0       -2.929792    4.748613    0.075253
     21          6           0       -3.978099    3.732007    0.127728
     22          6           0       -0.293824    4.370448    0.197060
     23          6           0       -3.111250    6.283946    0.163066
     24          8           0       -4.211393    6.843956    0.281824
     25          6           0       -1.935452    7.192334    0.313011
     26          7           0       -6.579115    1.911511    0.308956
     27          6           0       -6.539495    3.193459    0.034802
     28          6           0       -8.009259    3.847633    0.059824
     29          6           0       -8.911426    2.539825   -0.031609
     30          6           0       -7.852556    1.429126    0.198390
     31          6           0       -8.217934    4.773032    1.246532
     32          6           0       -9.601288    2.520579   -1.360699
     33          6           0      -11.080835    1.957183   -1.287549
     34          7           0       -5.784222   -0.821292    0.188509
     35          6           0       -7.172113   -0.997932    0.218975
     36          6           0       -7.507360   -2.409448    0.254454
     37          6           0       -6.240139   -3.097005    0.150872
     38          6           0       -5.204190   -2.059366    0.252149
     39          6           0       -8.925156   -3.022241    0.403544
     40          6           0       -5.558750   -4.385276    0.180426
     41          8           0       -5.942534   -5.525038    0.204116
     42          6           0       -3.988807   -4.069588    0.115653
     43          6           0       -3.285478   -4.841357    1.148108
     44          8           0       -3.318706   -4.559457    2.363730
     45          8           0       -2.640874   -5.923017    0.555084
     46          6           0       -2.029234   -6.813490    1.543771
     47          6           0        3.174887   -3.048819   -2.888514
     48          6           0        4.205150   -1.960109   -2.629219
     49          6           0        5.511863   -2.115070   -2.224829
     50          6           0        6.196999   -3.425397   -1.810799
     51          6           0        6.263130   -0.833153   -2.076547
     52          6           0        6.540871   -0.192261   -3.471210
     53          6           0        8.035549    0.277026   -3.638632
     54          6           0        8.231331    1.804111   -3.812738
     55          6           0        8.186425    2.068463   -5.269504
     56          6           0        9.475515    2.297630   -3.179753
     57          6           0        9.204416    2.980005   -1.781874
     58          6           0       10.212060    2.629963   -0.719211
     59          6           0        9.849613    1.437252    0.275124
     60          6           0       10.140888    0.105111   -0.410243
     61          6           0       10.585589    1.589553    1.662746
     62          6           0        9.671209    1.395631    2.875863
     63          6           0       10.023101    0.136397    3.721229
     64          6           0       10.313268    0.371276    5.243587
     65          6           0       11.735911    0.002925    5.687727
     66          6           0        9.221886   -0.215127    6.160140
     67          1           0       -0.114975    1.656711    0.507409
     68          1           0       -5.573282    5.069478   -0.143787
     69          1           0       -9.170342   -0.259108    0.281687
     70          1           0       -1.128436   -3.017384    1.374771
     71          1           0        0.385080   -0.849739    0.097964
     72          1           0        1.295807   -1.408322    2.269546
     73          1           0       -0.282410   -1.472158    3.047188
     74          1           0        0.535716    0.048801    2.666781
     75          1           0       -0.610859   -2.407531   -1.587457
     76          1           0       -1.654572   -3.615568   -1.146487
     77          1           0       -0.119009   -5.083184   -0.541960
     78          1           0        0.873026   -3.968716    0.360879
     79          1           0       -0.121326    5.308611   -0.330517
     80          1           0        0.358840    3.521881   -0.008921
     81          1           0       -0.090073    4.521396    1.256664
     82          1           0       -1.320747    6.722695    1.081107
     83          1           0       -2.350386    8.136963    0.663804
     84          1           0       -1.490539    7.423726   -0.655432
     85          1           0       -7.955595    4.417899   -0.866917
     86          1           0       -9.501279    2.576223    0.883816
     87          1           0       -8.051736    4.209243    2.164758
     88          1           0       -9.228989    5.163293    1.363340
     89          1           0       -7.381538    5.470150    1.188580
     90          1           0       -9.083419    1.764641   -1.951310
     91          1           0       -9.650185    3.498706   -1.839141
     92          1           0      -11.189285    0.969747   -1.734383
     93          1           0      -11.719898    2.692617   -1.776961
     94          1           0      -11.404799    1.840002   -0.253122
     95          1           0       -8.856510   -4.104203    0.292988
     96          1           0       -9.577832   -2.650877   -0.386987
     97          1           0       -9.346535   -2.750845    1.371992
     98          1           0       -3.568846   -4.476378   -0.804131
     99          1           0       -1.511526   -7.523683    0.898982
    100          1           0       -2.755476   -7.355945    2.149598
    101          1           0       -1.331284   -6.200528    2.113236
    102          1           0        2.503488   -2.726446   -3.684547
    103          1           0        3.663803   -3.981139   -3.171364
    104          1           0        3.858838   -0.940190   -2.797946
    105          1           0        6.220829   -3.462477   -0.722036
    106          1           0        7.201945   -3.450438   -2.230086
    107          1           0        5.538282   -4.194553   -2.214212
    108          1           0        7.100287   -1.065791   -1.418241
    109          1           0        5.540432   -0.203895   -1.556587
    110          1           0        5.843956    0.633726   -3.612410
    111          1           0        6.315704   -0.846475   -4.313840
    112          1           0        8.353309   -0.334792   -4.482787
    113          1           0        8.457621   -0.119551   -2.714728
    114          1           0        7.378700    2.335155   -3.389381
    115          1           0        9.084663    1.560881   -5.620400
    116          1           0        8.144208    3.143656   -5.444336
    117          1           0        7.397253    1.526223   -5.789687
    118          1           0        9.931461    2.998315   -3.879563
    119          1           0       10.217935    1.538094   -2.933412
    120          1           0        8.170759    2.831925   -1.467441
    121          1           0        9.291846    4.036694   -2.034107
    122          1           0       10.245484    3.474148   -0.031414
    123          1           0       11.158164    2.408903   -1.213387
    124          1           0        8.795874    1.566842    0.522766
    125          1           0        9.230677   -0.491933   -0.450930
    126          1           0       10.930947   -0.362276    0.177646
    127          1           0       10.614252    0.322450   -1.367823
    128          1           0       11.006694    2.574214    1.866761
    129          1           0       11.444609    0.937845    1.821888
    130          1           0        8.624112    1.263419    2.603094
    131          1           0        9.681306    2.291981    3.495332
    132          1           0       10.844322   -0.459081    3.322744
    133          1           0        9.212058   -0.577637    3.582906
    134          1           0       10.291212    1.440237    5.457498
    135          1           0       11.716728   -0.271866    6.742359
    136          1           0       12.430770    0.841320    5.742212
    137          1           0       12.282117   -0.743087    5.111135
    138          1           0        8.761625    0.516011    6.824067
    139          1           0        9.626409   -1.144881    6.560381
    140          1           0        8.381014   -0.516357    5.535920
 ---------------------------------------------------------------------

 SCF Done:  E(RZINDO/S) =  -473.952753169     A.U. after   20 cycles

 Excitation energies and oscillator strengths:

 Excited State   1:      Singlet-A      1.2547 eV  988.13 nm  f=0.5566  <S**2>=0.000
     175 ->178         0.20801
     176 ->177         0.65833
 This state for optimization and/or second-order correction.
 Total Energy, E(CIS/TDA) =  -473.906642455
 Copying the excited state density for this state as the 1-particle RhoCI density.

 Excited State   2:      Singlet-A      1.9180 eV  646.44 nm  f=0.0258  <S**2>=0.000
     175 ->177         0.53418
     176 ->178        -0.44161

 Excited State   3:      Singlet-A      2.9151 eV  425.31 nm  f=0.0782  <S**2>=0.000
     168 ->177         0.26168
     168 ->178         0.13717
     168 ->179        -0.34985
     168 ->181        -0.32876
     168 ->186        -0.22300
     175 ->177         0.10469
     176 ->178         0.13614
     176 ->179        -0.11508

 Excited State   4:      Singlet-A      3.0015 eV  413.08 nm  f=1.0860  <S**2>=0.000
     175 ->177         0.38438
     176 ->178         0.47865
     176 ->179         0.15724

 Excited State   5:      Singlet-A      3.0261 eV  409.72 nm  f=0.1089  <S**2>=0.000
     176 ->178        -0.11412
     176 ->179         0.62032
     176 ->182         0.13704

 The electronic state is 1-A.
 Alpha  occ. eigenvalues --   -1.81602  -1.80523  -1.78218  -1.71467  -1.70028
 Alpha  occ. eigenvalues --   -1.68349  -1.67442  -1.60806  -1.59118  -1.58127
 Alpha  occ. eigenvalues --   -1.55732  -1.52524  -1.48535  -1.48019  -1.46794
 Alpha  occ. eigenvalues --   -1.42691  -1.42101  -1.40574  -1.40182  -1.38149
 Alpha  occ. eigenvalues --   -1.33951  -1.32865  -1.32053  -1.31439  -1.27810
 Alpha  occ. eigenvalues --   -1.27420  -1.24870  -1.21715  -1.20356  -1.18278
 Alpha  occ. eigenvalues --   -1.16781  -1.16484  -1.15933  -1.15453  -1.14390
 Alpha  occ. eigenvalues --   -1.12448  -1.10799  -1.10151  -1.04260  -1.02796
 Alpha  occ. eigenvalues --   -1.00924  -0.99936  -0.98117  -0.97287  -0.95979
 Alpha  occ. eigenvalues --   -0.95142  -0.94986  -0.94662  -0.93502  -0.92562
 Alpha  occ. eigenvalues --   -0.91753  -0.90663  -0.89998  -0.88250  -0.87220
 Alpha  occ. eigenvalues --   -0.86379  -0.84015  -0.83045  -0.81864  -0.79953
 Alpha  occ. eigenvalues --   -0.79036  -0.78440  -0.77170  -0.76912  -0.76795
 Alpha  occ. eigenvalues --   -0.75355  -0.74849  -0.74505  -0.73739  -0.73289
 Alpha  occ. eigenvalues --   -0.72941  -0.72648  -0.71846  -0.71668  -0.71074
 Alpha  occ. eigenvalues --   -0.70619  -0.69958  -0.68390  -0.67963  -0.67845
 Alpha  occ. eigenvalues --   -0.67202  -0.66943  -0.66756  -0.66481  -0.66010
 Alpha  occ. eigenvalues --   -0.65801  -0.65272  -0.64345  -0.63952  -0.63341
 Alpha  occ. eigenvalues --   -0.63141  -0.62857  -0.62294  -0.61963  -0.61863
 Alpha  occ. eigenvalues --   -0.61500  -0.61298  -0.61020  -0.60452  -0.60086
 Alpha  occ. eigenvalues --   -0.59520  -0.59237  -0.58875  -0.58702  -0.58306
 Alpha  occ. eigenvalues --   -0.58155  -0.57845  -0.57703  -0.57233  -0.56641
 Alpha  occ. eigenvalues --   -0.56209  -0.55528  -0.55270  -0.55198  -0.55036
 Alpha  occ. eigenvalues --   -0.54506  -0.54055  -0.53781  -0.53621  -0.53105
 Alpha  occ. eigenvalues --   -0.52578  -0.52378  -0.52133  -0.51918  -0.51842
 Alpha  occ. eigenvalues --   -0.51143  -0.50973  -0.50868  -0.50820  -0.50716
 Alpha  occ. eigenvalues --   -0.50474  -0.49873  -0.49833  -0.49510  -0.48794
 Alpha  occ. eigenvalues --   -0.48544  -0.48385  -0.48306  -0.48236  -0.47752
 Alpha  occ. eigenvalues --   -0.47663  -0.47270  -0.46939  -0.46787  -0.46515
 Alpha  occ. eigenvalues --   -0.46215  -0.46043  -0.45759  -0.45635  -0.45385
 Alpha  occ. eigenvalues --   -0.45131  -0.44854  -0.44778  -0.44765  -0.44064
 Alpha  occ. eigenvalues --   -0.43551  -0.43392  -0.42549  -0.42379  -0.42104
 Alpha  occ. eigenvalues --   -0.41765  -0.41624  -0.41505  -0.39365  -0.38736
 Alpha  occ. eigenvalues --   -0.38029  -0.37161  -0.35524  -0.34839  -0.34766
 Alpha  occ. eigenvalues --   -0.33300  -0.32592  -0.32116  -0.31685  -0.26370
 Alpha  occ. eigenvalues --   -0.21678
 Alpha virt. eigenvalues --   -0.08192  -0.02296  -0.00507   0.00848   0.01217
 Alpha virt. eigenvalues --    0.01769   0.02278   0.02765   0.04242   0.04593
 Alpha virt. eigenvalues --    0.06084   0.06771   0.07246   0.07640   0.08143

 Mulliken charges:
               1
     1  Mg   0.440662
     2  C   -0.045067
     3  C   -0.104877
     4  C   -0.061159
     5  C   -0.049487
     6  N   -0.306146
     7  C    0.127528
     8  C    0.008311
     9  C   -0.001275
    10  C    0.140829
    11  C   -0.056605
    12  C   -0.019625
    13  C    0.019521
    14  C    0.456390
    15  O   -0.519016
    16  O   -0.282968
    17  N   -0.302206
    18  C    0.121502
    19  C    0.010456
    20  C   -0.050097
    21  C    0.125914
    22  C   -0.043696
    23  C    0.326686
    24  O   -0.527529
    25  C   -0.030363
    26  N   -0.241186
    27  C    0.123744
    28  C   -0.009841
    29  C    0.012390
    30  C    0.089050
    31  C   -0.048947
    32  C   -0.024733
    33  C   -0.067327
    34  N   -0.322909
    35  C    0.088974
    36  C    0.028236
    37  C   -0.074460
    38  C    0.121568
    39  C   -0.035442
    40  C    0.342683
    41  O   -0.509714
    42  C    0.047902
    43  C    0.485687
    44  O   -0.538159
    45  O   -0.269189
    46  C    0.075105
    47  C    0.107953
    48  C   -0.115907
    49  C    0.002350
    50  C   -0.041422
    51  C   -0.023989
    52  C   -0.036025
    53  C   -0.047795
    54  C    0.004033
    55  C   -0.054556
    56  C   -0.035422
    57  C   -0.040570
    58  C   -0.035440
    59  C   -0.015493
    60  C   -0.059995
    61  C   -0.038686
    62  C   -0.034569
    63  C   -0.036592
    64  C   -0.008539
    65  C   -0.057854
    66  C   -0.060176
    67  H    0.026512
    68  H    0.044652
    69  H    0.028735
    70  H    0.041473
    71  H    0.033488
    72  H    0.015872
    73  H    0.029970
    74  H    0.021144
    75  H    0.030370
    76  H    0.024426
    77  H    0.041824
    78  H    0.039136
    79  H    0.031272
    80  H    0.036243
    81  H    0.029945
    82  H    0.039927
    83  H    0.037269
    84  H    0.045816
    85  H    0.029042
    86  H    0.038050
    87  H    0.014559
    88  H    0.027599
    89  H    0.034323
    90  H    0.026143
    91  H    0.031697
    92  H    0.022907
    93  H    0.019497
    94  H    0.017610
    95  H    0.034037
    96  H    0.026859
    97  H    0.035682
    98  H    0.057297
    99  H    0.025930
   100  H    0.055833
   101  H    0.044001
   102  H    0.046980
   103  H    0.041852
   104  H    0.026713
   105  H    0.036514
   106  H    0.031050
   107  H    0.030232
   108  H    0.026436
   109  H    0.024191
   110  H    0.017922
   111  H    0.020814
   112  H    0.024172
   113  H    0.017901
   114  H    0.017764
   115  H    0.016179
   116  H    0.019769
   117  H    0.014317
   118  H    0.016733
   119  H    0.022926
   120  H    0.022806
   121  H    0.010608
   122  H    0.011323
   123  H    0.026671
   124  H    0.021968
   125  H    0.027243
   126  H    0.018412
   127  H    0.025897
   128  H    0.013639
   129  H    0.022364
   130  H    0.015392
   131  H    0.018602
   132  H    0.016657
   133  H    0.011981
   134  H    0.014308
   135  H    0.011932
   136  H    0.010667
   137  H    0.022687
   138  H    0.028587
   139  H    0.026838
   140  H    0.007391
 Sum of Mulliken charges =  -0.00000

 Dipole moment (field-independent basis, Debye):
    X=              6.2426    Y=              5.3015    Z=             -1.2618  Tot=              8.2866
 N-N= 4.365079442710D+03 E-N= 0.000000000000D+00  KE=-9.404033996309D+03
 Leave Link  601 at Sat Apr 30 17:32:12 2022, MaxMem=  6710886400 cpu:               0.8 elap:               0.1
 (Enter /sw/apps/gaussian-16.0/g16/l9999.exe)
 1\1\GINC-BP1-COMPUTE103\SP\RZINDO CIS\STO-3G\C55H74Mg1N4O6\OF15641\30-
 Apr-2022\0\\#p ZINDO=(nstates=5)\\step_801_chromophore_27 ZINDO\\0,1\M
 g,0,-5.856,25.061,27.041\C,0,-4.046,26.718,29.546\C,0,-6.657,22.616,29
 .407\C,0,-7.369,23.494,24.636\C,0,-4.363,27.305,24.622\N,0,-5.266,24.6
 72,29.223\C,0,-4.607,25.551,30.074\C,0,-4.651,25.055,31.524\C,0,-5.334
 ,23.625,31.412\C,0,-5.747,23.581,29.896\C,0,-4.341,22.399,31.824\C,0,-
 5.419,26.07,32.48\C,0,-5.031,26.029,33.941\C,0,-6.251,26.288,34.854\O,

 Normal termination of Gaussian 16 at Sat Apr 30 17:32:12 2022.
