 Gaussian 16, Revision A.03,
 Gaussian 16:  ES64L-G16RevA.03 25-Dec-2016

 ------------------------------
 #p blyp/Def2SVP td=(nstates=5)
 ------------------------------

 --------------------------------------------------
 step_601_chromophore_16 TDDFT with blyp functional
 --------------------------------------------------
 Symbolic Z-matrix:
 Charge =  0 Multiplicity = 1

                         Standard orientation:
 ---------------------------------------------------------------------
 Center     Atomic      Atomic             Coordinates (Angstroms)
 Number     Number       Type             X           Y           Z
 ---------------------------------------------------------------------
      1         12           0        6.223650    0.549600    0.150145
      2          6           0        4.104596   -2.213885    0.186997
      3          6           0        3.346891    2.570543   -0.533326
      4          6           0        8.303717    3.151833   -0.074431
      5          6           0        8.945650   -1.582296    0.402016
      6          7           0        3.958809    0.206301   -0.211530
      7          6           0        3.372019   -1.033034   -0.149166
      8          6           0        1.831751   -0.912608   -0.263547
      9          6           0        1.625101    0.625540   -0.705771
     10          6           0        3.032154    1.212297   -0.469652
     11          6           0        1.146872    0.836476   -2.172481
     12          6           0        1.092755   -1.445134    0.994222
     13          6           0       -0.407214   -0.975174    1.101928
     14          6           0       -1.508140   -2.021756    1.313910
     15          8           0       -1.531000   -2.816328    2.227925
     16          8           0       -2.567603   -1.934288    0.439891
     17          7           0        5.895558    2.553277   -0.236927
     18          6           0        4.620842    3.194688   -0.493314
     19          6           0        4.879167    4.581281   -0.657044
     20          6           0        6.311863    4.783680   -0.496954
     21          6           0        6.892364    3.481805   -0.231819
     22          6           0        3.804784    5.652134   -0.873129
     23          6           0        7.035333    6.088179   -0.574849
     24          8           0        8.169954    6.272226   -0.244687
     25          6           0        6.416893    7.348309   -0.984645
     26          7           0        8.319811    0.729458    0.011391
     27          6           0        8.966133    1.967931    0.020592
     28          6           0       10.443790    1.787338    0.301963
     29          6           0       10.641527    0.268432    0.348330
     30          6           0        9.210566   -0.224528    0.306488
     31          6           0       11.364900    2.652132   -0.635209
     32          6           0       11.437950   -0.214357    1.600339
     33          6           0       10.646755   -0.352631    2.942248
     34          7           0        6.526277   -1.459014    0.332526
     35          6           0        7.647273   -2.152418    0.307977
     36          6           0        7.294229   -3.606351    0.399571
     37          6           0        5.914316   -3.656832    0.326211
     38          6           0        5.470669   -2.341029    0.288846
     39          6           0        8.276148   -4.780452    0.614558
     40          6           0        4.789385   -4.581382    0.368682
     41          8           0        4.741488   -5.854335    0.341937
     42          6           0        3.543487   -3.667840    0.201740
     43          6           0        2.776852   -3.982714   -1.035217
     44          8           0        3.077078   -3.539949   -2.183796
     45          8           0        1.581709   -4.613760   -0.730395
     46          6           0        0.438827   -4.409543   -1.733688
     47          6           0       -3.715398   -2.664556    0.667940
     48          6           0       -4.772827   -2.035596   -0.117336
     49          6           0       -6.006227   -2.562198   -0.374721
     50          6           0       -6.277820   -3.964122    0.046454
     51          6           0       -7.044094   -1.992296   -1.326681
     52          6           0       -7.379375   -0.562573   -0.995240
     53          6           0       -8.739154   -0.406649   -0.406076
     54          6           0       -9.725088    0.305128   -1.310041
     55          6           0       -9.454140    1.799856   -1.669630
     56          6           0      -11.167866    0.117630   -0.706207
     57          6           0      -12.097826   -0.215703   -1.864367
     58          6           0      -13.273744    0.758973   -1.994506
     59          6           0      -14.544986    0.349939   -1.170540
     60          6           0      -15.603084   -0.303325   -2.035822
     61          6           0      -15.151070    1.513873   -0.398355
     62          6           0      -15.013053    1.363864    1.173516
     63          6           0      -14.313693    2.598581    1.812751
     64          6           0      -13.360013    2.324353    2.991721
     65          6           0      -12.283926    3.494220    3.116462
     66          6           0      -14.065654    2.055867    4.347878
     67          1           0        2.465926    3.209502   -0.456715
     68          1           0        8.987015    3.989641   -0.226398
     69          1           0        9.734866   -2.328609    0.510896
     70          1           0        1.542233   -1.575744   -1.078033
     71          1           0        1.021802    1.127361    0.050840
     72          1           0        0.951709   -0.176848   -2.522342
     73          1           0        1.887187    1.310035   -2.816882
     74          1           0        0.231267    1.410171   -2.312239
     75          1           0        1.635505   -1.017576    1.836470
     76          1           0        0.922870   -2.511546    0.842051
     77          1           0       -0.737239   -0.387563    0.244901
     78          1           0       -0.412552   -0.135394    1.796288
     79          1           0        3.723150    6.318484   -0.014824
     80          1           0        2.827146    5.196444   -1.029718
     81          1           0        3.934686    6.154171   -1.831349
     82          1           0        6.103343    7.292128   -2.027210
     83          1           0        7.147101    8.153849   -0.907799
     84          1           0        5.516575    7.568797   -0.411489
     85          1           0       10.560339    2.222911    1.293995
     86          1           0       11.218402   -0.030367   -0.526217
     87          1           0       10.878159    3.225913   -1.424568
     88          1           0       12.055357    1.943661   -1.091704
     89          1           0       11.928923    3.254603    0.076265
     90          1           0       12.195660    0.530910    1.839513
     91          1           0       11.958335   -1.141188    1.360453
     92          1           0        9.589133   -0.605196    2.871451
     93          1           0       10.758602    0.482938    3.632390
     94          1           0       11.175737   -1.175897    3.423967
     95          1           0        8.955694   -4.549812    1.434919
     96          1           0        8.802621   -4.884183   -0.333928
     97          1           0        7.644959   -5.643382    0.825386
     98          1           0        2.799872   -3.884560    0.968912
     99          1           0       -0.457853   -4.006264   -1.264720
    100          1           0        0.230107   -5.429186   -2.060806
    101          1           0        0.627344   -3.937460   -2.698312
    102          1           0       -3.871740   -2.552081    1.740950
    103          1           0       -3.543774   -3.690947    0.343490
    104          1           0       -4.417478   -1.114041   -0.579359
    105          1           0       -7.154179   -3.931585    0.693833
    106          1           0       -5.435924   -4.457386    0.532329
    107          1           0       -6.515424   -4.612328   -0.797748
    108          1           0       -8.010212   -2.490304   -1.410205
    109          1           0       -6.590721   -2.063259   -2.314560
    110          1           0       -7.407703   -0.034625   -1.948597
    111          1           0       -6.619858   -0.097349   -0.366996
    112          1           0       -8.641463    0.370045    0.353054
    113          1           0       -9.006467   -1.333838    0.102021
    114          1           0       -9.642743   -0.235062   -2.252727
    115          1           0       -8.551132    2.220471   -1.228013
    116          1           0      -10.271411    2.396049   -1.263906
    117          1           0       -9.353057    2.024022   -2.731994
    118          1           0      -11.613125    0.949500   -0.159141
    119          1           0      -11.179341   -0.754224   -0.052176
    120          1           0      -12.550410   -1.184805   -1.658488
    121          1           0      -11.641888   -0.367434   -2.843084
    122          1           0      -13.449287    0.866165   -3.065856
    123          1           0      -12.874920    1.697238   -1.610449
    124          1           0      -14.333598   -0.427013   -0.435694
    125          1           0      -15.832647   -1.262101   -1.569750
    126          1           0      -15.237710   -0.587494   -3.022878
    127          1           0      -16.440780    0.377508   -2.183484
    128          1           0      -16.223522    1.587325   -0.582674
    129          1           0      -14.831935    2.535775   -0.602937
    130          1           0      -14.438781    0.495288    1.497332
    131          1           0      -15.959892    1.364384    1.712169
    132          1           0      -15.042682    3.284314    2.244181
    133          1           0      -13.817340    3.245862    1.089092
    134          1           0      -12.736432    1.454181    2.789431
    135          1           0      -12.807128    4.415063    2.857747
    136          1           0      -11.508082    3.346011    2.364323
    137          1           0      -11.856848    3.522088    4.118981
    138          1           0      -13.764211    2.806758    5.077470
    139          1           0      -13.768482    1.047745    4.638390
    140          1           0      -15.148644    2.162072    4.298063
 ---------------------------------------------------------------------

 SCF Done:  E(RB-LYP) =  -3007.34989379     A.U. after   21 cycles

 Excitation energies and oscillator strengths:

 Excited State   1:      Singlet-A      1.4886 eV  832.87 nm  f=0.0007  <S**2>=0.000
     244 -> 247       -0.16258
     245 -> 247        0.68671
 This state for optimization and/or second-order correction.
 Total Energy, E(TD-HF/TD-DFT) =  -3007.29518755
 Copying the excited state density for this state as the 1-particle RhoCI density.

 Excited State   2:      Singlet-A      1.7942 eV  691.04 nm  f=0.2973  <S**2>=0.000
     244 -> 248       -0.11459
     244 -> 249       -0.14224
     246 -> 247        0.68949
     246 <- 247       -0.14935

 Excited State   3:      Singlet-A      2.0136 eV  615.74 nm  f=0.0756  <S**2>=0.000
     241 -> 247        0.10730
     243 -> 247        0.12591
     244 -> 247        0.62446
     245 -> 247        0.14622
     246 -> 248        0.14381
     246 -> 249        0.18109

 Excited State   4:      Singlet-A      2.1200 eV  584.84 nm  f=0.0027  <S**2>=0.000
     243 -> 247        0.69459
     244 -> 247       -0.10602

 Excited State   5:      Singlet-A      2.1727 eV  570.65 nm  f=0.0001  <S**2>=0.000
     242 -> 247        0.70704

 The electronic state is 1-A.
 Alpha  occ. eigenvalues --  -46.26869 -18.83291 -18.82285 -18.77217 -18.77017
 Alpha  occ. eigenvalues --  -18.76565 -18.74013 -14.03641 -14.02773 -14.01500
 Alpha  occ. eigenvalues --  -14.01022 -10.04888 -10.04768 -10.00713  -9.98893
 Alpha  occ. eigenvalues --   -9.98129  -9.97689  -9.97329  -9.96515  -9.96376
 Alpha  occ. eigenvalues --   -9.96050  -9.95942  -9.95721  -9.95560  -9.95039
 Alpha  occ. eigenvalues --   -9.95007  -9.94706  -9.94697  -9.94477  -9.94429
 Alpha  occ. eigenvalues --   -9.94419  -9.94150  -9.93589  -9.93564  -9.93450
 Alpha  occ. eigenvalues --   -9.93394  -9.93211  -9.93092  -9.93012  -9.92825
 Alpha  occ. eigenvalues --   -9.92762  -9.92498  -9.92356  -9.92237  -9.92120
 Alpha  occ. eigenvalues --   -9.92070  -9.91974  -9.91892  -9.91834  -9.91721
 Alpha  occ. eigenvalues --   -9.91683  -9.91619  -9.91553  -9.91512  -9.91265
 Alpha  occ. eigenvalues --   -9.91081  -9.91023  -9.90923  -9.90800  -9.90753
 Alpha  occ. eigenvalues --   -9.90735  -9.90666  -9.90605  -9.90499  -9.90474
 Alpha  occ. eigenvalues --   -9.90390  -2.91540  -1.71970  -1.71435  -1.71238
 Alpha  occ. eigenvalues --   -0.99892  -0.96451  -0.92247  -0.91379  -0.89476
 Alpha  occ. eigenvalues --   -0.88214  -0.87509  -0.85975  -0.84919  -0.83427
 Alpha  occ. eigenvalues --   -0.76382  -0.74653  -0.73377  -0.72907  -0.72343
 Alpha  occ. eigenvalues --   -0.72246  -0.71838  -0.71168  -0.70944  -0.69972
 Alpha  occ. eigenvalues --   -0.69742  -0.69266  -0.68498  -0.67848  -0.67286
 Alpha  occ. eigenvalues --   -0.66513  -0.65858  -0.65401  -0.65174  -0.64560
 Alpha  occ. eigenvalues --   -0.64082  -0.62779  -0.62490  -0.62142  -0.61435
 Alpha  occ. eigenvalues --   -0.60832  -0.60198  -0.59847  -0.59523  -0.58967
 Alpha  occ. eigenvalues --   -0.58668  -0.57776  -0.57232  -0.56050  -0.55515
 Alpha  occ. eigenvalues --   -0.54885  -0.54000  -0.52671  -0.52350  -0.51412
 Alpha  occ. eigenvalues --   -0.50988  -0.50871  -0.50759  -0.50563  -0.50127
 Alpha  occ. eigenvalues --   -0.49801  -0.49658  -0.48730  -0.48515  -0.47444
 Alpha  occ. eigenvalues --   -0.46259  -0.46136  -0.45827  -0.45520  -0.45253
 Alpha  occ. eigenvalues --   -0.44419  -0.44345  -0.43760  -0.43173  -0.42712
 Alpha  occ. eigenvalues --   -0.42375  -0.42015  -0.41594  -0.41529  -0.41294
 Alpha  occ. eigenvalues --   -0.41020  -0.40859  -0.40819  -0.40473  -0.40338
 Alpha  occ. eigenvalues --   -0.39804  -0.39658  -0.39494  -0.39440  -0.39365
 Alpha  occ. eigenvalues --   -0.39183  -0.38912  -0.38580  -0.38318  -0.38240
 Alpha  occ. eigenvalues --   -0.38103  -0.37642  -0.37539  -0.37295  -0.37265
 Alpha  occ. eigenvalues --   -0.37143  -0.36968  -0.36887  -0.36795  -0.36538
 Alpha  occ. eigenvalues --   -0.36329  -0.36190  -0.36057  -0.35823  -0.35466
 Alpha  occ. eigenvalues --   -0.35436  -0.35163  -0.35118  -0.35005  -0.34915
 Alpha  occ. eigenvalues --   -0.34806  -0.34600  -0.34456  -0.34291  -0.34176
 Alpha  occ. eigenvalues --   -0.34098  -0.34011  -0.33831  -0.33190  -0.33120
 Alpha  occ. eigenvalues --   -0.33009  -0.32967  -0.32816  -0.32535  -0.31988
 Alpha  occ. eigenvalues --   -0.31886  -0.31843  -0.31736  -0.31625  -0.31456
 Alpha  occ. eigenvalues --   -0.31432  -0.31225  -0.30979  -0.30867  -0.30726
 Alpha  occ. eigenvalues --   -0.30670  -0.30317  -0.30159  -0.30046  -0.29844
 Alpha  occ. eigenvalues --   -0.29717  -0.29681  -0.29542  -0.29382  -0.29197
 Alpha  occ. eigenvalues --   -0.28960  -0.28871  -0.28410  -0.28328  -0.28009
 Alpha  occ. eigenvalues --   -0.27765  -0.27131  -0.26737  -0.26700  -0.26445
 Alpha  occ. eigenvalues --   -0.26318  -0.26247  -0.25914  -0.25791  -0.25648
 Alpha  occ. eigenvalues --   -0.25441  -0.25192  -0.24620  -0.24151  -0.23598
 Alpha  occ. eigenvalues --   -0.23092  -0.22213  -0.22173  -0.21781  -0.21358
 Alpha  occ. eigenvalues --   -0.19958  -0.19764  -0.19424  -0.17512  -0.17173
 Alpha  occ. eigenvalues --   -0.16026
 Alpha virt. eigenvalues --   -0.11780  -0.07248  -0.06558  -0.04930  -0.04255
 Alpha virt. eigenvalues --   -0.04049  -0.02539  -0.02196  -0.01565   0.00195
 Alpha virt. eigenvalues --    0.00931   0.01544   0.01758   0.01894   0.02644

 Mulliken charges:
               1
     1  Mg   0.699299
     2  C    0.000759
     3  C   -0.074591
     4  C   -0.038138
     5  C   -0.084980
     6  N   -0.200932
     7  C   -0.060975
     8  C   -0.033865
     9  C    0.031736
    10  C   -0.032016
    11  C    0.141622
    12  C    0.157101
    13  C    0.079722
    14  C    0.078223
    15  O   -0.178588
    16  O   -0.255056
    17  N   -0.330691
    18  C    0.174035
    19  C   -0.153907
    20  C    0.064428
    21  C    0.096491
    22  C    0.174782
    23  C   -0.120900
    24  O   -0.151957
    25  C    0.152289
    26  N   -0.234778
    27  C    0.008528
    28  C    0.006675
    29  C    0.087796
    30  C    0.050390
    31  C    0.136977
    32  C    0.058746
    33  C    0.044295
    34  N   -0.253423
    35  C    0.094649
    36  C   -0.224685
    37  C    0.093858
    38  C    0.120074
    39  C    0.177460
    40  C    0.013484
    41  O   -0.174109
    42  C    0.055763
    43  C    0.134443
    44  O   -0.218302
    45  O   -0.286642
    46  C    0.195422
    47  C    0.335021
    48  C   -0.143810
    49  C   -0.129773
    50  C    0.133000
    51  C    0.158054
    52  C    0.091637
    53  C    0.101063
    54  C   -0.082721
    55  C    0.114299
    56  C    0.127616
    57  C    0.042787
    58  C    0.113263
    59  C   -0.052297
    60  C    0.121353
    61  C    0.121372
    62  C    0.076301
    63  C    0.057875
    64  C   -0.124039
    65  C    0.080581
    66  C    0.116929
    67  H   -0.046908
    68  H   -0.047514
    69  H   -0.065848
    70  H   -0.021074
    71  H   -0.023944
    72  H   -0.010179
    73  H    0.004954
    74  H   -0.007456
    75  H   -0.013468
    76  H    0.013819
    77  H   -0.024860
    78  H    0.004409
    79  H    0.020682
    80  H   -0.036572
    81  H   -0.000881
    82  H   -0.011727
    83  H   -0.011739
    84  H   -0.011171
    85  H   -0.016016
    86  H   -0.023301
    87  H    0.019828
    88  H   -0.024932
    89  H   -0.005818
    90  H   -0.022193
    91  H   -0.014913
    92  H    0.016953
    93  H   -0.006437
    94  H   -0.014442
    95  H    0.006972
    96  H    0.009555
    97  H    0.014190
    98  H    0.005826
    99  H    0.028841
   100  H    0.018482
   101  H    0.034946
   102  H   -0.002801
   103  H    0.000651
   104  H   -0.034175
   105  H   -0.003951
   106  H   -0.016792
   107  H   -0.003318
   108  H   -0.038419
   109  H   -0.019726
   110  H   -0.051630
   111  H   -0.030311
   112  H   -0.053166
   113  H   -0.028422
   114  H   -0.038309
   115  H   -0.022369
   116  H   -0.014341
   117  H   -0.010986
   118  H   -0.012153
   119  H   -0.044002
   120  H   -0.047164
   121  H   -0.035883
   122  H   -0.038706
   123  H   -0.039588
   124  H   -0.033682
   125  H   -0.020256
   126  H   -0.032191
   127  H   -0.010581
   128  H   -0.047600
   129  H   -0.031063
   130  H   -0.024167
   131  H   -0.028073
   132  H   -0.040970
   133  H   -0.038701
   134  H   -0.033763
   135  H   -0.015866
   136  H   -0.012893
   137  H   -0.011903
   138  H   -0.022201
   139  H   -0.007306
   140  H   -0.020310
 Sum of Mulliken charges =  -0.00000

 Dipole moment (field-independent basis, Debye):
    X=             -3.2024    Y=              2.1116    Z=             -0.6978  Tot=              3.8989
 Quadrupole moment (field-independent basis, Debye-Ang):
   XX=           -373.4909   YY=           -444.6416   ZZ=           -410.2259
   XY=             -4.9235   XZ=             18.2066   YZ=              3.3857

 Normal termination of Gaussian 16 at Thu May  5 05:00:26 2022.
