 Gaussian 16, Revision A.03,
 Gaussian 16:  ES64L-G16RevA.03 25-Dec-2016

 -----------------------------------
 #p cam-b3lyp/Def2SVP td=(nstates=5)
 -----------------------------------

 -------------------------------------------------------
 step_601_chromophore_16 TDDFT with cam-b3lyp functional
 -------------------------------------------------------
 Symbolic Z-matrix:
 Charge =  0 Multiplicity = 1

                         Standard orientation:
 ---------------------------------------------------------------------
 Center     Atomic      Atomic             Coordinates (Angstroms)
 Number     Number       Type             X           Y           Z
 ---------------------------------------------------------------------
      1         12           0        6.223650    0.549600    0.150145
      2          6           0        4.104596   -2.213885    0.186997
      3          6           0        3.346891    2.570543   -0.533326
      4          6           0        8.303717    3.151833   -0.074431
      5          6           0        8.945650   -1.582296    0.402016
      6          7           0        3.958809    0.206301   -0.211530
      7          6           0        3.372019   -1.033034   -0.149166
      8          6           0        1.831751   -0.912608   -0.263547
      9          6           0        1.625101    0.625540   -0.705771
     10          6           0        3.032154    1.212297   -0.469652
     11          6           0        1.146872    0.836476   -2.172481
     12          6           0        1.092755   -1.445134    0.994222
     13          6           0       -0.407214   -0.975174    1.101928
     14          6           0       -1.508140   -2.021756    1.313910
     15          8           0       -1.531000   -2.816328    2.227925
     16          8           0       -2.567603   -1.934288    0.439891
     17          7           0        5.895558    2.553277   -0.236927
     18          6           0        4.620842    3.194688   -0.493314
     19          6           0        4.879167    4.581281   -0.657044
     20          6           0        6.311863    4.783680   -0.496954
     21          6           0        6.892364    3.481805   -0.231819
     22          6           0        3.804784    5.652134   -0.873129
     23          6           0        7.035333    6.088179   -0.574849
     24          8           0        8.169954    6.272226   -0.244687
     25          6           0        6.416893    7.348309   -0.984645
     26          7           0        8.319811    0.729458    0.011391
     27          6           0        8.966133    1.967931    0.020592
     28          6           0       10.443790    1.787338    0.301963
     29          6           0       10.641527    0.268432    0.348330
     30          6           0        9.210566   -0.224528    0.306488
     31          6           0       11.364900    2.652132   -0.635209
     32          6           0       11.437950   -0.214357    1.600339
     33          6           0       10.646755   -0.352631    2.942248
     34          7           0        6.526277   -1.459014    0.332526
     35          6           0        7.647273   -2.152418    0.307977
     36          6           0        7.294229   -3.606351    0.399571
     37          6           0        5.914316   -3.656832    0.326211
     38          6           0        5.470669   -2.341029    0.288846
     39          6           0        8.276148   -4.780452    0.614558
     40          6           0        4.789385   -4.581382    0.368682
     41          8           0        4.741488   -5.854335    0.341937
     42          6           0        3.543487   -3.667840    0.201740
     43          6           0        2.776852   -3.982714   -1.035217
     44          8           0        3.077078   -3.539949   -2.183796
     45          8           0        1.581709   -4.613760   -0.730395
     46          6           0        0.438827   -4.409543   -1.733688
     47          6           0       -3.715398   -2.664556    0.667940
     48          6           0       -4.772827   -2.035596   -0.117336
     49          6           0       -6.006227   -2.562198   -0.374721
     50          6           0       -6.277820   -3.964122    0.046454
     51          6           0       -7.044094   -1.992296   -1.326681
     52          6           0       -7.379375   -0.562573   -0.995240
     53          6           0       -8.739154   -0.406649   -0.406076
     54          6           0       -9.725088    0.305128   -1.310041
     55          6           0       -9.454140    1.799856   -1.669630
     56          6           0      -11.167866    0.117630   -0.706207
     57          6           0      -12.097826   -0.215703   -1.864367
     58          6           0      -13.273744    0.758973   -1.994506
     59          6           0      -14.544986    0.349939   -1.170540
     60          6           0      -15.603084   -0.303325   -2.035822
     61          6           0      -15.151070    1.513873   -0.398355
     62          6           0      -15.013053    1.363864    1.173516
     63          6           0      -14.313693    2.598581    1.812751
     64          6           0      -13.360013    2.324353    2.991721
     65          6           0      -12.283926    3.494220    3.116462
     66          6           0      -14.065654    2.055867    4.347878
     67          1           0        2.465926    3.209502   -0.456715
     68          1           0        8.987015    3.989641   -0.226398
     69          1           0        9.734866   -2.328609    0.510896
     70          1           0        1.542233   -1.575744   -1.078033
     71          1           0        1.021802    1.127361    0.050840
     72          1           0        0.951709   -0.176848   -2.522342
     73          1           0        1.887187    1.310035   -2.816882
     74          1           0        0.231267    1.410171   -2.312239
     75          1           0        1.635505   -1.017576    1.836470
     76          1           0        0.922870   -2.511546    0.842051
     77          1           0       -0.737239   -0.387563    0.244901
     78          1           0       -0.412552   -0.135394    1.796288
     79          1           0        3.723150    6.318484   -0.014824
     80          1           0        2.827146    5.196444   -1.029718
     81          1           0        3.934686    6.154171   -1.831349
     82          1           0        6.103343    7.292128   -2.027210
     83          1           0        7.147101    8.153849   -0.907799
     84          1           0        5.516575    7.568797   -0.411489
     85          1           0       10.560339    2.222911    1.293995
     86          1           0       11.218402   -0.030367   -0.526217
     87          1           0       10.878159    3.225913   -1.424568
     88          1           0       12.055357    1.943661   -1.091704
     89          1           0       11.928923    3.254603    0.076265
     90          1           0       12.195660    0.530910    1.839513
     91          1           0       11.958335   -1.141188    1.360453
     92          1           0        9.589133   -0.605196    2.871451
     93          1           0       10.758602    0.482938    3.632390
     94          1           0       11.175737   -1.175897    3.423967
     95          1           0        8.955694   -4.549812    1.434919
     96          1           0        8.802621   -4.884183   -0.333928
     97          1           0        7.644959   -5.643382    0.825386
     98          1           0        2.799872   -3.884560    0.968912
     99          1           0       -0.457853   -4.006264   -1.264720
    100          1           0        0.230107   -5.429186   -2.060806
    101          1           0        0.627344   -3.937460   -2.698312
    102          1           0       -3.871740   -2.552081    1.740950
    103          1           0       -3.543774   -3.690947    0.343490
    104          1           0       -4.417478   -1.114041   -0.579359
    105          1           0       -7.154179   -3.931585    0.693833
    106          1           0       -5.435924   -4.457386    0.532329
    107          1           0       -6.515424   -4.612328   -0.797748
    108          1           0       -8.010212   -2.490304   -1.410205
    109          1           0       -6.590721   -2.063259   -2.314560
    110          1           0       -7.407703   -0.034625   -1.948597
    111          1           0       -6.619858   -0.097349   -0.366996
    112          1           0       -8.641463    0.370045    0.353054
    113          1           0       -9.006467   -1.333838    0.102021
    114          1           0       -9.642743   -0.235062   -2.252727
    115          1           0       -8.551132    2.220471   -1.228013
    116          1           0      -10.271411    2.396049   -1.263906
    117          1           0       -9.353057    2.024022   -2.731994
    118          1           0      -11.613125    0.949500   -0.159141
    119          1           0      -11.179341   -0.754224   -0.052176
    120          1           0      -12.550410   -1.184805   -1.658488
    121          1           0      -11.641888   -0.367434   -2.843084
    122          1           0      -13.449287    0.866165   -3.065856
    123          1           0      -12.874920    1.697238   -1.610449
    124          1           0      -14.333598   -0.427013   -0.435694
    125          1           0      -15.832647   -1.262101   -1.569750
    126          1           0      -15.237710   -0.587494   -3.022878
    127          1           0      -16.440780    0.377508   -2.183484
    128          1           0      -16.223522    1.587325   -0.582674
    129          1           0      -14.831935    2.535775   -0.602937
    130          1           0      -14.438781    0.495288    1.497332
    131          1           0      -15.959892    1.364384    1.712169
    132          1           0      -15.042682    3.284314    2.244181
    133          1           0      -13.817340    3.245862    1.089092
    134          1           0      -12.736432    1.454181    2.789431
    135          1           0      -12.807128    4.415063    2.857747
    136          1           0      -11.508082    3.346011    2.364323
    137          1           0      -11.856848    3.522088    4.118981
    138          1           0      -13.764211    2.806758    5.077470
    139          1           0      -13.768482    1.047745    4.638390
    140          1           0      -15.148644    2.162072    4.298063
 ---------------------------------------------------------------------

 SCF Done:  E(RCAM-B3LYP) =  -3007.14632882     A.U. after   17 cycles

 Excitation energies and oscillator strengths:

 Excited State   1:      Singlet-A      1.7507 eV  708.18 nm  f=0.3744  <S**2>=0.000
     245 -> 248       -0.15672
     246 -> 247        0.68768
 This state for optimization and/or second-order correction.
 Total Energy, E(TD-HF/TD-DFT) =  -3007.08199042
 Copying the excited state density for this state as the 1-particle RhoCI density.

 Excited State   2:      Singlet-A      2.2843 eV  542.77 nm  f=0.1338  <S**2>=0.000
     245 -> 247        0.64614
     246 -> 248        0.25828

 Excited State   3:      Singlet-A      3.2964 eV  376.12 nm  f=0.0085  <S**2>=0.000
     241 -> 247       -0.10771
     243 -> 247       -0.19107
     244 -> 247        0.65400

 Excited State   4:      Singlet-A      3.4106 eV  363.52 nm  f=0.0087  <S**2>=0.000
     239 -> 247        0.51022
     239 -> 248       -0.22472
     239 -> 249        0.37025

 Excited State   5:      Singlet-A      3.5534 eV  348.92 nm  f=0.4903  <S**2>=0.000
     241 -> 247       -0.22737
     243 -> 247       -0.12219
     245 -> 247       -0.22585
     246 -> 248        0.58514

 The electronic state is 1-A.
 Alpha  occ. eigenvalues --  -46.88388 -19.26540 -19.25193 -19.20489 -19.20434
 Alpha  occ. eigenvalues --  -19.20390 -19.16578 -14.42849 -14.41378 -14.40249
 Alpha  occ. eigenvalues --  -14.39154 -10.40661 -10.40330 -10.36794 -10.33237
 Alpha  occ. eigenvalues --  -10.32594 -10.32345 -10.31571 -10.31170 -10.31110
 Alpha  occ. eigenvalues --  -10.30523 -10.29948 -10.29836 -10.29744 -10.29536
 Alpha  occ. eigenvalues --  -10.29462 -10.29237 -10.29068 -10.29023 -10.29012
 Alpha  occ. eigenvalues --  -10.28600 -10.28594 -10.27596 -10.27521 -10.27474
 Alpha  occ. eigenvalues --  -10.27281 -10.27096 -10.27027 -10.27022 -10.26540
 Alpha  occ. eigenvalues --  -10.26490 -10.26465 -10.26452 -10.26106 -10.25814
 Alpha  occ. eigenvalues --  -10.25755 -10.25732 -10.25596 -10.25555 -10.25479
 Alpha  occ. eigenvalues --  -10.25476 -10.25369 -10.25263 -10.25175 -10.24955
 Alpha  occ. eigenvalues --  -10.24754 -10.24704 -10.24582 -10.24468 -10.24429
 Alpha  occ. eigenvalues --  -10.24358 -10.24288 -10.24209 -10.24099 -10.24062
 Alpha  occ. eigenvalues --  -10.23952  -3.16966  -1.91872  -1.91428  -1.91264
 Alpha  occ. eigenvalues --   -1.18474  -1.15188  -1.10147  -1.09452  -1.08406
 Alpha  occ. eigenvalues --   -1.06415  -1.05712  -1.03580  -1.02667  -1.00387
 Alpha  occ. eigenvalues --   -0.94039  -0.91596  -0.90217  -0.89786  -0.88982
 Alpha  occ. eigenvalues --   -0.88969  -0.88372  -0.87901  -0.87559  -0.86731
 Alpha  occ. eigenvalues --   -0.86090  -0.85576  -0.84769  -0.84234  -0.83323
 Alpha  occ. eigenvalues --   -0.82530  -0.81876  -0.81293  -0.81045  -0.80400
 Alpha  occ. eigenvalues --   -0.79904  -0.78687  -0.78136  -0.77668  -0.76839
 Alpha  occ. eigenvalues --   -0.76213  -0.75418  -0.75211  -0.74811  -0.74224
 Alpha  occ. eigenvalues --   -0.73767  -0.72957  -0.72152  -0.70847  -0.70368
 Alpha  occ. eigenvalues --   -0.69694  -0.68625  -0.67093  -0.66635  -0.65647
 Alpha  occ. eigenvalues --   -0.65189  -0.64860  -0.64811  -0.64417  -0.64023
 Alpha  occ. eigenvalues --   -0.63800  -0.63677  -0.62665  -0.62426  -0.61101
 Alpha  occ. eigenvalues --   -0.60039  -0.59727  -0.59267  -0.58989  -0.58664
 Alpha  occ. eigenvalues --   -0.58048  -0.57681  -0.57273  -0.56250  -0.56056
 Alpha  occ. eigenvalues --   -0.55205  -0.55072  -0.54778  -0.54329  -0.54300
 Alpha  occ. eigenvalues --   -0.54156  -0.53989  -0.53717  -0.53442  -0.53293
 Alpha  occ. eigenvalues --   -0.52477  -0.52327  -0.52117  -0.51941  -0.51845
 Alpha  occ. eigenvalues --   -0.51777  -0.51546  -0.51173  -0.50956  -0.50655
 Alpha  occ. eigenvalues --   -0.50378  -0.50018  -0.49876  -0.49814  -0.49717
 Alpha  occ. eigenvalues --   -0.49494  -0.49211  -0.49091  -0.49001  -0.48840
 Alpha  occ. eigenvalues --   -0.48617  -0.48422  -0.48128  -0.47846  -0.47787
 Alpha  occ. eigenvalues --   -0.47516  -0.47386  -0.47200  -0.47053  -0.46822
 Alpha  occ. eigenvalues --   -0.46687  -0.46598  -0.46278  -0.46234  -0.46136
 Alpha  occ. eigenvalues --   -0.45915  -0.45850  -0.45504  -0.45111  -0.44934
 Alpha  occ. eigenvalues --   -0.44780  -0.44643  -0.44465  -0.44321  -0.44176
 Alpha  occ. eigenvalues --   -0.43450  -0.43418  -0.43373  -0.43177  -0.43050
 Alpha  occ. eigenvalues --   -0.42775  -0.42684  -0.42493  -0.42376  -0.42285
 Alpha  occ. eigenvalues --   -0.41912  -0.41779  -0.41414  -0.41369  -0.41165
 Alpha  occ. eigenvalues --   -0.41123  -0.41013  -0.40882  -0.40673  -0.40323
 Alpha  occ. eigenvalues --   -0.40040  -0.39888  -0.39516  -0.39308  -0.38984
 Alpha  occ. eigenvalues --   -0.38678  -0.37941  -0.37789  -0.37699  -0.37261
 Alpha  occ. eigenvalues --   -0.37234  -0.37125  -0.36994  -0.36818  -0.36781
 Alpha  occ. eigenvalues --   -0.36597  -0.36067  -0.35134  -0.34797  -0.34558
 Alpha  occ. eigenvalues --   -0.34352  -0.33637  -0.33497  -0.32276  -0.31418
 Alpha  occ. eigenvalues --   -0.31035  -0.29328  -0.29080  -0.28655  -0.24330
 Alpha  occ. eigenvalues --   -0.21448
 Alpha virt. eigenvalues --   -0.08842  -0.01736  -0.00589   0.02322   0.02734
 Alpha virt. eigenvalues --    0.03051   0.03412   0.04792   0.05513   0.06796
 Alpha virt. eigenvalues --    0.07660   0.07690   0.08096   0.08269   0.09087

 Mulliken charges:
               1
     1  Mg   0.831940
     2  C   -0.020302
     3  C   -0.074744
     4  C   -0.056822
     5  C   -0.102307
     6  N   -0.261814
     7  C   -0.013138
     8  C   -0.074823
     9  C   -0.024712
    10  C   -0.021284
    11  C    0.084640
    12  C    0.097192
    13  C    0.014778
    14  C    0.156986
    15  O   -0.216429
    16  O   -0.321147
    17  N   -0.415944
    18  C    0.165734
    19  C   -0.158905
    20  C   -0.020179
    21  C    0.126318
    22  C    0.117390
    23  C   -0.040478
    24  O   -0.197440
    25  C    0.068763
    26  N   -0.312918
    27  C    0.032302
    28  C   -0.048969
    29  C    0.030646
    30  C    0.072203
    31  C    0.077446
    32  C    0.003839
    33  C   -0.014788
    34  N   -0.346308
    35  C    0.111501
    36  C   -0.209679
    37  C    0.011678
    38  C    0.153346
    39  C    0.127103
    40  C    0.113181
    41  O   -0.206606
    42  C   -0.026050
    43  C    0.224416
    44  O   -0.254747
    45  O   -0.351670
    46  C    0.159580
    47  C    0.294612
    48  C   -0.158311
    49  C   -0.155240
    50  C    0.067531
    51  C    0.101742
    52  C    0.028479
    53  C    0.046963
    54  C   -0.136277
    55  C    0.055245
    56  C    0.075509
    57  C   -0.009430
    58  C    0.063023
    59  C   -0.113970
    60  C    0.063824
    61  C    0.063508
    62  C    0.024867
    63  C    0.005288
    64  C   -0.177900
    65  C    0.026081
    66  C    0.054381
    67  H   -0.012735
    68  H   -0.009888
    69  H   -0.029857
    70  H    0.010155
    71  H    0.008520
    72  H    0.011507
    73  H    0.032197
    74  H    0.016630
    75  H    0.020014
    76  H    0.038682
    77  H    0.011179
    78  H    0.037706
    79  H    0.043671
    80  H   -0.009848
    81  H    0.024021
    82  H    0.015187
    83  H    0.022756
    84  H    0.014561
    85  H    0.018649
    86  H    0.013814
    87  H    0.044902
    88  H   -0.001633
    89  H    0.018160
    90  H    0.008234
    91  H    0.012414
    92  H    0.037968
    93  H    0.018120
    94  H    0.009663
    95  H    0.033226
    96  H    0.037342
    97  H    0.043122
    98  H    0.052590
    99  H    0.047454
   100  H    0.043979
   101  H    0.061421
   102  H    0.028933
   103  H    0.024852
   104  H    0.001882
   105  H    0.019655
   106  H    0.008054
   107  H    0.021268
   108  H   -0.006629
   109  H    0.011805
   110  H   -0.019941
   111  H    0.000815
   112  H   -0.022197
   113  H   -0.000538
   114  H   -0.008850
   115  H    0.002745
   116  H    0.008080
   117  H    0.013774
   118  H    0.009284
   119  H   -0.012712
   120  H   -0.018501
   121  H   -0.006200
   122  H   -0.008341
   123  H   -0.014329
   124  H   -0.001832
   125  H    0.004277
   126  H   -0.006817
   127  H    0.012934
   128  H   -0.015469
   129  H   -0.001821
   130  H    0.001261
   131  H    0.000297
   132  H   -0.013054
   133  H   -0.011639
   134  H   -0.004458
   135  H    0.006559
   136  H    0.009437
   137  H    0.012203
   138  H    0.002744
   139  H    0.016299
   140  H    0.003584
 Sum of Mulliken charges =  -0.00000

 Dipole moment (field-independent basis, Debye):
    X=             -3.4535    Y=              1.1607    Z=             -0.6216  Tot=              3.6960
 Quadrupole moment (field-independent basis, Debye-Ang):
   XX=           -373.1605   YY=           -442.9568   ZZ=           -410.3950
   XY=            -12.9174   XZ=             19.8556   YZ=              3.1764

 Normal termination of Gaussian 16 at Thu May  5 03:54:56 2022.
