 Gaussian 16, Revision A.03,
 Gaussian 16:  ES64L-G16RevA.03 25-Dec-2016

 ---------------------------------
 #p PBE1PBE/Def2SVP td=(nstates=5)
 ---------------------------------

 -----------------------------------------------------
 step_601_chromophore_16 TDDFT with PBE1PBE functional
 -----------------------------------------------------
 Symbolic Z-matrix:
 Charge =  0 Multiplicity = 1

                         Standard orientation:
 ---------------------------------------------------------------------
 Center     Atomic      Atomic             Coordinates (Angstroms)
 Number     Number       Type             X           Y           Z
 ---------------------------------------------------------------------
      1         12           0        6.223650    0.549600    0.150145
      2          6           0        4.104596   -2.213885    0.186997
      3          6           0        3.346891    2.570543   -0.533326
      4          6           0        8.303717    3.151833   -0.074431
      5          6           0        8.945650   -1.582296    0.402016
      6          7           0        3.958809    0.206301   -0.211530
      7          6           0        3.372019   -1.033034   -0.149166
      8          6           0        1.831751   -0.912608   -0.263547
      9          6           0        1.625101    0.625540   -0.705771
     10          6           0        3.032154    1.212297   -0.469652
     11          6           0        1.146872    0.836476   -2.172481
     12          6           0        1.092755   -1.445134    0.994222
     13          6           0       -0.407214   -0.975174    1.101928
     14          6           0       -1.508140   -2.021756    1.313910
     15          8           0       -1.531000   -2.816328    2.227925
     16          8           0       -2.567603   -1.934288    0.439891
     17          7           0        5.895558    2.553277   -0.236927
     18          6           0        4.620842    3.194688   -0.493314
     19          6           0        4.879167    4.581281   -0.657044
     20          6           0        6.311863    4.783680   -0.496954
     21          6           0        6.892364    3.481805   -0.231819
     22          6           0        3.804784    5.652134   -0.873129
     23          6           0        7.035333    6.088179   -0.574849
     24          8           0        8.169954    6.272226   -0.244687
     25          6           0        6.416893    7.348309   -0.984645
     26          7           0        8.319811    0.729458    0.011391
     27          6           0        8.966133    1.967931    0.020592
     28          6           0       10.443790    1.787338    0.301963
     29          6           0       10.641527    0.268432    0.348330
     30          6           0        9.210566   -0.224528    0.306488
     31          6           0       11.364900    2.652132   -0.635209
     32          6           0       11.437950   -0.214357    1.600339
     33          6           0       10.646755   -0.352631    2.942248
     34          7           0        6.526277   -1.459014    0.332526
     35          6           0        7.647273   -2.152418    0.307977
     36          6           0        7.294229   -3.606351    0.399571
     37          6           0        5.914316   -3.656832    0.326211
     38          6           0        5.470669   -2.341029    0.288846
     39          6           0        8.276148   -4.780452    0.614558
     40          6           0        4.789385   -4.581382    0.368682
     41          8           0        4.741488   -5.854335    0.341937
     42          6           0        3.543487   -3.667840    0.201740
     43          6           0        2.776852   -3.982714   -1.035217
     44          8           0        3.077078   -3.539949   -2.183796
     45          8           0        1.581709   -4.613760   -0.730395
     46          6           0        0.438827   -4.409543   -1.733688
     47          6           0       -3.715398   -2.664556    0.667940
     48          6           0       -4.772827   -2.035596   -0.117336
     49          6           0       -6.006227   -2.562198   -0.374721
     50          6           0       -6.277820   -3.964122    0.046454
     51          6           0       -7.044094   -1.992296   -1.326681
     52          6           0       -7.379375   -0.562573   -0.995240
     53          6           0       -8.739154   -0.406649   -0.406076
     54          6           0       -9.725088    0.305128   -1.310041
     55          6           0       -9.454140    1.799856   -1.669630
     56          6           0      -11.167866    0.117630   -0.706207
     57          6           0      -12.097826   -0.215703   -1.864367
     58          6           0      -13.273744    0.758973   -1.994506
     59          6           0      -14.544986    0.349939   -1.170540
     60          6           0      -15.603084   -0.303325   -2.035822
     61          6           0      -15.151070    1.513873   -0.398355
     62          6           0      -15.013053    1.363864    1.173516
     63          6           0      -14.313693    2.598581    1.812751
     64          6           0      -13.360013    2.324353    2.991721
     65          6           0      -12.283926    3.494220    3.116462
     66          6           0      -14.065654    2.055867    4.347878
     67          1           0        2.465926    3.209502   -0.456715
     68          1           0        8.987015    3.989641   -0.226398
     69          1           0        9.734866   -2.328609    0.510896
     70          1           0        1.542233   -1.575744   -1.078033
     71          1           0        1.021802    1.127361    0.050840
     72          1           0        0.951709   -0.176848   -2.522342
     73          1           0        1.887187    1.310035   -2.816882
     74          1           0        0.231267    1.410171   -2.312239
     75          1           0        1.635505   -1.017576    1.836470
     76          1           0        0.922870   -2.511546    0.842051
     77          1           0       -0.737239   -0.387563    0.244901
     78          1           0       -0.412552   -0.135394    1.796288
     79          1           0        3.723150    6.318484   -0.014824
     80          1           0        2.827146    5.196444   -1.029718
     81          1           0        3.934686    6.154171   -1.831349
     82          1           0        6.103343    7.292128   -2.027210
     83          1           0        7.147101    8.153849   -0.907799
     84          1           0        5.516575    7.568797   -0.411489
     85          1           0       10.560339    2.222911    1.293995
     86          1           0       11.218402   -0.030367   -0.526217
     87          1           0       10.878159    3.225913   -1.424568
     88          1           0       12.055357    1.943661   -1.091704
     89          1           0       11.928923    3.254603    0.076265
     90          1           0       12.195660    0.530910    1.839513
     91          1           0       11.958335   -1.141188    1.360453
     92          1           0        9.589133   -0.605196    2.871451
     93          1           0       10.758602    0.482938    3.632390
     94          1           0       11.175737   -1.175897    3.423967
     95          1           0        8.955694   -4.549812    1.434919
     96          1           0        8.802621   -4.884183   -0.333928
     97          1           0        7.644959   -5.643382    0.825386
     98          1           0        2.799872   -3.884560    0.968912
     99          1           0       -0.457853   -4.006264   -1.264720
    100          1           0        0.230107   -5.429186   -2.060806
    101          1           0        0.627344   -3.937460   -2.698312
    102          1           0       -3.871740   -2.552081    1.740950
    103          1           0       -3.543774   -3.690947    0.343490
    104          1           0       -4.417478   -1.114041   -0.579359
    105          1           0       -7.154179   -3.931585    0.693833
    106          1           0       -5.435924   -4.457386    0.532329
    107          1           0       -6.515424   -4.612328   -0.797748
    108          1           0       -8.010212   -2.490304   -1.410205
    109          1           0       -6.590721   -2.063259   -2.314560
    110          1           0       -7.407703   -0.034625   -1.948597
    111          1           0       -6.619858   -0.097349   -0.366996
    112          1           0       -8.641463    0.370045    0.353054
    113          1           0       -9.006467   -1.333838    0.102021
    114          1           0       -9.642743   -0.235062   -2.252727
    115          1           0       -8.551132    2.220471   -1.228013
    116          1           0      -10.271411    2.396049   -1.263906
    117          1           0       -9.353057    2.024022   -2.731994
    118          1           0      -11.613125    0.949500   -0.159141
    119          1           0      -11.179341   -0.754224   -0.052176
    120          1           0      -12.550410   -1.184805   -1.658488
    121          1           0      -11.641888   -0.367434   -2.843084
    122          1           0      -13.449287    0.866165   -3.065856
    123          1           0      -12.874920    1.697238   -1.610449
    124          1           0      -14.333598   -0.427013   -0.435694
    125          1           0      -15.832647   -1.262101   -1.569750
    126          1           0      -15.237710   -0.587494   -3.022878
    127          1           0      -16.440780    0.377508   -2.183484
    128          1           0      -16.223522    1.587325   -0.582674
    129          1           0      -14.831935    2.535775   -0.602937
    130          1           0      -14.438781    0.495288    1.497332
    131          1           0      -15.959892    1.364384    1.712169
    132          1           0      -15.042682    3.284314    2.244181
    133          1           0      -13.817340    3.245862    1.089092
    134          1           0      -12.736432    1.454181    2.789431
    135          1           0      -12.807128    4.415063    2.857747
    136          1           0      -11.508082    3.346011    2.364323
    137          1           0      -11.856848    3.522088    4.118981
    138          1           0      -13.764211    2.806758    5.077470
    139          1           0      -13.768482    1.047745    4.638390
    140          1           0      -15.148644    2.162072    4.298063
 ---------------------------------------------------------------------

 SCF Done:  E(RPBE1PBE) =  -3005.33338960     A.U. after   16 cycles

 Excitation energies and oscillator strengths:

 Excited State   1:      Singlet-A      1.8557 eV  668.13 nm  f=0.3634  <S**2>=0.000
     245 -> 248       -0.14116
     246 -> 247        0.69453
     246 <- 247       -0.10695
 This state for optimization and/or second-order correction.
 Total Energy, E(TD-HF/TD-DFT) =  -3005.26519477
 Copying the excited state density for this state as the 1-particle RhoCI density.

 Excited State   2:      Singlet-A      2.2499 eV  551.07 nm  f=0.1205  <S**2>=0.000
     245 -> 247        0.65580
     246 -> 248        0.21629
     246 -> 249        0.13053

 Excited State   3:      Singlet-A      2.7285 eV  454.40 nm  f=0.0013  <S**2>=0.000
     244 -> 247        0.69194

 Excited State   4:      Singlet-A      2.8911 eV  428.85 nm  f=0.0075  <S**2>=0.000
     242 -> 247        0.69655

 Excited State   5:      Singlet-A      3.0915 eV  401.04 nm  f=0.0009  <S**2>=0.000
     239 -> 247        0.14210
     240 -> 247        0.61001
     240 -> 248       -0.18441
     240 -> 249        0.19082
     241 -> 247        0.13741

 The electronic state is 1-A.
 Alpha  occ. eigenvalues --  -46.91796 -19.27041 -19.25866 -19.20606 -19.20508
 Alpha  occ. eigenvalues --  -19.20349 -19.17158 -14.42209 -14.41046 -14.39691
 Alpha  occ. eigenvalues --  -14.39082 -10.37514 -10.37333 -10.33609 -10.30365
 Alpha  occ. eigenvalues --  -10.30041 -10.29823 -10.28935 -10.28607 -10.28585
 Alpha  occ. eigenvalues --  -10.28319 -10.27882 -10.27710 -10.27342 -10.27240
 Alpha  occ. eigenvalues --  -10.26901 -10.26898 -10.26786 -10.26739 -10.26681
 Alpha  occ. eigenvalues --  -10.26119 -10.26069 -10.25609 -10.25294 -10.25251
 Alpha  occ. eigenvalues --  -10.25010 -10.24925 -10.24632 -10.24246 -10.24163
 Alpha  occ. eigenvalues --  -10.24145 -10.23990 -10.23824 -10.23738 -10.23706
 Alpha  occ. eigenvalues --  -10.23362 -10.23350 -10.23279 -10.23236 -10.23105
 Alpha  occ. eigenvalues --  -10.23062 -10.23018 -10.22955 -10.22574 -10.22512
 Alpha  occ. eigenvalues --  -10.22327 -10.22290 -10.22032 -10.21998 -10.21992
 Alpha  occ. eigenvalues --  -10.21813 -10.21746 -10.21738 -10.21635 -10.21485
 Alpha  occ. eigenvalues --  -10.21447  -3.13954  -1.86800  -1.86334  -1.86175
 Alpha  occ. eigenvalues --   -1.13297  -1.09757  -1.05253  -1.04284  -1.02744
 Alpha  occ. eigenvalues --   -1.01019  -1.00100  -0.98219  -0.97186  -0.95374
 Alpha  occ. eigenvalues --   -0.88145  -0.85725  -0.84335  -0.83902  -0.83275
 Alpha  occ. eigenvalues --   -0.83097  -0.82796  -0.82154  -0.81665  -0.80915
 Alpha  occ. eigenvalues --   -0.80350  -0.79965  -0.79047  -0.78410  -0.77623
 Alpha  occ. eigenvalues --   -0.76787  -0.76073  -0.75546  -0.75385  -0.74571
 Alpha  occ. eigenvalues --   -0.74253  -0.72813  -0.72417  -0.72050  -0.71175
 Alpha  occ. eigenvalues --   -0.70349  -0.69839  -0.69295  -0.68968  -0.68391
 Alpha  occ. eigenvalues --   -0.68087  -0.67289  -0.66570  -0.65211  -0.64670
 Alpha  occ. eigenvalues --   -0.64060  -0.62843  -0.61375  -0.61110  -0.60099
 Alpha  occ. eigenvalues --   -0.59398  -0.59363  -0.59288  -0.58969  -0.58567
 Alpha  occ. eigenvalues --   -0.57972  -0.57836  -0.57111  -0.56614  -0.55483
 Alpha  occ. eigenvalues --   -0.54472  -0.54264  -0.53665  -0.53623  -0.53235
 Alpha  occ. eigenvalues --   -0.52390  -0.52088  -0.51794  -0.50786  -0.50521
 Alpha  occ. eigenvalues --   -0.49697  -0.49530  -0.49368  -0.48817  -0.48800
 Alpha  occ. eigenvalues --   -0.48742  -0.48516  -0.48094  -0.47894  -0.47772
 Alpha  occ. eigenvalues --   -0.47029  -0.46879  -0.46711  -0.46439  -0.46353
 Alpha  occ. eigenvalues --   -0.46285  -0.46074  -0.45798  -0.45467  -0.45288
 Alpha  occ. eigenvalues --   -0.44904  -0.44483  -0.44420  -0.44330  -0.44204
 Alpha  occ. eigenvalues --   -0.44029  -0.43935  -0.43729  -0.43632  -0.43453
 Alpha  occ. eigenvalues --   -0.43325  -0.43105  -0.42739  -0.42624  -0.42327
 Alpha  occ. eigenvalues --   -0.42213  -0.42036  -0.41844  -0.41639  -0.41440
 Alpha  occ. eigenvalues --   -0.41348  -0.41224  -0.41041  -0.40927  -0.40781
 Alpha  occ. eigenvalues --   -0.40565  -0.40547  -0.40360  -0.39879  -0.39536
 Alpha  occ. eigenvalues --   -0.39443  -0.39335  -0.39285  -0.39146  -0.38766
 Alpha  occ. eigenvalues --   -0.38155  -0.38132  -0.38045  -0.37912  -0.37827
 Alpha  occ. eigenvalues --   -0.37689  -0.37564  -0.37261  -0.37147  -0.37082
 Alpha  occ. eigenvalues --   -0.36699  -0.36657  -0.36271  -0.36144  -0.36021
 Alpha  occ. eigenvalues --   -0.35957  -0.35842  -0.35661  -0.35586  -0.35271
 Alpha  occ. eigenvalues --   -0.34858  -0.34794  -0.34454  -0.34116  -0.33926
 Alpha  occ. eigenvalues --   -0.33420  -0.32835  -0.32795  -0.32574  -0.32242
 Alpha  occ. eigenvalues --   -0.32075  -0.32013  -0.31832  -0.31802  -0.31681
 Alpha  occ. eigenvalues --   -0.31406  -0.30878  -0.30077  -0.29846  -0.29379
 Alpha  occ. eigenvalues --   -0.29244  -0.28976  -0.28398  -0.27087  -0.26711
 Alpha  occ. eigenvalues --   -0.26469  -0.24740  -0.24616  -0.24028  -0.21201
 Alpha  occ. eigenvalues --   -0.19003
 Alpha virt. eigenvalues --   -0.11378  -0.05381  -0.04591  -0.02060  -0.01598
 Alpha virt. eigenvalues --   -0.01025   0.00077   0.00423   0.01193   0.03149
 Alpha virt. eigenvalues --    0.03705   0.04482   0.04489   0.04716   0.05587

 Mulliken charges:
               1
     1  Mg   0.981293
     2  C   -0.018997
     3  C   -0.073596
     4  C   -0.048562
     5  C   -0.081759
     6  N   -0.363673
     7  C    0.063388
     8  C   -0.141510
     9  C   -0.109198
    10  C    0.024484
    11  C    0.029506
    12  C    0.029919
    13  C   -0.049973
    14  C    0.221274
    15  O   -0.249074
    16  O   -0.358844
    17  N   -0.531806
    18  C    0.191860
    19  C   -0.181545
    20  C   -0.082716
    21  C    0.171481
    22  C    0.057766
    23  C    0.015416
    24  O   -0.232440
    25  C   -0.007663
    26  N   -0.417532
    27  C    0.067001
    28  C   -0.122507
    29  C   -0.041603
    30  C    0.098876
    31  C    0.017279
    32  C   -0.059313
    33  C   -0.084178
    34  N   -0.475804
    35  C    0.133215
    36  C   -0.224996
    37  C   -0.034300
    38  C    0.184808
    39  C    0.067873
    40  C    0.200847
    41  O   -0.253236
    42  C   -0.134555
    43  C    0.312717
    44  O   -0.286587
    45  O   -0.382360
    46  C    0.102086
    47  C    0.257592
    48  C   -0.163718
    49  C   -0.204455
    50  C    0.002475
    51  C    0.041963
    52  C   -0.034879
    53  C   -0.011342
    54  C   -0.224154
    55  C    0.000221
    56  C    0.015865
    57  C   -0.066492
    58  C    0.003266
    59  C   -0.203211
    60  C    0.007836
    61  C    0.011800
    62  C   -0.036891
    63  C   -0.048801
    64  C   -0.267018
    65  C   -0.038826
    66  C   -0.004914
    67  H    0.017692
    68  H    0.022921
    69  H    0.003019
    70  H    0.053630
    71  H    0.046248
    72  H    0.040209
    73  H    0.058964
    74  H    0.043562
    75  H    0.052834
    76  H    0.076913
    77  H    0.043717
    78  H    0.068327
    79  H    0.071683
    80  H    0.020196
    81  H    0.053203
    82  H    0.043893
    83  H    0.051789
    84  H    0.042473
    85  H    0.057390
    86  H    0.049846
    87  H    0.070229
    88  H    0.028094
    89  H    0.045649
    90  H    0.041629
    91  H    0.043477
    92  H    0.067212
    93  H    0.044571
    94  H    0.038211
    95  H    0.057924
    96  H    0.064072
    97  H    0.070250
    98  H    0.087390
    99  H    0.069673
   100  H    0.065852
   101  H    0.080598
   102  H    0.056578
   103  H    0.050767
   104  H    0.031571
   105  H    0.048827
   106  H    0.034469
   107  H    0.049031
   108  H    0.024464
   109  H    0.045632
   110  H    0.014440
   111  H    0.033291
   112  H    0.014492
   113  H    0.030669
   114  H    0.030347
   115  H    0.029473
   116  H    0.034926
   117  H    0.040360
   118  H    0.043456
   119  H    0.020564
   120  H    0.016092
   121  H    0.024675
   122  H    0.023800
   123  H    0.020372
   124  H    0.035679
   125  H    0.031694
   126  H    0.020918
   127  H    0.039085
   128  H    0.017642
   129  H    0.028899
   130  H    0.032567
   131  H    0.032974
   132  H    0.020789
   133  H    0.019645
   134  H    0.033865
   135  H    0.034672
   136  H    0.037734
   137  H    0.039655
   138  H    0.029827
   139  H    0.043102
   140  H    0.030533
 Sum of Mulliken charges =  -0.00000

 Dipole moment (field-independent basis, Debye):
    X=             -3.3509    Y=              2.0855    Z=             -0.7119  Tot=              4.0106
 Quadrupole moment (field-independent basis, Debye-Ang):
   XX=           -366.3069   YY=           -439.2011   ZZ=           -408.0243
   XY=             -7.5288   XZ=             19.9189   YZ=              2.8905

 Normal termination of Gaussian 16 at Thu May  5 04:14:50 2022.
