 Gaussian 16, Revision A.03,
 Gaussian 16:  ES64L-G16RevA.03 25-Dec-2016

 --------------------------------
 #p wB97XD/Def2SVP td=(nstates=5)
 --------------------------------

 ----------------------------------------------------
 step_601_chromophore_16 TDDFT with wB97XD functional
 ----------------------------------------------------
 Symbolic Z-matrix:
 Charge =  0 Multiplicity = 1

                         Standard orientation:
 ---------------------------------------------------------------------
 Center     Atomic      Atomic             Coordinates (Angstroms)
 Number     Number       Type             X           Y           Z
 ---------------------------------------------------------------------
      1         12           0        6.223650    0.549600    0.150145
      2          6           0        4.104596   -2.213885    0.186997
      3          6           0        3.346891    2.570543   -0.533326
      4          6           0        8.303717    3.151833   -0.074431
      5          6           0        8.945650   -1.582296    0.402016
      6          7           0        3.958809    0.206301   -0.211530
      7          6           0        3.372019   -1.033034   -0.149166
      8          6           0        1.831751   -0.912608   -0.263547
      9          6           0        1.625101    0.625540   -0.705771
     10          6           0        3.032154    1.212297   -0.469652
     11          6           0        1.146872    0.836476   -2.172481
     12          6           0        1.092755   -1.445134    0.994222
     13          6           0       -0.407214   -0.975174    1.101928
     14          6           0       -1.508140   -2.021756    1.313910
     15          8           0       -1.531000   -2.816328    2.227925
     16          8           0       -2.567603   -1.934288    0.439891
     17          7           0        5.895558    2.553277   -0.236927
     18          6           0        4.620842    3.194688   -0.493314
     19          6           0        4.879167    4.581281   -0.657044
     20          6           0        6.311863    4.783680   -0.496954
     21          6           0        6.892364    3.481805   -0.231819
     22          6           0        3.804784    5.652134   -0.873129
     23          6           0        7.035333    6.088179   -0.574849
     24          8           0        8.169954    6.272226   -0.244687
     25          6           0        6.416893    7.348309   -0.984645
     26          7           0        8.319811    0.729458    0.011391
     27          6           0        8.966133    1.967931    0.020592
     28          6           0       10.443790    1.787338    0.301963
     29          6           0       10.641527    0.268432    0.348330
     30          6           0        9.210566   -0.224528    0.306488
     31          6           0       11.364900    2.652132   -0.635209
     32          6           0       11.437950   -0.214357    1.600339
     33          6           0       10.646755   -0.352631    2.942248
     34          7           0        6.526277   -1.459014    0.332526
     35          6           0        7.647273   -2.152418    0.307977
     36          6           0        7.294229   -3.606351    0.399571
     37          6           0        5.914316   -3.656832    0.326211
     38          6           0        5.470669   -2.341029    0.288846
     39          6           0        8.276148   -4.780452    0.614558
     40          6           0        4.789385   -4.581382    0.368682
     41          8           0        4.741488   -5.854335    0.341937
     42          6           0        3.543487   -3.667840    0.201740
     43          6           0        2.776852   -3.982714   -1.035217
     44          8           0        3.077078   -3.539949   -2.183796
     45          8           0        1.581709   -4.613760   -0.730395
     46          6           0        0.438827   -4.409543   -1.733688
     47          6           0       -3.715398   -2.664556    0.667940
     48          6           0       -4.772827   -2.035596   -0.117336
     49          6           0       -6.006227   -2.562198   -0.374721
     50          6           0       -6.277820   -3.964122    0.046454
     51          6           0       -7.044094   -1.992296   -1.326681
     52          6           0       -7.379375   -0.562573   -0.995240
     53          6           0       -8.739154   -0.406649   -0.406076
     54          6           0       -9.725088    0.305128   -1.310041
     55          6           0       -9.454140    1.799856   -1.669630
     56          6           0      -11.167866    0.117630   -0.706207
     57          6           0      -12.097826   -0.215703   -1.864367
     58          6           0      -13.273744    0.758973   -1.994506
     59          6           0      -14.544986    0.349939   -1.170540
     60          6           0      -15.603084   -0.303325   -2.035822
     61          6           0      -15.151070    1.513873   -0.398355
     62          6           0      -15.013053    1.363864    1.173516
     63          6           0      -14.313693    2.598581    1.812751
     64          6           0      -13.360013    2.324353    2.991721
     65          6           0      -12.283926    3.494220    3.116462
     66          6           0      -14.065654    2.055867    4.347878
     67          1           0        2.465926    3.209502   -0.456715
     68          1           0        8.987015    3.989641   -0.226398
     69          1           0        9.734866   -2.328609    0.510896
     70          1           0        1.542233   -1.575744   -1.078033
     71          1           0        1.021802    1.127361    0.050840
     72          1           0        0.951709   -0.176848   -2.522342
     73          1           0        1.887187    1.310035   -2.816882
     74          1           0        0.231267    1.410171   -2.312239
     75          1           0        1.635505   -1.017576    1.836470
     76          1           0        0.922870   -2.511546    0.842051
     77          1           0       -0.737239   -0.387563    0.244901
     78          1           0       -0.412552   -0.135394    1.796288
     79          1           0        3.723150    6.318484   -0.014824
     80          1           0        2.827146    5.196444   -1.029718
     81          1           0        3.934686    6.154171   -1.831349
     82          1           0        6.103343    7.292128   -2.027210
     83          1           0        7.147101    8.153849   -0.907799
     84          1           0        5.516575    7.568797   -0.411489
     85          1           0       10.560339    2.222911    1.293995
     86          1           0       11.218402   -0.030367   -0.526217
     87          1           0       10.878159    3.225913   -1.424568
     88          1           0       12.055357    1.943661   -1.091704
     89          1           0       11.928923    3.254603    0.076265
     90          1           0       12.195660    0.530910    1.839513
     91          1           0       11.958335   -1.141188    1.360453
     92          1           0        9.589133   -0.605196    2.871451
     93          1           0       10.758602    0.482938    3.632390
     94          1           0       11.175737   -1.175897    3.423967
     95          1           0        8.955694   -4.549812    1.434919
     96          1           0        8.802621   -4.884183   -0.333928
     97          1           0        7.644959   -5.643382    0.825386
     98          1           0        2.799872   -3.884560    0.968912
     99          1           0       -0.457853   -4.006264   -1.264720
    100          1           0        0.230107   -5.429186   -2.060806
    101          1           0        0.627344   -3.937460   -2.698312
    102          1           0       -3.871740   -2.552081    1.740950
    103          1           0       -3.543774   -3.690947    0.343490
    104          1           0       -4.417478   -1.114041   -0.579359
    105          1           0       -7.154179   -3.931585    0.693833
    106          1           0       -5.435924   -4.457386    0.532329
    107          1           0       -6.515424   -4.612328   -0.797748
    108          1           0       -8.010212   -2.490304   -1.410205
    109          1           0       -6.590721   -2.063259   -2.314560
    110          1           0       -7.407703   -0.034625   -1.948597
    111          1           0       -6.619858   -0.097349   -0.366996
    112          1           0       -8.641463    0.370045    0.353054
    113          1           0       -9.006467   -1.333838    0.102021
    114          1           0       -9.642743   -0.235062   -2.252727
    115          1           0       -8.551132    2.220471   -1.228013
    116          1           0      -10.271411    2.396049   -1.263906
    117          1           0       -9.353057    2.024022   -2.731994
    118          1           0      -11.613125    0.949500   -0.159141
    119          1           0      -11.179341   -0.754224   -0.052176
    120          1           0      -12.550410   -1.184805   -1.658488
    121          1           0      -11.641888   -0.367434   -2.843084
    122          1           0      -13.449287    0.866165   -3.065856
    123          1           0      -12.874920    1.697238   -1.610449
    124          1           0      -14.333598   -0.427013   -0.435694
    125          1           0      -15.832647   -1.262101   -1.569750
    126          1           0      -15.237710   -0.587494   -3.022878
    127          1           0      -16.440780    0.377508   -2.183484
    128          1           0      -16.223522    1.587325   -0.582674
    129          1           0      -14.831935    2.535775   -0.602937
    130          1           0      -14.438781    0.495288    1.497332
    131          1           0      -15.959892    1.364384    1.712169
    132          1           0      -15.042682    3.284314    2.244181
    133          1           0      -13.817340    3.245862    1.089092
    134          1           0      -12.736432    1.454181    2.789431
    135          1           0      -12.807128    4.415063    2.857747
    136          1           0      -11.508082    3.346011    2.364323
    137          1           0      -11.856848    3.522088    4.118981
    138          1           0      -13.764211    2.806758    5.077470
    139          1           0      -13.768482    1.047745    4.638390
    140          1           0      -15.148644    2.162072    4.298063
 ---------------------------------------------------------------------

 SCF Done:  E(RwB97XD) =  -3007.84463686     A.U. after   19 cycles

 Excitation energies and oscillator strengths:

 Excited State   1:      Singlet-A      1.7205 eV  720.61 nm  f=0.3731  <S**2>=0.000
     245 -> 248       -0.15937
     246 -> 247        0.68489
     245 <- 248       -0.10003
 This state for optimization and/or second-order correction.
 Total Energy, E(TD-HF/TD-DFT) =  -3007.78140800
 Copying the excited state density for this state as the 1-particle RhoCI density.

 Excited State   2:      Singlet-A      2.2432 eV  552.72 nm  f=0.1329  <S**2>=0.000
     245 -> 247        0.64351
     246 -> 248        0.25818

 Excited State   3:      Singlet-A      3.3619 eV  368.79 nm  f=0.0118  <S**2>=0.000
     241 -> 247       -0.15286
     243 -> 247       -0.39314
     244 -> 247        0.52789

 Excited State   4:      Singlet-A      3.4110 eV  363.49 nm  f=0.0062  <S**2>=0.000
     239 -> 247        0.49654
     239 -> 248       -0.22288
     239 -> 249        0.37494

 Excited State   5:      Singlet-A      3.5721 eV  347.09 nm  f=0.5073  <S**2>=0.000
     240 -> 247       -0.10294
     241 -> 247       -0.27221
     245 -> 247       -0.21937
     246 -> 248        0.57485

 The electronic state is 1-A.
 Alpha  occ. eigenvalues --  -46.94736 -19.31803 -19.30464 -19.25671 -19.25463
 Alpha  occ. eigenvalues --  -19.25365 -19.21477 -14.47501 -14.45961 -14.44903
 Alpha  occ. eigenvalues --  -14.43720 -10.44586 -10.44187 -10.40936 -10.37038
 Alpha  occ. eigenvalues --  -10.36469 -10.36417 -10.35458 -10.35263 -10.35240
 Alpha  occ. eigenvalues --  -10.34484 -10.34074 -10.33776 -10.33747 -10.33710
 Alpha  occ. eigenvalues --  -10.33665 -10.33449 -10.33121 -10.33079 -10.32990
 Alpha  occ. eigenvalues --  -10.32635 -10.32569 -10.31630 -10.31571 -10.31498
 Alpha  occ. eigenvalues --  -10.31305 -10.31106 -10.31002 -10.30992 -10.30610
 Alpha  occ. eigenvalues --  -10.30539 -10.30410 -10.30309 -10.30106 -10.29754
 Alpha  occ. eigenvalues --  -10.29604 -10.29578 -10.29538 -10.29435 -10.29431
 Alpha  occ. eigenvalues --  -10.29410 -10.29351 -10.29233 -10.29015 -10.28870
 Alpha  occ. eigenvalues --  -10.28685 -10.28643 -10.28409 -10.28398 -10.28344
 Alpha  occ. eigenvalues --  -10.28210 -10.28156 -10.28128 -10.28001 -10.27881
 Alpha  occ. eigenvalues --  -10.27729  -3.20748  -1.94343  -1.93880  -1.93716
 Alpha  occ. eigenvalues --   -1.20706  -1.17401  -1.12246  -1.11685  -1.10731
 Alpha  occ. eigenvalues --   -1.08659  -1.07861  -1.05586  -1.04681  -1.02332
 Alpha  occ. eigenvalues --   -0.96129  -0.93407  -0.92032  -0.91625  -0.90852
 Alpha  occ. eigenvalues --   -0.90767  -0.90287  -0.89875  -0.89327  -0.88717
 Alpha  occ. eigenvalues --   -0.87968  -0.87443  -0.86633  -0.86192  -0.85200
 Alpha  occ. eigenvalues --   -0.84413  -0.83770  -0.83206  -0.82975  -0.82229
 Alpha  occ. eigenvalues --   -0.81782  -0.80648  -0.80104  -0.79572  -0.78728
 Alpha  occ. eigenvalues --   -0.78044  -0.77364  -0.76995  -0.76646  -0.76056
 Alpha  occ. eigenvalues --   -0.75722  -0.74978  -0.74110  -0.72795  -0.72391
 Alpha  occ. eigenvalues --   -0.71676  -0.70496  -0.68970  -0.68572  -0.67653
 Alpha  occ. eigenvalues --   -0.67015  -0.66847  -0.66773  -0.66398  -0.65983
 Alpha  occ. eigenvalues --   -0.65629  -0.65500  -0.64718  -0.64247  -0.63030
 Alpha  occ. eigenvalues --   -0.62095  -0.61721  -0.61173  -0.60950  -0.60657
 Alpha  occ. eigenvalues --   -0.60048  -0.59598  -0.59273  -0.58208  -0.58051
 Alpha  occ. eigenvalues --   -0.57115  -0.56997  -0.56744  -0.56330  -0.56223
 Alpha  occ. eigenvalues --   -0.56086  -0.55923  -0.55559  -0.55377  -0.55188
 Alpha  occ. eigenvalues --   -0.54398  -0.54242  -0.54117  -0.53893  -0.53741
 Alpha  occ. eigenvalues --   -0.53616  -0.53422  -0.53073  -0.52924  -0.52570
 Alpha  occ. eigenvalues --   -0.52242  -0.52033  -0.51814  -0.51724  -0.51644
 Alpha  occ. eigenvalues --   -0.51368  -0.51107  -0.50989  -0.50903  -0.50743
 Alpha  occ. eigenvalues --   -0.50546  -0.50324  -0.50022  -0.49850  -0.49676
 Alpha  occ. eigenvalues --   -0.49424  -0.49288  -0.49135  -0.49012  -0.48707
 Alpha  occ. eigenvalues --   -0.48626  -0.48477  -0.48229  -0.48060  -0.48021
 Alpha  occ. eigenvalues --   -0.47790  -0.47756  -0.47465  -0.47052  -0.46915
 Alpha  occ. eigenvalues --   -0.46676  -0.46551  -0.46391  -0.46239  -0.46145
 Alpha  occ. eigenvalues --   -0.45408  -0.45316  -0.45251  -0.45060  -0.44957
 Alpha  occ. eigenvalues --   -0.44740  -0.44669  -0.44381  -0.44259  -0.44158
 Alpha  occ. eigenvalues --   -0.43794  -0.43777  -0.43282  -0.43270  -0.43042
 Alpha  occ. eigenvalues --   -0.43001  -0.42912  -0.42723  -0.42593  -0.42278
 Alpha  occ. eigenvalues --   -0.41889  -0.41784  -0.41442  -0.41161  -0.40888
 Alpha  occ. eigenvalues --   -0.40513  -0.39795  -0.39748  -0.39673  -0.39352
 Alpha  occ. eigenvalues --   -0.39115  -0.39037  -0.38899  -0.38842  -0.38709
 Alpha  occ. eigenvalues --   -0.38453  -0.37902  -0.36968  -0.36759  -0.36525
 Alpha  occ. eigenvalues --   -0.36326  -0.35868  -0.35335  -0.34341  -0.33680
 Alpha  occ. eigenvalues --   -0.33282  -0.31388  -0.30968  -0.30665  -0.26281
 Alpha  occ. eigenvalues --   -0.23286
 Alpha virt. eigenvalues --   -0.07168   0.00190   0.01408   0.04467   0.05090
 Alpha virt. eigenvalues --    0.05701   0.05999   0.07073   0.07907   0.09610
 Alpha virt. eigenvalues --    0.10121   0.11116   0.11245   0.11489   0.12375

 Mulliken charges:
               1
     1  Mg   0.970715
     2  C   -0.025396
     3  C   -0.081608
     4  C   -0.065533
     5  C   -0.112553
     6  N   -0.326788
     7  C    0.031068
     8  C   -0.109158
     9  C   -0.081064
    10  C    0.002302
    11  C    0.039298
    12  C    0.051909
    13  C   -0.037980
    14  C    0.212636
    15  O   -0.246144
    16  O   -0.355033
    17  N   -0.499376
    18  C    0.175984
    19  C   -0.174219
    20  C   -0.075025
    21  C    0.156002
    22  C    0.070889
    23  C    0.010900
    24  O   -0.230615
    25  C    0.005552
    26  N   -0.387336
    27  C    0.057226
    28  C   -0.099359
    29  C   -0.023128
    30  C    0.098962
    31  C    0.028510
    32  C   -0.043926
    33  C   -0.068167
    34  N   -0.439250
    35  C    0.130968
    36  C   -0.219436
    37  C   -0.030101
    38  C    0.178193
    39  C    0.080833
    40  C    0.183749
    41  O   -0.239118
    42  C   -0.096638
    43  C    0.288777
    44  O   -0.281148
    45  O   -0.381231
    46  C    0.116950
    47  C    0.267885
    48  C   -0.175189
    49  C   -0.186491
    50  C    0.017700
    51  C    0.056360
    52  C   -0.017951
    53  C    0.006288
    54  C   -0.187364
    55  C    0.006700
    56  C    0.033968
    57  C   -0.051890
    58  C    0.025180
    59  C   -0.172785
    60  C    0.018090
    61  C    0.025317
    62  C   -0.019465
    63  C   -0.031820
    64  C   -0.238712
    65  C   -0.022795
    66  C    0.004771
    67  H    0.011834
    68  H    0.014746
    69  H   -0.002829
    70  H    0.032112
    71  H    0.034421
    72  H    0.032434
    73  H    0.054006
    74  H    0.038647
    75  H    0.046807
    76  H    0.057869
    77  H    0.035636
    78  H    0.064231
    79  H    0.065289
    80  H    0.012984
    81  H    0.045914
    82  H    0.037155
    83  H    0.049236
    84  H    0.034840
    85  H    0.045403
    86  H    0.041681
    87  H    0.066001
    88  H    0.020307
    89  H    0.040362
    90  H    0.034131
    91  H    0.036774
    92  H    0.057358
    93  H    0.040417
    94  H    0.032333
    95  H    0.055124
    96  H    0.060909
    97  H    0.067692
    98  H    0.082819
    99  H    0.067692
   100  H    0.062778
   101  H    0.077955
   102  H    0.051783
   103  H    0.044171
   104  H    0.028618
   105  H    0.042319
   106  H    0.028728
   107  H    0.043597
   108  H    0.016283
   109  H    0.038739
   110  H    0.004775
   111  H    0.024543
   112  H    0.003132
   113  H    0.020944
   114  H    0.012866
   115  H    0.024031
   116  H    0.028310
   117  H    0.036173
   118  H    0.029481
   119  H    0.012131
   120  H    0.005699
   121  H    0.017106
   122  H    0.016894
   123  H    0.004897
   124  H    0.020526
   125  H    0.026838
   126  H    0.014615
   127  H    0.032955
   128  H    0.009256
   129  H    0.019934
   130  H    0.021325
   131  H    0.025553
   132  H    0.010390
   133  H    0.008000
   134  H    0.021541
   135  H    0.027050
   136  H    0.031394
   137  H    0.033975
   138  H    0.023789
   139  H    0.038193
   140  H    0.024485
 Sum of Mulliken charges =  -0.00000

 Dipole moment (field-independent basis, Debye):
    X=             -3.4842    Y=              0.9891    Z=             -0.5988  Tot=              3.6710
 Quadrupole moment (field-independent basis, Debye-Ang):
   XX=           -367.5620   YY=           -439.0707   ZZ=           -407.6694
   XY=            -14.3391   XZ=             20.8007   YZ=              3.0237

 Normal termination of Gaussian 16 at Thu May  5 04:47:16 2022.
