 Gaussian 16, Revision A.03,
 Gaussian 16:  ES64L-G16RevA.03 25-Dec-2016

 --------------------
 #p ZINDO=(nstates=5)
 --------------------

 -----------------------------
 step_601_chromophore_16 ZINDO
 -----------------------------
 Symbolic Z-matrix:
 Charge =  0 Multiplicity = 1

                         Standard orientation:
 ---------------------------------------------------------------------
 Center     Atomic      Atomic             Coordinates (Angstroms)
 Number     Number       Type             X           Y           Z
 ---------------------------------------------------------------------
      1         12           0        6.223650    0.549600    0.150145
      2          6           0        4.104596   -2.213885    0.186997
      3          6           0        3.346891    2.570543   -0.533326
      4          6           0        8.303717    3.151833   -0.074431
      5          6           0        8.945650   -1.582296    0.402016
      6          7           0        3.958809    0.206301   -0.211530
      7          6           0        3.372019   -1.033034   -0.149166
      8          6           0        1.831751   -0.912608   -0.263547
      9          6           0        1.625101    0.625540   -0.705771
     10          6           0        3.032154    1.212297   -0.469652
     11          6           0        1.146872    0.836476   -2.172481
     12          6           0        1.092755   -1.445134    0.994222
     13          6           0       -0.407214   -0.975174    1.101928
     14          6           0       -1.508140   -2.021756    1.313910
     15          8           0       -1.531000   -2.816328    2.227925
     16          8           0       -2.567603   -1.934288    0.439891
     17          7           0        5.895558    2.553277   -0.236927
     18          6           0        4.620842    3.194688   -0.493314
     19          6           0        4.879167    4.581281   -0.657044
     20          6           0        6.311863    4.783680   -0.496954
     21          6           0        6.892364    3.481805   -0.231819
     22          6           0        3.804784    5.652134   -0.873129
     23          6           0        7.035333    6.088179   -0.574849
     24          8           0        8.169954    6.272226   -0.244687
     25          6           0        6.416893    7.348309   -0.984645
     26          7           0        8.319811    0.729458    0.011391
     27          6           0        8.966133    1.967931    0.020592
     28          6           0       10.443790    1.787338    0.301963
     29          6           0       10.641527    0.268432    0.348330
     30          6           0        9.210566   -0.224528    0.306488
     31          6           0       11.364900    2.652132   -0.635209
     32          6           0       11.437950   -0.214357    1.600339
     33          6           0       10.646755   -0.352631    2.942248
     34          7           0        6.526277   -1.459014    0.332526
     35          6           0        7.647273   -2.152418    0.307977
     36          6           0        7.294229   -3.606351    0.399571
     37          6           0        5.914316   -3.656832    0.326211
     38          6           0        5.470669   -2.341029    0.288846
     39          6           0        8.276148   -4.780452    0.614558
     40          6           0        4.789385   -4.581382    0.368682
     41          8           0        4.741488   -5.854335    0.341937
     42          6           0        3.543487   -3.667840    0.201740
     43          6           0        2.776852   -3.982714   -1.035217
     44          8           0        3.077078   -3.539949   -2.183796
     45          8           0        1.581709   -4.613760   -0.730395
     46          6           0        0.438827   -4.409543   -1.733688
     47          6           0       -3.715398   -2.664556    0.667940
     48          6           0       -4.772827   -2.035596   -0.117336
     49          6           0       -6.006227   -2.562198   -0.374721
     50          6           0       -6.277820   -3.964122    0.046454
     51          6           0       -7.044094   -1.992296   -1.326681
     52          6           0       -7.379375   -0.562573   -0.995240
     53          6           0       -8.739154   -0.406649   -0.406076
     54          6           0       -9.725088    0.305128   -1.310041
     55          6           0       -9.454140    1.799856   -1.669630
     56          6           0      -11.167866    0.117630   -0.706207
     57          6           0      -12.097826   -0.215703   -1.864367
     58          6           0      -13.273744    0.758973   -1.994506
     59          6           0      -14.544986    0.349939   -1.170540
     60          6           0      -15.603084   -0.303325   -2.035822
     61          6           0      -15.151070    1.513873   -0.398355
     62          6           0      -15.013053    1.363864    1.173516
     63          6           0      -14.313693    2.598581    1.812751
     64          6           0      -13.360013    2.324353    2.991721
     65          6           0      -12.283926    3.494220    3.116462
     66          6           0      -14.065654    2.055867    4.347878
     67          1           0        2.465926    3.209502   -0.456715
     68          1           0        8.987015    3.989641   -0.226398
     69          1           0        9.734866   -2.328609    0.510896
     70          1           0        1.542233   -1.575744   -1.078033
     71          1           0        1.021802    1.127361    0.050840
     72          1           0        0.951709   -0.176848   -2.522342
     73          1           0        1.887187    1.310035   -2.816882
     74          1           0        0.231267    1.410171   -2.312239
     75          1           0        1.635505   -1.017576    1.836470
     76          1           0        0.922870   -2.511546    0.842051
     77          1           0       -0.737239   -0.387563    0.244901
     78          1           0       -0.412552   -0.135394    1.796288
     79          1           0        3.723150    6.318484   -0.014824
     80          1           0        2.827146    5.196444   -1.029718
     81          1           0        3.934686    6.154171   -1.831349
     82          1           0        6.103343    7.292128   -2.027210
     83          1           0        7.147101    8.153849   -0.907799
     84          1           0        5.516575    7.568797   -0.411489
     85          1           0       10.560339    2.222911    1.293995
     86          1           0       11.218402   -0.030367   -0.526217
     87          1           0       10.878159    3.225913   -1.424568
     88          1           0       12.055357    1.943661   -1.091704
     89          1           0       11.928923    3.254603    0.076265
     90          1           0       12.195660    0.530910    1.839513
     91          1           0       11.958335   -1.141188    1.360453
     92          1           0        9.589133   -0.605196    2.871451
     93          1           0       10.758602    0.482938    3.632390
     94          1           0       11.175737   -1.175897    3.423967
     95          1           0        8.955694   -4.549812    1.434919
     96          1           0        8.802621   -4.884183   -0.333928
     97          1           0        7.644959   -5.643382    0.825386
     98          1           0        2.799872   -3.884560    0.968912
     99          1           0       -0.457853   -4.006264   -1.264720
    100          1           0        0.230107   -5.429186   -2.060806
    101          1           0        0.627344   -3.937460   -2.698312
    102          1           0       -3.871740   -2.552081    1.740950
    103          1           0       -3.543774   -3.690947    0.343490
    104          1           0       -4.417478   -1.114041   -0.579359
    105          1           0       -7.154179   -3.931585    0.693833
    106          1           0       -5.435924   -4.457386    0.532329
    107          1           0       -6.515424   -4.612328   -0.797748
    108          1           0       -8.010212   -2.490304   -1.410205
    109          1           0       -6.590721   -2.063259   -2.314560
    110          1           0       -7.407703   -0.034625   -1.948597
    111          1           0       -6.619858   -0.097349   -0.366996
    112          1           0       -8.641463    0.370045    0.353054
    113          1           0       -9.006467   -1.333838    0.102021
    114          1           0       -9.642743   -0.235062   -2.252727
    115          1           0       -8.551132    2.220471   -1.228013
    116          1           0      -10.271411    2.396049   -1.263906
    117          1           0       -9.353057    2.024022   -2.731994
    118          1           0      -11.613125    0.949500   -0.159141
    119          1           0      -11.179341   -0.754224   -0.052176
    120          1           0      -12.550410   -1.184805   -1.658488
    121          1           0      -11.641888   -0.367434   -2.843084
    122          1           0      -13.449287    0.866165   -3.065856
    123          1           0      -12.874920    1.697238   -1.610449
    124          1           0      -14.333598   -0.427013   -0.435694
    125          1           0      -15.832647   -1.262101   -1.569750
    126          1           0      -15.237710   -0.587494   -3.022878
    127          1           0      -16.440780    0.377508   -2.183484
    128          1           0      -16.223522    1.587325   -0.582674
    129          1           0      -14.831935    2.535775   -0.602937
    130          1           0      -14.438781    0.495288    1.497332
    131          1           0      -15.959892    1.364384    1.712169
    132          1           0      -15.042682    3.284314    2.244181
    133          1           0      -13.817340    3.245862    1.089092
    134          1           0      -12.736432    1.454181    2.789431
    135          1           0      -12.807128    4.415063    2.857747
    136          1           0      -11.508082    3.346011    2.364323
    137          1           0      -11.856848    3.522088    4.118981
    138          1           0      -13.764211    2.806758    5.077470
    139          1           0      -13.768482    1.047745    4.638390
    140          1           0      -15.148644    2.162072    4.298063
 ---------------------------------------------------------------------

 SCF Done:  E(RZINDO/S) =  -474.318362027     A.U. after   18 cycles

 Excitation energies and oscillator strengths:

 Excited State   1:      Singlet-A      1.3352 eV  928.59 nm  f=0.5205  <S**2>=0.000
     175 ->178         0.11031
     175 ->179         0.10653
     176 ->177         0.67287
 This state for optimization and/or second-order correction.
 Total Energy, E(CIS/TDA) =  -474.269294787
 Copying the excited state density for this state as the 1-particle RhoCI density.

 Excited State   2:      Singlet-A      1.9868 eV  624.05 nm  f=0.0647  <S**2>=0.000
     175 ->177         0.55208
     176 ->178        -0.32826
     176 ->179        -0.22937

 Excited State   3:      Singlet-A      2.8565 eV  434.05 nm  f=0.1009  <S**2>=0.000
     167 ->177         0.24441
     167 ->178        -0.26469
     167 ->179         0.21362
     168 ->177         0.24173
     168 ->178        -0.23947
     168 ->179         0.19112
     175 ->177         0.12002
     176 ->178         0.23249

 Excited State   4:      Singlet-A      2.8951 eV  428.26 nm  f=0.5689  <S**2>=0.000
     167 ->177        -0.12190
     167 ->178         0.11312
     168 ->178         0.10917
     175 ->177         0.28847
     176 ->178         0.54293

 Excited State   5:      Singlet-A      2.9281 eV  423.43 nm  f=0.0004  <S**2>=0.000
     171 ->182        -0.11314
     172 ->177         0.22017
     172 ->179        -0.16472
     172 ->182         0.42932
     172 ->186        -0.25266
     172 ->189         0.27006
     172 ->191         0.14483
     172 ->203        -0.11770

 The electronic state is 1-A.
 Alpha  occ. eigenvalues --   -1.86987  -1.81060  -1.77946  -1.76409  -1.70157
 Alpha  occ. eigenvalues --   -1.69002  -1.67126  -1.61980  -1.61260  -1.57574
 Alpha  occ. eigenvalues --   -1.56038  -1.53073  -1.49567  -1.47667  -1.46889
 Alpha  occ. eigenvalues --   -1.44110  -1.42910  -1.41104  -1.40531  -1.37468
 Alpha  occ. eigenvalues --   -1.35741  -1.33551  -1.33330  -1.30145  -1.28349
 Alpha  occ. eigenvalues --   -1.28142  -1.25364  -1.21795  -1.19482  -1.18888
 Alpha  occ. eigenvalues --   -1.17153  -1.15772  -1.15381  -1.15184  -1.13208
 Alpha  occ. eigenvalues --   -1.12163  -1.10944  -1.10159  -1.05931  -1.04748
 Alpha  occ. eigenvalues --   -1.02279  -1.01723  -0.99034  -0.98578  -0.98064
 Alpha  occ. eigenvalues --   -0.96224  -0.94852  -0.93922  -0.93433  -0.91873
 Alpha  occ. eigenvalues --   -0.91048  -0.90129  -0.88295  -0.87351  -0.87119
 Alpha  occ. eigenvalues --   -0.86039  -0.85688  -0.84083  -0.81358  -0.80990
 Alpha  occ. eigenvalues --   -0.80005  -0.79095  -0.78239  -0.78052  -0.76383
 Alpha  occ. eigenvalues --   -0.76169  -0.75951  -0.75363  -0.74706  -0.74093
 Alpha  occ. eigenvalues --   -0.73717  -0.72867  -0.71999  -0.71342  -0.70949
 Alpha  occ. eigenvalues --   -0.69832  -0.69062  -0.68687  -0.68131  -0.68015
 Alpha  occ. eigenvalues --   -0.67456  -0.66614  -0.66413  -0.65691  -0.65496
 Alpha  occ. eigenvalues --   -0.65191  -0.64974  -0.64061  -0.63977  -0.63713
 Alpha  occ. eigenvalues --   -0.63621  -0.63002  -0.62811  -0.62181  -0.61986
 Alpha  occ. eigenvalues --   -0.61585  -0.60675  -0.60374  -0.60191  -0.59877
 Alpha  occ. eigenvalues --   -0.59724  -0.59281  -0.59048  -0.58630  -0.58150
 Alpha  occ. eigenvalues --   -0.57975  -0.57785  -0.57753  -0.56871  -0.56729
 Alpha  occ. eigenvalues --   -0.56611  -0.56064  -0.55765  -0.55280  -0.54806
 Alpha  occ. eigenvalues --   -0.54488  -0.54074  -0.53859  -0.53575  -0.52649
 Alpha  occ. eigenvalues --   -0.52491  -0.52434  -0.52194  -0.51909  -0.51893
 Alpha  occ. eigenvalues --   -0.51192  -0.50759  -0.50606  -0.50383  -0.50189
 Alpha  occ. eigenvalues --   -0.50010  -0.49765  -0.49566  -0.49469  -0.49305
 Alpha  occ. eigenvalues --   -0.48878  -0.48286  -0.48136  -0.48031  -0.47931
 Alpha  occ. eigenvalues --   -0.47714  -0.47184  -0.46998  -0.46587  -0.46395
 Alpha  occ. eigenvalues --   -0.46353  -0.45727  -0.45571  -0.45543  -0.45403
 Alpha  occ. eigenvalues --   -0.44896  -0.44655  -0.44353  -0.44242  -0.43930
 Alpha  occ. eigenvalues --   -0.43512  -0.43406  -0.43238  -0.43094  -0.42366
 Alpha  occ. eigenvalues --   -0.42307  -0.42038  -0.40262  -0.39427  -0.39313
 Alpha  occ. eigenvalues --   -0.39050  -0.37457  -0.37082  -0.35696  -0.33981
 Alpha  occ. eigenvalues --   -0.32639  -0.32245  -0.31562  -0.31066  -0.27072
 Alpha  occ. eigenvalues --   -0.22194
 Alpha virt. eigenvalues --   -0.08595  -0.02516  -0.01140   0.00471   0.01430
 Alpha virt. eigenvalues --    0.02088   0.02639   0.02835   0.04013   0.04370
 Alpha virt. eigenvalues --    0.05984   0.06807   0.06914   0.07355   0.07956

 Mulliken charges:
               1
     1  Mg   0.426226
     2  C   -0.045299
     3  C   -0.043876
     4  C   -0.066763
     5  C   -0.108052
     6  N   -0.275847
     7  C    0.159544
     8  C   -0.001952
     9  C    0.003423
    10  C    0.068527
    11  C   -0.047519
    12  C   -0.024271
    13  C   -0.008710
    14  C    0.465412
    15  O   -0.512150
    16  O   -0.276986
    17  N   -0.329776
    18  C    0.042687
    19  C   -0.014417
    20  C   -0.081730
    21  C    0.140502
    22  C   -0.046372
    23  C    0.327018
    24  O   -0.541376
    25  C   -0.025752
    26  N   -0.289063
    27  C    0.104112
    28  C    0.001907
    29  C    0.008304
    30  C    0.199554
    31  C   -0.055480
    32  C   -0.028879
    33  C   -0.060332
    34  N   -0.316103
    35  C    0.158560
    36  C    0.051504
    37  C   -0.025440
    38  C    0.134593
    39  C   -0.037912
    40  C    0.335136
    41  O   -0.516014
    42  C    0.058548
    43  C    0.490700
    44  O   -0.538319
    45  O   -0.265084
    46  C    0.067764
    47  C    0.119431
    48  C   -0.087801
    49  C   -0.011802
    50  C   -0.045484
    51  C   -0.016634
    52  C   -0.032486
    53  C   -0.033609
    54  C   -0.001144
    55  C   -0.055793
    56  C   -0.035801
    57  C   -0.041692
    58  C   -0.036078
    59  C   -0.002355
    60  C   -0.058387
    61  C   -0.035190
    62  C   -0.045174
    63  C   -0.037473
    64  C   -0.018804
    65  C   -0.064332
    66  C   -0.057538
    67  H    0.029427
    68  H    0.038294
    69  H    0.029090
    70  H    0.035778
    71  H    0.028962
    72  H    0.019891
    73  H    0.031991
    74  H    0.021154
    75  H    0.042957
    76  H    0.045412
    77  H    0.023776
    78  H    0.044841
    79  H    0.034336
    80  H    0.010792
    81  H    0.027219
    82  H    0.025323
    83  H    0.034925
    84  H    0.029847
    85  H    0.032337
    86  H    0.037009
    87  H    0.041867
    88  H    0.012166
    89  H    0.024234
    90  H    0.018851
    91  H    0.020203
    92  H    0.029029
    93  H    0.024607
    94  H    0.010697
    95  H    0.036905
    96  H    0.040768
    97  H    0.041800
    98  H    0.060198
    99  H    0.044729
   100  H    0.032918
   101  H    0.058842
   102  H    0.055455
   103  H    0.049579
   104  H    0.030527
   105  H    0.026018
   106  H    0.021162
   107  H    0.024369
   108  H    0.025060
   109  H    0.020977
   110  H    0.010216
   111  H    0.022111
   112  H    0.003627
   113  H    0.029754
   114  H    0.016327
   115  H    0.016765
   116  H    0.017692
   117  H    0.021543
   118  H    0.031885
   119  H    0.013410
   120  H    0.005673
   121  H    0.020038
   122  H    0.019214
   123  H    0.015168
   124  H    0.025033
   125  H    0.017727
   126  H    0.011159
   127  H    0.025924
   128  H    0.011838
   129  H    0.025688
   130  H    0.024376
   131  H    0.021144
   132  H    0.010963
   133  H    0.015472
   134  H    0.012907
   135  H    0.018964
   136  H    0.015530
   137  H    0.022795
   138  H    0.019368
   139  H    0.021453
   140  H    0.019517
 Sum of Mulliken charges =  -0.00000

 Dipole moment (field-independent basis, Debye):
    X=             -3.9268    Y=             -0.8501    Z=              0.3570  Tot=              4.0336
 N-N= 4.219975180784D+03 E-N= 0.000000000000D+00  KE=-9.113866783326D+03
 Leave Link  601 at Thu May  5 05:00:34 2022, MaxMem=  6710886400 cpu:               1.0 elap:               0.1
 (Enter /sw/apps/gaussian-16.0/g16/l9999.exe)
 1\1\GINC-BP1-COMPUTE132\SP\RZINDO CIS\STO-3G\C55H74Mg1N4O6\OF15641\05-
 May-2022\0\\#p ZINDO=(nstates=5)\\step_601_chromophore_16 ZINDO\\0,1\M
 g,0,40.848,41.335,26.905\C,0,39.822,43.8,29.141\C,0,41.216,39.14,29.71
 1\C,0,42.015,39.054,24.764\C,0,40.837,43.691,24.362\N,0,40.614,41.475,
 29.208\C,0,40.193,42.614,29.848\C,0,39.973,42.341,31.357\C,0,40.631,40
 .881,31.556\C,0,40.834,40.426,30.096\C,0,41.963,40.857,32.362\C,0,38.5
 04,42.577,31.802\C,0,38.145,41.93,33.193\C,0,37.499,42.798,34.28\O,0,3

 Normal termination of Gaussian 16 at Thu May  5 05:00:34 2022.
