 Gaussian 16, Revision A.03,
 Gaussian 16:  ES64L-G16RevA.03 25-Dec-2016

 ------------------------------
 #p blyp/Def2SVP td=(nstates=5)
 ------------------------------

 --------------------------------------------------
 step_501_chromophore_26 TDDFT with blyp functional
 --------------------------------------------------
 Symbolic Z-matrix:
 Charge =  0 Multiplicity = 1

                         Standard orientation:
 ---------------------------------------------------------------------
 Center     Atomic      Atomic             Coordinates (Angstroms)
 Number     Number       Type             X           Y           Z
 ---------------------------------------------------------------------
      1         12           0       -3.812531    1.323223    0.587856
      2          6           0       -4.432344   -2.066862    0.122489
      3          6           0       -2.000493    0.490109    3.424424
      4          6           0       -2.691323    4.421716    0.847548
      5          6           0       -5.209386    1.977014   -2.510512
      6          7           0       -3.141735   -0.560319    1.558732
      7          6           0       -3.633014   -1.817816    1.273708
      8          6           0       -3.231389   -2.844362    2.291159
      9          6           0       -2.787317   -1.926142    3.513847
     10          6           0       -2.583309   -0.588045    2.815898
     11          6           0       -3.585189   -1.915573    4.903230
     12          6           0       -2.156704   -3.918325    1.793498
     13          6           0       -1.100756   -3.455080    0.746207
     14          6           0        0.294733   -3.972049    1.001070
     15          8           0        0.603375   -4.857598    1.828017
     16          8           0        1.138121   -3.489627    0.019869
     17          7           0       -2.424868    2.310185    1.880845
     18          6           0       -1.792389    1.780498    3.012490
     19          6           0       -0.911543    2.739007    3.621597
     20          6           0       -1.074454    3.922410    2.862584
     21          6           0       -2.064185    3.610884    1.788648
     22          6           0       -0.268922    2.442839    4.977605
     23          6           0       -0.329450    5.228370    3.221148
     24          8           0        0.512880    5.276051    4.123350
     25          6           0       -0.724458    6.424091    2.461312
     26          7           0       -3.861909    2.896615   -0.752081
     27          6           0       -3.558281    4.156312   -0.263763
     28          6           0       -3.970790    5.291380   -1.226657
     29          6           0       -4.563544    4.397422   -2.391847
     30          6           0       -4.505718    3.019463   -1.901034
     31          6           0       -4.921457    6.346284   -0.755646
     32          6           0       -3.720193    4.510158   -3.760963
     33          6           0       -4.631729    4.696090   -4.945874
     34          7           0       -4.848323    0.242362   -0.861674
     35          6           0       -5.359737    0.651165   -2.079392
     36          6           0       -5.961517   -0.502596   -2.786152
     37          6           0       -5.616909   -1.612107   -1.938193
     38          6           0       -4.954450   -1.090554   -0.820862
     39          6           0       -6.500325   -0.611917   -4.154576
     40          6           0       -5.610995   -3.079727   -1.759803
     41          8           0       -5.987649   -3.945145   -2.515825
     42          6           0       -4.889514   -3.420977   -0.416356
     43          6           0       -5.770776   -4.206672    0.448267
     44          8           0       -5.636303   -5.348971    0.887680
     45          8           0       -7.015605   -3.525675    0.491388
     46          6           0       -8.040293   -4.131688    1.368356
     47          6           0        2.343010   -4.310444   -0.045415
     48          6           0        3.428581   -3.596276   -0.767436
     49          6           0        3.316582   -3.298771   -2.079711
     50          6           0        2.136517   -3.577135   -3.007380
     51          6           0        4.399968   -2.515963   -2.755700
     52          6           0        4.354968   -0.956100   -2.377857
     53          6           0        4.895097   -0.094236   -3.556003
     54          6           0        6.044629    0.867599   -3.059820
     55          6           0        5.805630    2.312196   -3.466126
     56          6           0        7.483666    0.400604   -3.382807
     57          6           0        8.417124    0.361991   -2.130202
     58          6           0        8.414247   -0.932565   -1.365538
     59          6           0        8.320124   -0.799716    0.140439
     60          6           0        6.950765   -1.372432    0.686175
     61          6           0        9.536929   -1.627981    0.850573
     62          6           0       10.065919   -0.794986    2.109462
     63          6           0       11.440633   -0.041239    1.933732
     64          6           0       11.313668    1.158775    0.953159
     65          6           0       11.837681    0.712896   -0.402595
     66          6           0       11.959457    2.485117    1.447222
     67          1           0       -1.664648    0.218711    4.427935
     68          1           0       -2.550235    5.501254    0.930678
     69          1           0       -5.689833    2.301277   -3.435331
     70          1           0       -4.089447   -3.456886    2.567796
     71          1           0       -1.799525   -2.339964    3.718178
     72          1           0       -4.391853   -2.642937    4.992792
     73          1           0       -4.096990   -0.975503    5.108797
     74          1           0       -2.921488   -2.253497    5.699575
     75          1           0       -2.652767   -4.825862    1.450980
     76          1           0       -1.633992   -4.255400    2.688594
     77          1           0       -1.081409   -2.367214    0.674035
     78          1           0       -1.375784   -3.823392   -0.241744
     79          1           0        0.701766    2.919365    5.118275
     80          1           0       -0.038742    1.379488    5.038583
     81          1           0       -0.967306    2.822339    5.723861
     82          1           0       -1.729183    6.712532    2.768790
     83          1           0       -0.656759    6.219962    1.392277
     84          1           0       -0.010632    7.192706    2.757459
     85          1           0       -3.056164    5.699462   -1.657441
     86          1           0       -5.620160    4.664478   -2.374383
     87          1           0       -5.219954    6.895284   -1.648881
     88          1           0       -4.341847    7.055752   -0.165015
     89          1           0       -5.743766    5.898004   -0.196755
     90          1           0       -3.114926    3.605845   -3.822629
     91          1           0       -2.930245    5.261401   -3.797250
     92          1           0       -4.593194    3.784469   -5.541682
     93          1           0       -4.227772    5.400185   -5.674074
     94          1           0       -5.662770    4.794046   -4.606695
     95          1           0       -6.503151    0.309010   -4.739553
     96          1           0       -7.546189   -0.894598   -4.039890
     97          1           0       -5.739915   -1.244764   -4.611718
     98          1           0       -4.013147   -3.994568   -0.717230
     99          1           0       -8.428017   -3.259189    1.895450
    100          1           0       -7.772661   -4.884670    2.109686
    101          1           0       -8.855296   -4.388387    0.691362
    102          1           0        2.152579   -5.215669   -0.620878
    103          1           0        2.741582   -4.577147    0.933741
    104          1           0        4.380565   -3.456554   -0.254209
    105          1           0        2.423449   -4.251330   -3.813370
    106          1           0        1.914281   -2.597062   -3.428756
    107          1           0        1.263471   -3.955994   -2.476642
    108          1           0        4.530491   -2.639126   -3.830691
    109          1           0        5.365764   -2.789974   -2.330902
    110          1           0        5.072013   -0.912848   -1.558703
    111          1           0        3.347831   -0.722910   -2.033944
    112          1           0        4.035843    0.448408   -3.948931
    113          1           0        5.193201   -0.609507   -4.468878
    114          1           0        6.054334    0.946465   -1.972707
    115          1           0        5.386946    2.412612   -4.466966
    116          1           0        6.720281    2.883482   -3.308180
    117          1           0        5.016133    2.710964   -2.828835
    118          1           0        7.955490    1.139064   -4.030222
    119          1           0        7.451905   -0.541792   -3.929590
    120          1           0        8.113181    1.100419   -1.387998
    121          1           0        9.438308    0.510702   -2.479540
    122          1           0        9.294203   -1.480655   -1.700292
    123          1           0        7.599982   -1.564653   -1.719595
    124          1           0        8.353090    0.239021    0.470340
    125          1           0        6.975971   -1.864942    1.657883
    126          1           0        6.577534   -2.081671   -0.053673
    127          1           0        6.195336   -0.595727    0.804775
    128          1           0       10.367716   -2.034764    0.273902
    129          1           0        9.113754   -2.501765    1.346828
    130          1           0       10.176780   -1.439488    2.982277
    131          1           0        9.382143    0.011732    2.373063
    132          1           0       12.048105   -0.871014    1.573825
    133          1           0       11.812866    0.277202    2.907903
    134          1           0       10.284620    1.511739    0.883067
    135          1           0       12.530684   -0.125940   -0.347004
    136          1           0       12.401659    1.549094   -0.817478
    137          1           0       11.083023    0.421386   -1.133873
    138          1           0       11.250266    3.312560    1.459381
    139          1           0       12.698715    2.970639    0.810366
    140          1           0       12.441131    2.427098    2.423069
 ---------------------------------------------------------------------

 SCF Done:  E(RB-LYP) =  -3007.36693008     A.U. after   20 cycles

 Excitation energies and oscillator strengths:

 Excited State   1:      Singlet-A      1.8152 eV  683.02 nm  f=0.2809  <S**2>=0.000
     245 -> 248        0.19933
     246 -> 247        0.68458
     246 <- 247       -0.14471
 This state for optimization and/or second-order correction.
 Total Energy, E(TD-HF/TD-DFT) =  -3007.30022135
 Copying the excited state density for this state as the 1-particle RhoCI density.

 Excited State   2:      Singlet-A      1.9628 eV  631.66 nm  f=0.0465  <S**2>=0.000
     243 -> 247       -0.40224
     245 -> 247        0.53831
     246 -> 248       -0.18473

 Excited State   3:      Singlet-A      1.9889 eV  623.39 nm  f=0.0002  <S**2>=0.000
     244 -> 247        0.70467

 Excited State   4:      Singlet-A      2.0448 eV  606.35 nm  f=0.0262  <S**2>=0.000
     243 -> 247        0.57680
     245 -> 247        0.35877
     246 -> 248       -0.16598

 Excited State   5:      Singlet-A      2.1908 eV  565.94 nm  f=0.0001  <S**2>=0.000
     242 -> 247        0.70701

 The electronic state is 1-A.
 Alpha  occ. eigenvalues --  -46.27583 -18.82178 -18.81465 -18.77312 -18.77018
 Alpha  occ. eigenvalues --  -18.75764 -18.75761 -14.03375 -14.03343 -14.01111
 Alpha  occ. eigenvalues --  -14.00909 -10.04159 -10.04136  -9.99940  -9.99845
 Alpha  occ. eigenvalues --   -9.97394  -9.97031  -9.96752  -9.96594  -9.96157
 Alpha  occ. eigenvalues --   -9.96141  -9.96021  -9.95992  -9.94965  -9.94787
 Alpha  occ. eigenvalues --   -9.94426  -9.94343  -9.94175  -9.94138  -9.94117
 Alpha  occ. eigenvalues --   -9.94112  -9.93826  -9.93638  -9.93523  -9.93490
 Alpha  occ. eigenvalues --   -9.93309  -9.93255  -9.92990  -9.92815  -9.92796
 Alpha  occ. eigenvalues --   -9.92727  -9.92691  -9.92574  -9.92560  -9.92251
 Alpha  occ. eigenvalues --   -9.92059  -9.91994  -9.91988  -9.91974  -9.91864
 Alpha  occ. eigenvalues --   -9.91719  -9.91570  -9.91492  -9.91471  -9.91398
 Alpha  occ. eigenvalues --   -9.91342  -9.91030  -9.90966  -9.90934  -9.90916
 Alpha  occ. eigenvalues --   -9.90770  -9.90763  -9.90571  -9.90448  -9.90343
 Alpha  occ. eigenvalues --   -9.90213  -2.92208  -1.72615  -1.72103  -1.71916
 Alpha  occ. eigenvalues --   -0.97451  -0.96278  -0.92059  -0.90946  -0.89037
 Alpha  occ. eigenvalues --   -0.89003  -0.87366  -0.86121  -0.85627  -0.84802
 Alpha  occ. eigenvalues --   -0.75422  -0.73375  -0.73044  -0.72753  -0.72464
 Alpha  occ. eigenvalues --   -0.71832  -0.71528  -0.71202  -0.70476  -0.70450
 Alpha  occ. eigenvalues --   -0.69557  -0.68990  -0.68465  -0.67994  -0.67231
 Alpha  occ. eigenvalues --   -0.66539  -0.66209  -0.65336  -0.64842  -0.64427
 Alpha  occ. eigenvalues --   -0.63777  -0.62863  -0.62576  -0.61698  -0.60904
 Alpha  occ. eigenvalues --   -0.60487  -0.60179  -0.59977  -0.59451  -0.58665
 Alpha  occ. eigenvalues --   -0.58171  -0.57663  -0.56923  -0.55314  -0.54902
 Alpha  occ. eigenvalues --   -0.53814  -0.53456  -0.52582  -0.52337  -0.51806
 Alpha  occ. eigenvalues --   -0.50958  -0.50820  -0.50682  -0.50401  -0.50121
 Alpha  occ. eigenvalues --   -0.49318  -0.49140  -0.48879  -0.48773  -0.46665
 Alpha  occ. eigenvalues --   -0.45839  -0.45526  -0.45312  -0.44959  -0.44438
 Alpha  occ. eigenvalues --   -0.44116  -0.43840  -0.43299  -0.42920  -0.42779
 Alpha  occ. eigenvalues --   -0.42239  -0.42016  -0.41853  -0.41169  -0.40725
 Alpha  occ. eigenvalues --   -0.40666  -0.40437  -0.40156  -0.39999  -0.39912
 Alpha  occ. eigenvalues --   -0.39862  -0.39583  -0.39447  -0.39272  -0.39075
 Alpha  occ. eigenvalues --   -0.38958  -0.38617  -0.38582  -0.38438  -0.38379
 Alpha  occ. eigenvalues --   -0.38191  -0.37876  -0.37655  -0.37496  -0.37203
 Alpha  occ. eigenvalues --   -0.37000  -0.36927  -0.36550  -0.36383  -0.36323
 Alpha  occ. eigenvalues --   -0.36241  -0.36140  -0.35958  -0.35666  -0.35462
 Alpha  occ. eigenvalues --   -0.35341  -0.35201  -0.34995  -0.34726  -0.34624
 Alpha  occ. eigenvalues --   -0.34548  -0.34152  -0.34083  -0.33965  -0.33801
 Alpha  occ. eigenvalues --   -0.33559  -0.33442  -0.33358  -0.33304  -0.33131
 Alpha  occ. eigenvalues --   -0.33064  -0.32965  -0.32769  -0.32659  -0.32424
 Alpha  occ. eigenvalues --   -0.32335  -0.31959  -0.31803  -0.31582  -0.31433
 Alpha  occ. eigenvalues --   -0.31234  -0.31203  -0.30915  -0.30753  -0.30680
 Alpha  occ. eigenvalues --   -0.30616  -0.30343  -0.30326  -0.30256  -0.29979
 Alpha  occ. eigenvalues --   -0.29567  -0.29374  -0.29293  -0.29025  -0.28908
 Alpha  occ. eigenvalues --   -0.28778  -0.28476  -0.28276  -0.27887  -0.27508
 Alpha  occ. eigenvalues --   -0.27356  -0.27137  -0.27019  -0.26851  -0.26657
 Alpha  occ. eigenvalues --   -0.26454  -0.26155  -0.25912  -0.25470  -0.25103
 Alpha  occ. eigenvalues --   -0.24883  -0.24280  -0.24167  -0.24166  -0.23953
 Alpha  occ. eigenvalues --   -0.23613  -0.22665  -0.22046  -0.21770  -0.20626
 Alpha  occ. eigenvalues --   -0.20435  -0.19701  -0.18955  -0.18885  -0.17334
 Alpha  occ. eigenvalues --   -0.15993
 Alpha virt. eigenvalues --   -0.11651  -0.07396  -0.05860  -0.04627  -0.03708
 Alpha virt. eigenvalues --   -0.03538  -0.03182  -0.02381  -0.01936  -0.00185
 Alpha virt. eigenvalues --    0.00731   0.01680   0.02278   0.02480   0.02810

 Mulliken charges:
               1
     1  Mg   0.688115
     2  C   -0.000935
     3  C   -0.079091
     4  C   -0.065576
     5  C   -0.094018
     6  N   -0.217149
     7  C   -0.057808
     8  C    0.002238
     9  C    0.063807
    10  C   -0.025893
    11  C    0.124376
    12  C    0.090755
    13  C    0.095759
    14  C    0.102332
    15  O   -0.212174
    16  O   -0.265712
    17  N   -0.275414
    18  C    0.163343
    19  C   -0.135931
    20  C    0.002845
    21  C    0.161725
    22  C    0.181935
    23  C   -0.087225
    24  O   -0.163550
    25  C    0.146611
    26  N   -0.223410
    27  C   -0.028392
    28  C    0.019789
    29  C    0.005179
    30  C   -0.011635
    31  C    0.168740
    32  C    0.088648
    33  C    0.100119
    34  N   -0.252237
    35  C    0.153202
    36  C   -0.199644
    37  C    0.071726
    38  C    0.047999
    39  C    0.185810
    40  C   -0.074970
    41  O   -0.110328
    42  C    0.109334
    43  C    0.135496
    44  O   -0.168987
    45  O   -0.317422
    46  C    0.219442
    47  C    0.319666
    48  C   -0.124974
    49  C   -0.129967
    50  C    0.161900
    51  C    0.088797
    52  C    0.058423
    53  C    0.120956
    54  C   -0.083142
    55  C    0.105473
    56  C    0.127028
    57  C    0.030454
    58  C    0.137648
    59  C   -0.080990
    60  C    0.080771
    61  C    0.106632
    62  C    0.008641
    63  C    0.107280
    64  C   -0.054642
    65  C    0.116890
    66  C    0.078117
    67  H   -0.064976
    68  H   -0.076063
    69  H   -0.079859
    70  H   -0.026224
    71  H   -0.028034
    72  H   -0.014143
    73  H    0.000796
    74  H    0.000215
    75  H   -0.001666
    76  H   -0.008837
    77  H    0.020440
    78  H    0.013835
    79  H    0.004270
    80  H   -0.008113
    81  H    0.014399
    82  H    0.021150
    83  H    0.017747
    84  H   -0.013097
    85  H   -0.031368
    86  H   -0.027810
    87  H   -0.005861
    88  H   -0.009050
    89  H    0.000657
    90  H   -0.016097
    91  H   -0.021106
    92  H   -0.018664
    93  H   -0.011508
    94  H    0.001537
    95  H   -0.029946
    96  H    0.018080
    97  H    0.028463
    98  H   -0.004405
    99  H   -0.004041
   100  H    0.035614
   101  H    0.015952
   102  H   -0.004445
   103  H   -0.000996
   104  H   -0.036554
   105  H    0.003065
   106  H   -0.006470
   107  H   -0.007928
   108  H   -0.034486
   109  H   -0.031147
   110  H   -0.020463
   111  H   -0.008433
   112  H   -0.046989
   113  H   -0.031242
   114  H   -0.034145
   115  H   -0.018985
   116  H   -0.015969
   117  H   -0.024385
   118  H   -0.049423
   119  H   -0.037519
   120  H   -0.026838
   121  H   -0.012307
   122  H   -0.038623
   123  H   -0.048379
   124  H   -0.010046
   125  H   -0.013250
   126  H    0.000688
   127  H   -0.005591
   128  H   -0.026707
   129  H   -0.037225
   130  H   -0.034747
   131  H   -0.030558
   132  H   -0.029513
   133  H   -0.036004
   134  H   -0.030007
   135  H   -0.021472
   136  H   -0.031022
   137  H   -0.018354
   138  H   -0.025118
   139  H   -0.030407
   140  H   -0.017081
 Sum of Mulliken charges =  -0.00000

 Dipole moment (field-independent basis, Debye):
    X=             -2.2211    Y=              5.4878    Z=             -1.7968  Tot=              6.1869
 Quadrupole moment (field-independent basis, Debye-Ang):
   XX=           -389.7625   YY=           -427.9577   ZZ=           -400.1829
   XY=            -41.3657   XZ=            -21.7185   YZ=            -23.1783

 Normal termination of Gaussian 16 at Thu May  5 02:05:58 2022.
