 Gaussian 16, Revision A.03,
 Gaussian 16:  ES64L-G16RevA.03 25-Dec-2016

 -----------------------------------
 #p cam-b3lyp/Def2SVP td=(nstates=5)
 -----------------------------------

 -------------------------------------------------------
 step_501_chromophore_26 TDDFT with cam-b3lyp functional
 -------------------------------------------------------
 Symbolic Z-matrix:
 Charge =  0 Multiplicity = 1

                         Standard orientation:
 ---------------------------------------------------------------------
 Center     Atomic      Atomic             Coordinates (Angstroms)
 Number     Number       Type             X           Y           Z
 ---------------------------------------------------------------------
      1         12           0       -3.812531    1.323223    0.587856
      2          6           0       -4.432344   -2.066862    0.122489
      3          6           0       -2.000493    0.490109    3.424424
      4          6           0       -2.691323    4.421716    0.847548
      5          6           0       -5.209386    1.977014   -2.510512
      6          7           0       -3.141735   -0.560319    1.558732
      7          6           0       -3.633014   -1.817816    1.273708
      8          6           0       -3.231389   -2.844362    2.291159
      9          6           0       -2.787317   -1.926142    3.513847
     10          6           0       -2.583309   -0.588045    2.815898
     11          6           0       -3.585189   -1.915573    4.903230
     12          6           0       -2.156704   -3.918325    1.793498
     13          6           0       -1.100756   -3.455080    0.746207
     14          6           0        0.294733   -3.972049    1.001070
     15          8           0        0.603375   -4.857598    1.828017
     16          8           0        1.138121   -3.489627    0.019869
     17          7           0       -2.424868    2.310185    1.880845
     18          6           0       -1.792389    1.780498    3.012490
     19          6           0       -0.911543    2.739007    3.621597
     20          6           0       -1.074454    3.922410    2.862584
     21          6           0       -2.064185    3.610884    1.788648
     22          6           0       -0.268922    2.442839    4.977605
     23          6           0       -0.329450    5.228370    3.221148
     24          8           0        0.512880    5.276051    4.123350
     25          6           0       -0.724458    6.424091    2.461312
     26          7           0       -3.861909    2.896615   -0.752081
     27          6           0       -3.558281    4.156312   -0.263763
     28          6           0       -3.970790    5.291380   -1.226657
     29          6           0       -4.563544    4.397422   -2.391847
     30          6           0       -4.505718    3.019463   -1.901034
     31          6           0       -4.921457    6.346284   -0.755646
     32          6           0       -3.720193    4.510158   -3.760963
     33          6           0       -4.631729    4.696090   -4.945874
     34          7           0       -4.848323    0.242362   -0.861674
     35          6           0       -5.359737    0.651165   -2.079392
     36          6           0       -5.961517   -0.502596   -2.786152
     37          6           0       -5.616909   -1.612107   -1.938193
     38          6           0       -4.954450   -1.090554   -0.820862
     39          6           0       -6.500325   -0.611917   -4.154576
     40          6           0       -5.610995   -3.079727   -1.759803
     41          8           0       -5.987649   -3.945145   -2.515825
     42          6           0       -4.889514   -3.420977   -0.416356
     43          6           0       -5.770776   -4.206672    0.448267
     44          8           0       -5.636303   -5.348971    0.887680
     45          8           0       -7.015605   -3.525675    0.491388
     46          6           0       -8.040293   -4.131688    1.368356
     47          6           0        2.343010   -4.310444   -0.045415
     48          6           0        3.428581   -3.596276   -0.767436
     49          6           0        3.316582   -3.298771   -2.079711
     50          6           0        2.136517   -3.577135   -3.007380
     51          6           0        4.399968   -2.515963   -2.755700
     52          6           0        4.354968   -0.956100   -2.377857
     53          6           0        4.895097   -0.094236   -3.556003
     54          6           0        6.044629    0.867599   -3.059820
     55          6           0        5.805630    2.312196   -3.466126
     56          6           0        7.483666    0.400604   -3.382807
     57          6           0        8.417124    0.361991   -2.130202
     58          6           0        8.414247   -0.932565   -1.365538
     59          6           0        8.320124   -0.799716    0.140439
     60          6           0        6.950765   -1.372432    0.686175
     61          6           0        9.536929   -1.627981    0.850573
     62          6           0       10.065919   -0.794986    2.109462
     63          6           0       11.440633   -0.041239    1.933732
     64          6           0       11.313668    1.158775    0.953159
     65          6           0       11.837681    0.712896   -0.402595
     66          6           0       11.959457    2.485117    1.447222
     67          1           0       -1.664648    0.218711    4.427935
     68          1           0       -2.550235    5.501254    0.930678
     69          1           0       -5.689833    2.301277   -3.435331
     70          1           0       -4.089447   -3.456886    2.567796
     71          1           0       -1.799525   -2.339964    3.718178
     72          1           0       -4.391853   -2.642937    4.992792
     73          1           0       -4.096990   -0.975503    5.108797
     74          1           0       -2.921488   -2.253497    5.699575
     75          1           0       -2.652767   -4.825862    1.450980
     76          1           0       -1.633992   -4.255400    2.688594
     77          1           0       -1.081409   -2.367214    0.674035
     78          1           0       -1.375784   -3.823392   -0.241744
     79          1           0        0.701766    2.919365    5.118275
     80          1           0       -0.038742    1.379488    5.038583
     81          1           0       -0.967306    2.822339    5.723861
     82          1           0       -1.729183    6.712532    2.768790
     83          1           0       -0.656759    6.219962    1.392277
     84          1           0       -0.010632    7.192706    2.757459
     85          1           0       -3.056164    5.699462   -1.657441
     86          1           0       -5.620160    4.664478   -2.374383
     87          1           0       -5.219954    6.895284   -1.648881
     88          1           0       -4.341847    7.055752   -0.165015
     89          1           0       -5.743766    5.898004   -0.196755
     90          1           0       -3.114926    3.605845   -3.822629
     91          1           0       -2.930245    5.261401   -3.797250
     92          1           0       -4.593194    3.784469   -5.541682
     93          1           0       -4.227772    5.400185   -5.674074
     94          1           0       -5.662770    4.794046   -4.606695
     95          1           0       -6.503151    0.309010   -4.739553
     96          1           0       -7.546189   -0.894598   -4.039890
     97          1           0       -5.739915   -1.244764   -4.611718
     98          1           0       -4.013147   -3.994568   -0.717230
     99          1           0       -8.428017   -3.259189    1.895450
    100          1           0       -7.772661   -4.884670    2.109686
    101          1           0       -8.855296   -4.388387    0.691362
    102          1           0        2.152579   -5.215669   -0.620878
    103          1           0        2.741582   -4.577147    0.933741
    104          1           0        4.380565   -3.456554   -0.254209
    105          1           0        2.423449   -4.251330   -3.813370
    106          1           0        1.914281   -2.597062   -3.428756
    107          1           0        1.263471   -3.955994   -2.476642
    108          1           0        4.530491   -2.639126   -3.830691
    109          1           0        5.365764   -2.789974   -2.330902
    110          1           0        5.072013   -0.912848   -1.558703
    111          1           0        3.347831   -0.722910   -2.033944
    112          1           0        4.035843    0.448408   -3.948931
    113          1           0        5.193201   -0.609507   -4.468878
    114          1           0        6.054334    0.946465   -1.972707
    115          1           0        5.386946    2.412612   -4.466966
    116          1           0        6.720281    2.883482   -3.308180
    117          1           0        5.016133    2.710964   -2.828835
    118          1           0        7.955490    1.139064   -4.030222
    119          1           0        7.451905   -0.541792   -3.929590
    120          1           0        8.113181    1.100419   -1.387998
    121          1           0        9.438308    0.510702   -2.479540
    122          1           0        9.294203   -1.480655   -1.700292
    123          1           0        7.599982   -1.564653   -1.719595
    124          1           0        8.353090    0.239021    0.470340
    125          1           0        6.975971   -1.864942    1.657883
    126          1           0        6.577534   -2.081671   -0.053673
    127          1           0        6.195336   -0.595727    0.804775
    128          1           0       10.367716   -2.034764    0.273902
    129          1           0        9.113754   -2.501765    1.346828
    130          1           0       10.176780   -1.439488    2.982277
    131          1           0        9.382143    0.011732    2.373063
    132          1           0       12.048105   -0.871014    1.573825
    133          1           0       11.812866    0.277202    2.907903
    134          1           0       10.284620    1.511739    0.883067
    135          1           0       12.530684   -0.125940   -0.347004
    136          1           0       12.401659    1.549094   -0.817478
    137          1           0       11.083023    0.421386   -1.133873
    138          1           0       11.250266    3.312560    1.459381
    139          1           0       12.698715    2.970639    0.810366
    140          1           0       12.441131    2.427098    2.423069
 ---------------------------------------------------------------------

 SCF Done:  E(RCAM-B3LYP) =  -3007.15844327     A.U. after   19 cycles

 Excitation energies and oscillator strengths:

 Excited State   1:      Singlet-A      1.7166 eV  722.25 nm  f=0.3596  <S**2>=0.000
     245 -> 248        0.18129
     246 -> 247        0.68375
     245 <- 248        0.10494
 This state for optimization and/or second-order correction.
 Total Energy, E(TD-HF/TD-DFT) =  -3007.09535819
 Copying the excited state density for this state as the 1-particle RhoCI density.

 Excited State   2:      Singlet-A      2.2047 eV  562.35 nm  f=0.0847  <S**2>=0.000
     245 -> 247        0.62978
     246 -> 248       -0.30477

 Excited State   3:      Singlet-A      3.3985 eV  364.82 nm  f=0.0200  <S**2>=0.000
     242 -> 247       -0.21645
     243 -> 247        0.64247
     246 -> 248        0.14150

 Excited State   4:      Singlet-A      3.4154 eV  363.02 nm  f=0.3298  <S**2>=0.000
     242 -> 247        0.39049
     245 -> 247        0.21605
     246 -> 248        0.53076

 Excited State   5:      Singlet-A      3.5750 eV  346.81 nm  f=0.3769  <S**2>=0.000
     242 -> 247        0.52409
     243 -> 247        0.25822
     245 -> 247       -0.22215
     246 -> 248       -0.30442

 The electronic state is 1-A.
 Alpha  occ. eigenvalues --  -46.89185 -19.25051 -19.24374 -19.20570 -19.19969
 Alpha  occ. eigenvalues --  -19.19083 -19.18909 -14.42319 -14.42286 -14.39716
 Alpha  occ. eigenvalues --  -14.39266 -10.39772 -10.39495 -10.35208 -10.35166
 Alpha  occ. eigenvalues --  -10.31702 -10.31307 -10.31250 -10.30755 -10.30699
 Alpha  occ. eigenvalues --  -10.30604 -10.30267 -10.30154 -10.29427 -10.29042
 Alpha  occ. eigenvalues --  -10.28757 -10.28521 -10.28489 -10.28458 -10.28224
 Alpha  occ. eigenvalues --  -10.28212 -10.28149 -10.27748 -10.27584 -10.27366
 Alpha  occ. eigenvalues --  -10.27247 -10.27214 -10.27055 -10.27031 -10.26809
 Alpha  occ. eigenvalues --  -10.26774 -10.26695 -10.26341 -10.26300 -10.26112
 Alpha  occ. eigenvalues --  -10.26082 -10.25984 -10.25835 -10.25573 -10.25546
 Alpha  occ. eigenvalues --  -10.25466 -10.25380 -10.25239 -10.25231 -10.25111
 Alpha  occ. eigenvalues --  -10.25030 -10.24663 -10.24656 -10.24633 -10.24546
 Alpha  occ. eigenvalues --  -10.24541 -10.24426 -10.24098 -10.24048 -10.23927
 Alpha  occ. eigenvalues --  -10.23786  -3.17710  -1.92594  -1.92181  -1.92003
 Alpha  occ. eigenvalues --   -1.15839  -1.14851  -1.10450  -1.09431  -1.06931
 Alpha  occ. eigenvalues --   -1.06851  -1.05150  -1.03798  -1.03262  -1.02419
 Alpha  occ. eigenvalues --   -0.92554  -0.90206  -0.89732  -0.89516  -0.89296
 Alpha  occ. eigenvalues --   -0.88555  -0.88192  -0.87816  -0.86980  -0.86951
 Alpha  occ. eigenvalues --   -0.86246  -0.85427  -0.84673  -0.84316  -0.83439
 Alpha  occ. eigenvalues --   -0.82780  -0.82272  -0.81332  -0.80657  -0.80247
 Alpha  occ. eigenvalues --   -0.79512  -0.78395  -0.78185  -0.77399  -0.76311
 Alpha  occ. eigenvalues --   -0.75862  -0.75482  -0.75328  -0.74700  -0.73882
 Alpha  occ. eigenvalues --   -0.73239  -0.72649  -0.71877  -0.70109  -0.69450
 Alpha  occ. eigenvalues --   -0.68404  -0.67999  -0.67127  -0.66495  -0.66110
 Alpha  occ. eigenvalues --   -0.65165  -0.64998  -0.64803  -0.64376  -0.64155
 Alpha  occ. eigenvalues --   -0.63130  -0.63042  -0.62673  -0.62603  -0.60349
 Alpha  occ. eigenvalues --   -0.59455  -0.59021  -0.58749  -0.58493  -0.57957
 Alpha  occ. eigenvalues --   -0.57530  -0.57247  -0.56384  -0.56153  -0.55839
 Alpha  occ. eigenvalues --   -0.55384  -0.55185  -0.54968  -0.53979  -0.53877
 Alpha  occ. eigenvalues --   -0.53699  -0.53033  -0.52825  -0.52755  -0.52637
 Alpha  occ. eigenvalues --   -0.52524  -0.52292  -0.52147  -0.52036  -0.51679
 Alpha  occ. eigenvalues --   -0.51514  -0.51157  -0.50932  -0.50903  -0.50743
 Alpha  occ. eigenvalues --   -0.50482  -0.50323  -0.49935  -0.49669  -0.49494
 Alpha  occ. eigenvalues --   -0.49360  -0.49219  -0.48992  -0.48684  -0.48603
 Alpha  occ. eigenvalues --   -0.48393  -0.48332  -0.48222  -0.48183  -0.47615
 Alpha  occ. eigenvalues --   -0.47515  -0.47318  -0.46984  -0.46660  -0.46566
 Alpha  occ. eigenvalues --   -0.46529  -0.46124  -0.46044  -0.45710  -0.45661
 Alpha  occ. eigenvalues --   -0.45333  -0.45204  -0.45071  -0.44941  -0.44892
 Alpha  occ. eigenvalues --   -0.44809  -0.44695  -0.44444  -0.44300  -0.43951
 Alpha  occ. eigenvalues --   -0.43867  -0.43567  -0.43330  -0.43278  -0.43108
 Alpha  occ. eigenvalues --   -0.43017  -0.42599  -0.42540  -0.42502  -0.42091
 Alpha  occ. eigenvalues --   -0.41995  -0.41904  -0.41780  -0.41532  -0.41388
 Alpha  occ. eigenvalues --   -0.40857  -0.40541  -0.40432  -0.40256  -0.40035
 Alpha  occ. eigenvalues --   -0.39777  -0.39397  -0.39274  -0.39070  -0.38401
 Alpha  occ. eigenvalues --   -0.38284  -0.38192  -0.37818  -0.37785  -0.37647
 Alpha  occ. eigenvalues --   -0.37163  -0.36985  -0.36640  -0.36458  -0.35965
 Alpha  occ. eigenvalues --   -0.35684  -0.35506  -0.35254  -0.34852  -0.34615
 Alpha  occ. eigenvalues --   -0.34208  -0.33943  -0.33394  -0.31338  -0.31263
 Alpha  occ. eigenvalues --   -0.30900  -0.30027  -0.29738  -0.29238  -0.24181
 Alpha  occ. eigenvalues --   -0.21287
 Alpha virt. eigenvalues --   -0.08744  -0.02317   0.00564   0.01655   0.02445
 Alpha virt. eigenvalues --    0.04000   0.04450   0.04910   0.05077   0.06714
 Alpha virt. eigenvalues --    0.07475   0.08301   0.08664   0.08770   0.09157

 Mulliken charges:
               1
     1  Mg   0.820233
     2  C   -0.029179
     3  C   -0.097047
     4  C   -0.086964
     5  C   -0.094224
     6  N   -0.284038
     7  C   -0.023535
     8  C   -0.040439
     9  C    0.003817
    10  C   -0.004450
    11  C    0.064036
    12  C    0.039108
    13  C    0.024723
    14  C    0.187624
    15  O   -0.256069
    16  O   -0.327993
    17  N   -0.359743
    18  C    0.167150
    19  C   -0.136430
    20  C   -0.064218
    21  C    0.185000
    22  C    0.126624
    23  C    0.000338
    24  O   -0.204254
    25  C    0.054762
    26  N   -0.295351
    27  C   -0.001499
    28  C   -0.034072
    29  C   -0.063379
    30  C    0.012198
    31  C    0.107183
    32  C    0.036599
    33  C    0.030493
    34  N   -0.342533
    35  C    0.151312
    36  C   -0.189704
    37  C   -0.005171
    38  C    0.088272
    39  C    0.130749
    40  C    0.030208
    41  O   -0.149053
    42  C    0.028254
    43  C    0.222710
    44  O   -0.207020
    45  O   -0.379926
    46  C    0.180043
    47  C    0.277283
    48  C   -0.143789
    49  C   -0.148592
    50  C    0.103144
    51  C    0.031783
    52  C    0.015441
    53  C    0.062547
    54  C   -0.137917
    55  C    0.050180
    56  C    0.073757
    57  C   -0.023463
    58  C    0.085544
    59  C   -0.136890
    60  C    0.032612
    61  C    0.051296
    62  C   -0.036860
    63  C    0.054118
    64  C   -0.122895
    65  C    0.065219
    66  C    0.023380
    67  H   -0.028189
    68  H   -0.042149
    69  H   -0.043933
    70  H    0.009008
    71  H    0.008620
    72  H    0.011820
    73  H    0.026090
    74  H    0.024408
    75  H    0.028597
    76  H    0.025686
    77  H    0.052261
    78  H    0.043075
    79  H    0.035917
    80  H    0.017229
    81  H    0.041437
    82  H    0.048894
    83  H    0.044789
    84  H    0.024407
    85  H    0.004619
    86  H    0.008241
    87  H    0.019857
    88  H    0.014599
    89  H    0.025273
    90  H    0.015167
    91  H    0.007020
    92  H    0.005615
    93  H    0.014943
    94  H    0.023579
    95  H   -0.003568
    96  H    0.043987
    97  H    0.052688
    98  H    0.035975
    99  H    0.019054
   100  H    0.059397
   101  H    0.038413
   102  H    0.023616
   103  H    0.032143
   104  H   -0.004816
   105  H    0.027659
   106  H    0.016189
   107  H    0.017229
   108  H   -0.004263
   109  H   -0.004414
   110  H    0.000342
   111  H    0.020070
   112  H   -0.015347
   113  H   -0.003038
   114  H   -0.004198
   115  H    0.004305
   116  H    0.007265
   117  H    0.000276
   118  H   -0.017616
   119  H   -0.009031
   120  H   -0.001874
   121  H    0.015093
   122  H   -0.008398
   123  H   -0.022991
   124  H    0.017019
   125  H    0.011414
   126  H    0.013767
   127  H    0.016881
   128  H    0.000267
   129  H   -0.007157
   130  H   -0.005361
   131  H   -0.004809
   132  H   -0.003191
   133  H   -0.006425
   134  H    0.000432
   135  H    0.002904
   136  H   -0.005557
   137  H   -0.002582
   138  H   -0.000831
   139  H   -0.005462
   140  H    0.006624
 Sum of Mulliken charges =  -0.00000

 Dipole moment (field-independent basis, Debye):
    X=             -2.1703    Y=              6.0259    Z=             -1.4557  Tot=              6.5682
 Quadrupole moment (field-independent basis, Debye-Ang):
   XX=           -390.2215   YY=           -424.8652   ZZ=           -398.0834
   XY=            -42.1564   XZ=            -22.7429   YZ=            -23.6262

 Normal termination of Gaussian 16 at Thu May  5 00:08:51 2022.
