 Gaussian 16, Revision A.03,
 Gaussian 16:  ES64L-G16RevA.03 25-Dec-2016

 ---------------------------------
 #p PBE1PBE/Def2SVP td=(nstates=5)
 ---------------------------------

 -----------------------------------------------------
 step_501_chromophore_26 TDDFT with PBE1PBE functional
 -----------------------------------------------------
 Symbolic Z-matrix:
 Charge =  0 Multiplicity = 1

                         Standard orientation:
 ---------------------------------------------------------------------
 Center     Atomic      Atomic             Coordinates (Angstroms)
 Number     Number       Type             X           Y           Z
 ---------------------------------------------------------------------
      1         12           0       -3.812531    1.323223    0.587856
      2          6           0       -4.432344   -2.066862    0.122489
      3          6           0       -2.000493    0.490109    3.424424
      4          6           0       -2.691323    4.421716    0.847548
      5          6           0       -5.209386    1.977014   -2.510512
      6          7           0       -3.141735   -0.560319    1.558732
      7          6           0       -3.633014   -1.817816    1.273708
      8          6           0       -3.231389   -2.844362    2.291159
      9          6           0       -2.787317   -1.926142    3.513847
     10          6           0       -2.583309   -0.588045    2.815898
     11          6           0       -3.585189   -1.915573    4.903230
     12          6           0       -2.156704   -3.918325    1.793498
     13          6           0       -1.100756   -3.455080    0.746207
     14          6           0        0.294733   -3.972049    1.001070
     15          8           0        0.603375   -4.857598    1.828017
     16          8           0        1.138121   -3.489627    0.019869
     17          7           0       -2.424868    2.310185    1.880845
     18          6           0       -1.792389    1.780498    3.012490
     19          6           0       -0.911543    2.739007    3.621597
     20          6           0       -1.074454    3.922410    2.862584
     21          6           0       -2.064185    3.610884    1.788648
     22          6           0       -0.268922    2.442839    4.977605
     23          6           0       -0.329450    5.228370    3.221148
     24          8           0        0.512880    5.276051    4.123350
     25          6           0       -0.724458    6.424091    2.461312
     26          7           0       -3.861909    2.896615   -0.752081
     27          6           0       -3.558281    4.156312   -0.263763
     28          6           0       -3.970790    5.291380   -1.226657
     29          6           0       -4.563544    4.397422   -2.391847
     30          6           0       -4.505718    3.019463   -1.901034
     31          6           0       -4.921457    6.346284   -0.755646
     32          6           0       -3.720193    4.510158   -3.760963
     33          6           0       -4.631729    4.696090   -4.945874
     34          7           0       -4.848323    0.242362   -0.861674
     35          6           0       -5.359737    0.651165   -2.079392
     36          6           0       -5.961517   -0.502596   -2.786152
     37          6           0       -5.616909   -1.612107   -1.938193
     38          6           0       -4.954450   -1.090554   -0.820862
     39          6           0       -6.500325   -0.611917   -4.154576
     40          6           0       -5.610995   -3.079727   -1.759803
     41          8           0       -5.987649   -3.945145   -2.515825
     42          6           0       -4.889514   -3.420977   -0.416356
     43          6           0       -5.770776   -4.206672    0.448267
     44          8           0       -5.636303   -5.348971    0.887680
     45          8           0       -7.015605   -3.525675    0.491388
     46          6           0       -8.040293   -4.131688    1.368356
     47          6           0        2.343010   -4.310444   -0.045415
     48          6           0        3.428581   -3.596276   -0.767436
     49          6           0        3.316582   -3.298771   -2.079711
     50          6           0        2.136517   -3.577135   -3.007380
     51          6           0        4.399968   -2.515963   -2.755700
     52          6           0        4.354968   -0.956100   -2.377857
     53          6           0        4.895097   -0.094236   -3.556003
     54          6           0        6.044629    0.867599   -3.059820
     55          6           0        5.805630    2.312196   -3.466126
     56          6           0        7.483666    0.400604   -3.382807
     57          6           0        8.417124    0.361991   -2.130202
     58          6           0        8.414247   -0.932565   -1.365538
     59          6           0        8.320124   -0.799716    0.140439
     60          6           0        6.950765   -1.372432    0.686175
     61          6           0        9.536929   -1.627981    0.850573
     62          6           0       10.065919   -0.794986    2.109462
     63          6           0       11.440633   -0.041239    1.933732
     64          6           0       11.313668    1.158775    0.953159
     65          6           0       11.837681    0.712896   -0.402595
     66          6           0       11.959457    2.485117    1.447222
     67          1           0       -1.664648    0.218711    4.427935
     68          1           0       -2.550235    5.501254    0.930678
     69          1           0       -5.689833    2.301277   -3.435331
     70          1           0       -4.089447   -3.456886    2.567796
     71          1           0       -1.799525   -2.339964    3.718178
     72          1           0       -4.391853   -2.642937    4.992792
     73          1           0       -4.096990   -0.975503    5.108797
     74          1           0       -2.921488   -2.253497    5.699575
     75          1           0       -2.652767   -4.825862    1.450980
     76          1           0       -1.633992   -4.255400    2.688594
     77          1           0       -1.081409   -2.367214    0.674035
     78          1           0       -1.375784   -3.823392   -0.241744
     79          1           0        0.701766    2.919365    5.118275
     80          1           0       -0.038742    1.379488    5.038583
     81          1           0       -0.967306    2.822339    5.723861
     82          1           0       -1.729183    6.712532    2.768790
     83          1           0       -0.656759    6.219962    1.392277
     84          1           0       -0.010632    7.192706    2.757459
     85          1           0       -3.056164    5.699462   -1.657441
     86          1           0       -5.620160    4.664478   -2.374383
     87          1           0       -5.219954    6.895284   -1.648881
     88          1           0       -4.341847    7.055752   -0.165015
     89          1           0       -5.743766    5.898004   -0.196755
     90          1           0       -3.114926    3.605845   -3.822629
     91          1           0       -2.930245    5.261401   -3.797250
     92          1           0       -4.593194    3.784469   -5.541682
     93          1           0       -4.227772    5.400185   -5.674074
     94          1           0       -5.662770    4.794046   -4.606695
     95          1           0       -6.503151    0.309010   -4.739553
     96          1           0       -7.546189   -0.894598   -4.039890
     97          1           0       -5.739915   -1.244764   -4.611718
     98          1           0       -4.013147   -3.994568   -0.717230
     99          1           0       -8.428017   -3.259189    1.895450
    100          1           0       -7.772661   -4.884670    2.109686
    101          1           0       -8.855296   -4.388387    0.691362
    102          1           0        2.152579   -5.215669   -0.620878
    103          1           0        2.741582   -4.577147    0.933741
    104          1           0        4.380565   -3.456554   -0.254209
    105          1           0        2.423449   -4.251330   -3.813370
    106          1           0        1.914281   -2.597062   -3.428756
    107          1           0        1.263471   -3.955994   -2.476642
    108          1           0        4.530491   -2.639126   -3.830691
    109          1           0        5.365764   -2.789974   -2.330902
    110          1           0        5.072013   -0.912848   -1.558703
    111          1           0        3.347831   -0.722910   -2.033944
    112          1           0        4.035843    0.448408   -3.948931
    113          1           0        5.193201   -0.609507   -4.468878
    114          1           0        6.054334    0.946465   -1.972707
    115          1           0        5.386946    2.412612   -4.466966
    116          1           0        6.720281    2.883482   -3.308180
    117          1           0        5.016133    2.710964   -2.828835
    118          1           0        7.955490    1.139064   -4.030222
    119          1           0        7.451905   -0.541792   -3.929590
    120          1           0        8.113181    1.100419   -1.387998
    121          1           0        9.438308    0.510702   -2.479540
    122          1           0        9.294203   -1.480655   -1.700292
    123          1           0        7.599982   -1.564653   -1.719595
    124          1           0        8.353090    0.239021    0.470340
    125          1           0        6.975971   -1.864942    1.657883
    126          1           0        6.577534   -2.081671   -0.053673
    127          1           0        6.195336   -0.595727    0.804775
    128          1           0       10.367716   -2.034764    0.273902
    129          1           0        9.113754   -2.501765    1.346828
    130          1           0       10.176780   -1.439488    2.982277
    131          1           0        9.382143    0.011732    2.373063
    132          1           0       12.048105   -0.871014    1.573825
    133          1           0       11.812866    0.277202    2.907903
    134          1           0       10.284620    1.511739    0.883067
    135          1           0       12.530684   -0.125940   -0.347004
    136          1           0       12.401659    1.549094   -0.817478
    137          1           0       11.083023    0.421386   -1.133873
    138          1           0       11.250266    3.312560    1.459381
    139          1           0       12.698715    2.970639    0.810366
    140          1           0       12.441131    2.427098    2.423069
 ---------------------------------------------------------------------

 SCF Done:  E(RPBE1PBE) =  -3005.34790449     A.U. after   15 cycles

 Excitation energies and oscillator strengths:

 Excited State   1:      Singlet-A      1.8698 eV  663.09 nm  f=0.3472  <S**2>=0.000
     245 -> 248        0.17623
     246 -> 247        0.69018
     246 <- 247       -0.10412
 This state for optimization and/or second-order correction.
 Total Energy, E(TD-HF/TD-DFT) =  -3005.27919085
 Copying the excited state density for this state as the 1-particle RhoCI density.

 Excited State   2:      Singlet-A      2.2143 eV  559.92 nm  f=0.0860  <S**2>=0.000
     245 -> 247        0.64359
     246 -> 248       -0.27351

 Excited State   3:      Singlet-A      3.0545 eV  405.90 nm  f=0.0018  <S**2>=0.000
     241 -> 247       -0.33378
     243 -> 247        0.60371

 Excited State   4:      Singlet-A      3.0783 eV  402.76 nm  f=0.0004  <S**2>=0.000
     241 -> 247        0.57074
     241 -> 249       -0.12107
     242 -> 247       -0.19296
     243 -> 247        0.32786

 Excited State   5:      Singlet-A      3.1506 eV  393.53 nm  f=0.0011  <S**2>=0.000
     240 -> 247        0.58422
     240 -> 248        0.11693
     240 -> 249        0.12928
     242 -> 247       -0.28947
     246 -> 248       -0.10901

 The electronic state is 1-A.
 Alpha  occ. eigenvalues --  -46.92566 -19.25706 -19.25041 -19.20784 -19.20276
 Alpha  occ. eigenvalues --  -19.19223 -19.19189 -14.41827 -14.41753 -14.39306
 Alpha  occ. eigenvalues --  -14.38960 -10.36772 -10.36523 -10.32434 -10.32222
 Alpha  occ. eigenvalues --  -10.29397 -10.29024 -10.28528 -10.28319 -10.28315
 Alpha  occ. eigenvalues --  -10.28021 -10.27979 -10.27970 -10.26985 -10.26794
 Alpha  occ. eigenvalues --  -10.26540 -10.26363 -10.26312 -10.26095 -10.26038
 Alpha  occ. eigenvalues --  -10.25942 -10.25786 -10.25637 -10.25061 -10.25005
 Alpha  occ. eigenvalues --  -10.24930 -10.24828 -10.24518 -10.24479 -10.24443
 Alpha  occ. eigenvalues --  -10.24432 -10.24340 -10.24080 -10.23772 -10.23669
 Alpha  occ. eigenvalues --  -10.23354 -10.23324 -10.23293 -10.23286 -10.23203
 Alpha  occ. eigenvalues --  -10.22965 -10.22952 -10.22939 -10.22853 -10.22703
 Alpha  occ. eigenvalues --  -10.22606 -10.22232 -10.22180 -10.22109 -10.22093
 Alpha  occ. eigenvalues --  -10.22075 -10.21992 -10.21470 -10.21461 -10.21443
 Alpha  occ. eigenvalues --  -10.21147  -3.14672  -1.87496  -1.87062  -1.86887
 Alpha  occ. eigenvalues --   -1.10624  -1.09567  -1.05268  -1.04075  -1.01748
 Alpha  occ. eigenvalues --   -1.01685  -0.99758  -0.98432  -0.97913  -0.97031
 Alpha  occ. eigenvalues --   -0.86907  -0.84313  -0.84025  -0.83631  -0.83576
 Alpha  occ. eigenvalues --   -0.82767  -0.82284  -0.82120  -0.81330  -0.81088
 Alpha  occ. eigenvalues --   -0.80487  -0.79621  -0.78953  -0.78540  -0.77582
 Alpha  occ. eigenvalues --   -0.77007  -0.76426  -0.75623  -0.74966  -0.74466
 Alpha  occ. eigenvalues --   -0.73673  -0.72760  -0.72448  -0.71635  -0.70595
 Alpha  occ. eigenvalues --   -0.70209  -0.69639  -0.69399  -0.68836  -0.68029
 Alpha  occ. eigenvalues --   -0.67610  -0.67076  -0.66302  -0.64409  -0.63766
 Alpha  occ. eigenvalues --   -0.62874  -0.62230  -0.61538  -0.60940  -0.60328
 Alpha  occ. eigenvalues --   -0.59448  -0.59383  -0.59319  -0.58943  -0.58250
 Alpha  occ. eigenvalues --   -0.57629  -0.57266  -0.57127  -0.56844  -0.54859
 Alpha  occ. eigenvalues --   -0.54046  -0.53613  -0.53120  -0.53059  -0.52407
 Alpha  occ. eigenvalues --   -0.52052  -0.51752  -0.50941  -0.50522  -0.50365
 Alpha  occ. eigenvalues --   -0.49919  -0.49677  -0.49474  -0.48521  -0.48400
 Alpha  occ. eigenvalues --   -0.48129  -0.47685  -0.47362  -0.47219  -0.47057
 Alpha  occ. eigenvalues --   -0.46926  -0.46815  -0.46686  -0.46528  -0.46226
 Alpha  occ. eigenvalues --   -0.46094  -0.45748  -0.45440  -0.45430  -0.45302
 Alpha  occ. eigenvalues --   -0.44982  -0.44821  -0.44475  -0.44345  -0.44098
 Alpha  occ. eigenvalues --   -0.43962  -0.43818  -0.43521  -0.43281  -0.43207
 Alpha  occ. eigenvalues --   -0.43013  -0.42949  -0.42835  -0.42740  -0.42160
 Alpha  occ. eigenvalues --   -0.42147  -0.41952  -0.41704  -0.41364  -0.41278
 Alpha  occ. eigenvalues --   -0.41153  -0.40812  -0.40717  -0.40461  -0.40287
 Alpha  occ. eigenvalues --   -0.40122  -0.39967  -0.39878  -0.39681  -0.39617
 Alpha  occ. eigenvalues --   -0.39513  -0.39330  -0.39203  -0.38973  -0.38677
 Alpha  occ. eigenvalues --   -0.38564  -0.38396  -0.38135  -0.37987  -0.37900
 Alpha  occ. eigenvalues --   -0.37764  -0.37440  -0.37344  -0.37278  -0.36912
 Alpha  occ. eigenvalues --   -0.36865  -0.36702  -0.36637  -0.36285  -0.36251
 Alpha  occ. eigenvalues --   -0.35783  -0.35405  -0.35181  -0.35061  -0.34904
 Alpha  occ. eigenvalues --   -0.34534  -0.34211  -0.34015  -0.33984  -0.33281
 Alpha  occ. eigenvalues --   -0.33138  -0.32978  -0.32814  -0.32550  -0.32412
 Alpha  occ. eigenvalues --   -0.32208  -0.32038  -0.31537  -0.31327  -0.30842
 Alpha  occ. eigenvalues --   -0.30585  -0.30412  -0.30401  -0.29753  -0.29525
 Alpha  occ. eigenvalues --   -0.29034  -0.28923  -0.28875  -0.26970  -0.25936
 Alpha  occ. eigenvalues --   -0.25831  -0.25595  -0.25413  -0.24554  -0.21077
 Alpha  occ. eigenvalues --   -0.18933
 Alpha virt. eigenvalues --   -0.11232  -0.05776  -0.03595  -0.02032  -0.01155
 Alpha virt. eigenvalues --   -0.00589  -0.00129   0.00597   0.00774   0.02791
 Alpha virt. eigenvalues --    0.03617   0.04443   0.05124   0.05353   0.05780

 Mulliken charges:
               1
     1  Mg   0.966849
     2  C   -0.037839
     3  C   -0.095363
     4  C   -0.092487
     5  C   -0.079825
     6  N   -0.383453
     7  C    0.039237
     8  C   -0.098915
     9  C   -0.073748
    10  C    0.033630
    11  C    0.004260
    12  C   -0.009583
    13  C   -0.055155
    14  C    0.251304
    15  O   -0.286855
    16  O   -0.354922
    17  N   -0.468985
    18  C    0.186105
    19  C   -0.150632
    20  C   -0.110360
    21  C    0.210485
    22  C    0.065862
    23  C    0.055293
    24  O   -0.242139
    25  C   -0.022621
    26  N   -0.402658
    27  C    0.039009
    28  C   -0.110010
    29  C   -0.149792
    30  C    0.055328
    31  C    0.042197
    32  C   -0.015145
    33  C   -0.044761
    34  N   -0.469094
    35  C    0.168254
    36  C   -0.204374
    37  C   -0.054258
    38  C    0.147107
    39  C    0.073581
    40  C    0.133341
    41  O   -0.195016
    42  C   -0.087598
    43  C    0.307548
    44  O   -0.245701
    45  O   -0.405653
    46  C    0.125863
    47  C    0.226967
    48  C   -0.156229
    49  C   -0.187556
    50  C    0.037947
    51  C   -0.035813
    52  C   -0.054438
    53  C    0.014210
    54  C   -0.224675
    55  C   -0.012146
    56  C    0.022528
    57  C   -0.096032
    58  C    0.035176
    59  C   -0.224702
    60  C   -0.029041
    61  C    0.000596
    62  C   -0.101027
    63  C   -0.002192
    64  C   -0.219008
    65  C   -0.000105
    66  C   -0.030180
    67  H    0.003407
    68  H   -0.007790
    69  H   -0.008603
    70  H    0.049757
    71  H    0.047803
    72  H    0.038917
    73  H    0.052929
    74  H    0.050755
    75  H    0.059749
    76  H    0.057397
    77  H    0.086198
    78  H    0.075540
    79  H    0.063253
    80  H    0.042919
    81  H    0.069348
    82  H    0.075624
    83  H    0.070715
    84  H    0.052444
    85  H    0.042583
    86  H    0.045824
    87  H    0.049113
    88  H    0.043077
    89  H    0.052907
    90  H    0.047730
    91  H    0.037989
    92  H    0.033617
    93  H    0.043181
    94  H    0.050235
    95  H    0.024824
    96  H    0.071742
    97  H    0.079649
    98  H    0.075158
    99  H    0.041978
   100  H    0.079270
   101  H    0.060602
   102  H    0.051900
   103  H    0.058865
   104  H    0.028335
   105  H    0.055613
   106  H    0.044988
   107  H    0.045296
   108  H    0.026952
   109  H    0.032768
   110  H    0.042256
   111  H    0.051891
   112  H    0.017825
   113  H    0.026770
   114  H    0.035117
   115  H    0.032327
   116  H    0.035056
   117  H    0.029467
   118  H    0.016051
   119  H    0.022577
   120  H    0.030671
   121  H    0.047193
   122  H    0.023542
   123  H    0.014967
   124  H    0.052165
   125  H    0.038832
   126  H    0.042103
   127  H    0.043615
   128  H    0.029457
   129  H    0.026219
   130  H    0.027315
   131  H    0.029205
   132  H    0.029817
   133  H    0.025639
   134  H    0.038464
   135  H    0.029251
   136  H    0.022062
   137  H    0.033286
   138  H    0.025910
   139  H    0.020870
   140  H    0.032932
 Sum of Mulliken charges =  -0.00000

 Dipole moment (field-independent basis, Debye):
    X=             -2.2885    Y=              6.0209    Z=             -1.6350  Tot=              6.6454
 Quadrupole moment (field-independent basis, Debye-Ang):
   XX=           -386.5428   YY=           -421.7773   ZZ=           -393.8951
   XY=            -42.5494   XZ=            -21.8762   YZ=            -24.8889

 Normal termination of Gaussian 16 at Thu May  5 00:50:38 2022.
