 Gaussian 16, Revision A.03,
 Gaussian 16:  ES64L-G16RevA.03 25-Dec-2016

 --------------------------------
 #p wB97XD/Def2SVP td=(nstates=5)
 --------------------------------

 ----------------------------------------------------
 step_501_chromophore_26 TDDFT with wB97XD functional
 ----------------------------------------------------
 Symbolic Z-matrix:
 Charge =  0 Multiplicity = 1

                         Standard orientation:
 ---------------------------------------------------------------------
 Center     Atomic      Atomic             Coordinates (Angstroms)
 Number     Number       Type             X           Y           Z
 ---------------------------------------------------------------------
      1         12           0       -3.812531    1.323223    0.587856
      2          6           0       -4.432344   -2.066862    0.122489
      3          6           0       -2.000493    0.490109    3.424424
      4          6           0       -2.691323    4.421716    0.847548
      5          6           0       -5.209386    1.977014   -2.510512
      6          7           0       -3.141735   -0.560319    1.558732
      7          6           0       -3.633014   -1.817816    1.273708
      8          6           0       -3.231389   -2.844362    2.291159
      9          6           0       -2.787317   -1.926142    3.513847
     10          6           0       -2.583309   -0.588045    2.815898
     11          6           0       -3.585189   -1.915573    4.903230
     12          6           0       -2.156704   -3.918325    1.793498
     13          6           0       -1.100756   -3.455080    0.746207
     14          6           0        0.294733   -3.972049    1.001070
     15          8           0        0.603375   -4.857598    1.828017
     16          8           0        1.138121   -3.489627    0.019869
     17          7           0       -2.424868    2.310185    1.880845
     18          6           0       -1.792389    1.780498    3.012490
     19          6           0       -0.911543    2.739007    3.621597
     20          6           0       -1.074454    3.922410    2.862584
     21          6           0       -2.064185    3.610884    1.788648
     22          6           0       -0.268922    2.442839    4.977605
     23          6           0       -0.329450    5.228370    3.221148
     24          8           0        0.512880    5.276051    4.123350
     25          6           0       -0.724458    6.424091    2.461312
     26          7           0       -3.861909    2.896615   -0.752081
     27          6           0       -3.558281    4.156312   -0.263763
     28          6           0       -3.970790    5.291380   -1.226657
     29          6           0       -4.563544    4.397422   -2.391847
     30          6           0       -4.505718    3.019463   -1.901034
     31          6           0       -4.921457    6.346284   -0.755646
     32          6           0       -3.720193    4.510158   -3.760963
     33          6           0       -4.631729    4.696090   -4.945874
     34          7           0       -4.848323    0.242362   -0.861674
     35          6           0       -5.359737    0.651165   -2.079392
     36          6           0       -5.961517   -0.502596   -2.786152
     37          6           0       -5.616909   -1.612107   -1.938193
     38          6           0       -4.954450   -1.090554   -0.820862
     39          6           0       -6.500325   -0.611917   -4.154576
     40          6           0       -5.610995   -3.079727   -1.759803
     41          8           0       -5.987649   -3.945145   -2.515825
     42          6           0       -4.889514   -3.420977   -0.416356
     43          6           0       -5.770776   -4.206672    0.448267
     44          8           0       -5.636303   -5.348971    0.887680
     45          8           0       -7.015605   -3.525675    0.491388
     46          6           0       -8.040293   -4.131688    1.368356
     47          6           0        2.343010   -4.310444   -0.045415
     48          6           0        3.428581   -3.596276   -0.767436
     49          6           0        3.316582   -3.298771   -2.079711
     50          6           0        2.136517   -3.577135   -3.007380
     51          6           0        4.399968   -2.515963   -2.755700
     52          6           0        4.354968   -0.956100   -2.377857
     53          6           0        4.895097   -0.094236   -3.556003
     54          6           0        6.044629    0.867599   -3.059820
     55          6           0        5.805630    2.312196   -3.466126
     56          6           0        7.483666    0.400604   -3.382807
     57          6           0        8.417124    0.361991   -2.130202
     58          6           0        8.414247   -0.932565   -1.365538
     59          6           0        8.320124   -0.799716    0.140439
     60          6           0        6.950765   -1.372432    0.686175
     61          6           0        9.536929   -1.627981    0.850573
     62          6           0       10.065919   -0.794986    2.109462
     63          6           0       11.440633   -0.041239    1.933732
     64          6           0       11.313668    1.158775    0.953159
     65          6           0       11.837681    0.712896   -0.402595
     66          6           0       11.959457    2.485117    1.447222
     67          1           0       -1.664648    0.218711    4.427935
     68          1           0       -2.550235    5.501254    0.930678
     69          1           0       -5.689833    2.301277   -3.435331
     70          1           0       -4.089447   -3.456886    2.567796
     71          1           0       -1.799525   -2.339964    3.718178
     72          1           0       -4.391853   -2.642937    4.992792
     73          1           0       -4.096990   -0.975503    5.108797
     74          1           0       -2.921488   -2.253497    5.699575
     75          1           0       -2.652767   -4.825862    1.450980
     76          1           0       -1.633992   -4.255400    2.688594
     77          1           0       -1.081409   -2.367214    0.674035
     78          1           0       -1.375784   -3.823392   -0.241744
     79          1           0        0.701766    2.919365    5.118275
     80          1           0       -0.038742    1.379488    5.038583
     81          1           0       -0.967306    2.822339    5.723861
     82          1           0       -1.729183    6.712532    2.768790
     83          1           0       -0.656759    6.219962    1.392277
     84          1           0       -0.010632    7.192706    2.757459
     85          1           0       -3.056164    5.699462   -1.657441
     86          1           0       -5.620160    4.664478   -2.374383
     87          1           0       -5.219954    6.895284   -1.648881
     88          1           0       -4.341847    7.055752   -0.165015
     89          1           0       -5.743766    5.898004   -0.196755
     90          1           0       -3.114926    3.605845   -3.822629
     91          1           0       -2.930245    5.261401   -3.797250
     92          1           0       -4.593194    3.784469   -5.541682
     93          1           0       -4.227772    5.400185   -5.674074
     94          1           0       -5.662770    4.794046   -4.606695
     95          1           0       -6.503151    0.309010   -4.739553
     96          1           0       -7.546189   -0.894598   -4.039890
     97          1           0       -5.739915   -1.244764   -4.611718
     98          1           0       -4.013147   -3.994568   -0.717230
     99          1           0       -8.428017   -3.259189    1.895450
    100          1           0       -7.772661   -4.884670    2.109686
    101          1           0       -8.855296   -4.388387    0.691362
    102          1           0        2.152579   -5.215669   -0.620878
    103          1           0        2.741582   -4.577147    0.933741
    104          1           0        4.380565   -3.456554   -0.254209
    105          1           0        2.423449   -4.251330   -3.813370
    106          1           0        1.914281   -2.597062   -3.428756
    107          1           0        1.263471   -3.955994   -2.476642
    108          1           0        4.530491   -2.639126   -3.830691
    109          1           0        5.365764   -2.789974   -2.330902
    110          1           0        5.072013   -0.912848   -1.558703
    111          1           0        3.347831   -0.722910   -2.033944
    112          1           0        4.035843    0.448408   -3.948931
    113          1           0        5.193201   -0.609507   -4.468878
    114          1           0        6.054334    0.946465   -1.972707
    115          1           0        5.386946    2.412612   -4.466966
    116          1           0        6.720281    2.883482   -3.308180
    117          1           0        5.016133    2.710964   -2.828835
    118          1           0        7.955490    1.139064   -4.030222
    119          1           0        7.451905   -0.541792   -3.929590
    120          1           0        8.113181    1.100419   -1.387998
    121          1           0        9.438308    0.510702   -2.479540
    122          1           0        9.294203   -1.480655   -1.700292
    123          1           0        7.599982   -1.564653   -1.719595
    124          1           0        8.353090    0.239021    0.470340
    125          1           0        6.975971   -1.864942    1.657883
    126          1           0        6.577534   -2.081671   -0.053673
    127          1           0        6.195336   -0.595727    0.804775
    128          1           0       10.367716   -2.034764    0.273902
    129          1           0        9.113754   -2.501765    1.346828
    130          1           0       10.176780   -1.439488    2.982277
    131          1           0        9.382143    0.011732    2.373063
    132          1           0       12.048105   -0.871014    1.573825
    133          1           0       11.812866    0.277202    2.907903
    134          1           0       10.284620    1.511739    0.883067
    135          1           0       12.530684   -0.125940   -0.347004
    136          1           0       12.401659    1.549094   -0.817478
    137          1           0       11.083023    0.421386   -1.133873
    138          1           0       11.250266    3.312560    1.459381
    139          1           0       12.698715    2.970639    0.810366
    140          1           0       12.441131    2.427098    2.423069
 ---------------------------------------------------------------------

 SCF Done:  E(RwB97XD) =  -3007.86221642     A.U. after   20 cycles

 Excitation energies and oscillator strengths:

 Excited State   1:      Singlet-A      1.6605 eV  746.65 nm  f=0.3582  <S**2>=0.000
     245 -> 248        0.18732
     246 -> 247        0.68166
     245 <- 248        0.11470
 This state for optimization and/or second-order correction.
 Total Energy, E(TD-HF/TD-DFT) =  -3007.80119264
 Copying the excited state density for this state as the 1-particle RhoCI density.

 Excited State   2:      Singlet-A      2.1484 eV  577.10 nm  f=0.0831  <S**2>=0.000
     245 -> 247        0.62837
     246 -> 248       -0.30676

 Excited State   3:      Singlet-A      3.4246 eV  362.04 nm  f=0.0460  <S**2>=0.000
     242 -> 247       -0.18260
     243 -> 247        0.62618
     246 -> 248        0.20722

 Excited State   4:      Singlet-A      3.4365 eV  360.79 nm  f=0.3151  <S**2>=0.000
     242 -> 247        0.42794
     245 -> 247        0.20431
     246 -> 248        0.50523

 Excited State   5:      Singlet-A      3.6333 eV  341.24 nm  f=0.4533  <S**2>=0.000
     242 -> 247        0.50035
     243 -> 247        0.27302
     245 -> 247       -0.24049
     246 -> 248       -0.31703

 The electronic state is 1-A.
 Alpha  occ. eigenvalues --  -46.95530 -19.30275 -19.29609 -19.25519 -19.24910
 Alpha  occ. eigenvalues --  -19.24118 -19.23962 -14.46927 -14.46866 -14.44334
 Alpha  occ. eigenvalues --  -14.43854 -10.43640 -10.43294 -10.39232 -10.39135
 Alpha  occ. eigenvalues --  -10.35767 -10.35279 -10.35030 -10.34809 -10.34733
 Alpha  occ. eigenvalues --  -10.34478 -10.34212 -10.34156 -10.33471 -10.33027
 Alpha  occ. eigenvalues --  -10.32874 -10.32647 -10.32595 -10.32493 -10.32380
 Alpha  occ. eigenvalues --  -10.32290 -10.32186 -10.31796 -10.31492 -10.31481
 Alpha  occ. eigenvalues --  -10.31282 -10.31177 -10.30938 -10.30889 -10.30820
 Alpha  occ. eigenvalues --  -10.30777 -10.30678 -10.30355 -10.30148 -10.30134
 Alpha  occ. eigenvalues --  -10.29956 -10.29924 -10.29648 -10.29523 -10.29500
 Alpha  occ. eigenvalues --  -10.29391 -10.29320 -10.29207 -10.29198 -10.29054
 Alpha  occ. eigenvalues --  -10.28962 -10.28574 -10.28544 -10.28509 -10.28466
 Alpha  occ. eigenvalues --  -10.28459 -10.28340 -10.27908 -10.27863 -10.27833
 Alpha  occ. eigenvalues --  -10.27614  -3.21499  -1.95071  -1.94637  -1.94460
 Alpha  occ. eigenvalues --   -1.18005  -1.17004  -1.12696  -1.11650  -1.09140
 Alpha  occ. eigenvalues --   -1.09030  -1.07138  -1.05804  -1.05295  -1.04469
 Alpha  occ. eigenvalues --   -0.94521  -0.91984  -0.91583  -0.91295  -0.91234
 Alpha  occ. eigenvalues --   -0.90404  -0.89953  -0.89733  -0.88901  -0.88738
 Alpha  occ. eigenvalues --   -0.88218  -0.87309  -0.86547  -0.86226  -0.85261
 Alpha  occ. eigenvalues --   -0.84720  -0.84101  -0.83258  -0.82593  -0.82117
 Alpha  occ. eigenvalues --   -0.81336  -0.80313  -0.80083  -0.79354  -0.78241
 Alpha  occ. eigenvalues --   -0.77819  -0.77315  -0.77106  -0.76509  -0.75703
 Alpha  occ. eigenvalues --   -0.75183  -0.74626  -0.73857  -0.72026  -0.71327
 Alpha  occ. eigenvalues --   -0.70398  -0.69865  -0.69125  -0.68423  -0.67967
 Alpha  occ. eigenvalues --   -0.67014  -0.66976  -0.66808  -0.66384  -0.65940
 Alpha  occ. eigenvalues --   -0.65078  -0.64893  -0.64588  -0.64485  -0.62323
 Alpha  occ. eigenvalues --   -0.61475  -0.61014  -0.60636  -0.60464  -0.59862
 Alpha  occ. eigenvalues --   -0.59505  -0.59177  -0.58352  -0.58031  -0.57780
 Alpha  occ. eigenvalues --   -0.57360  -0.57112  -0.56900  -0.55897  -0.55790
 Alpha  occ. eigenvalues --   -0.55574  -0.54962  -0.54748  -0.54679  -0.54559
 Alpha  occ. eigenvalues --   -0.54373  -0.54203  -0.54051  -0.53961  -0.53576
 Alpha  occ. eigenvalues --   -0.53419  -0.53088  -0.52791  -0.52789  -0.52627
 Alpha  occ. eigenvalues --   -0.52336  -0.52275  -0.51808  -0.51587  -0.51425
 Alpha  occ. eigenvalues --   -0.51313  -0.51126  -0.50860  -0.50611  -0.50498
 Alpha  occ. eigenvalues --   -0.50285  -0.50220  -0.50137  -0.50056  -0.49480
 Alpha  occ. eigenvalues --   -0.49441  -0.49239  -0.48938  -0.48588  -0.48495
 Alpha  occ. eigenvalues --   -0.48398  -0.48052  -0.47972  -0.47649  -0.47513
 Alpha  occ. eigenvalues --   -0.47268  -0.47124  -0.46985  -0.46843  -0.46766
 Alpha  occ. eigenvalues --   -0.46735  -0.46540  -0.46349  -0.46157  -0.45837
 Alpha  occ. eigenvalues --   -0.45732  -0.45488  -0.45266  -0.45217  -0.45059
 Alpha  occ. eigenvalues --   -0.44915  -0.44576  -0.44449  -0.44404  -0.44038
 Alpha  occ. eigenvalues --   -0.43917  -0.43873  -0.43680  -0.43392  -0.43283
 Alpha  occ. eigenvalues --   -0.42821  -0.42448  -0.42287  -0.42108  -0.41924
 Alpha  occ. eigenvalues --   -0.41613  -0.41250  -0.41100  -0.40967  -0.40233
 Alpha  occ. eigenvalues --   -0.40219  -0.40023  -0.39735  -0.39612  -0.39473
 Alpha  occ. eigenvalues --   -0.39219  -0.38982  -0.38573  -0.38347  -0.37819
 Alpha  occ. eigenvalues --   -0.37682  -0.37346  -0.37244  -0.36824  -0.36451
 Alpha  occ. eigenvalues --   -0.36105  -0.35779  -0.35639  -0.33563  -0.33197
 Alpha  occ. eigenvalues --   -0.32881  -0.32238  -0.31912  -0.31249  -0.26102
 Alpha  occ. eigenvalues --   -0.23093
 Alpha virt. eigenvalues --   -0.07085  -0.00385   0.02653   0.04478   0.04810
 Alpha virt. eigenvalues --    0.06142   0.06744   0.07272   0.07442   0.09387
 Alpha virt. eigenvalues --    0.10195   0.11103   0.11749   0.11873   0.12380

 Mulliken charges:
               1
     1  Mg   0.956929
     2  C   -0.044387
     3  C   -0.109161
     4  C   -0.099672
     5  C   -0.098569
     6  N   -0.351680
     7  C    0.010973
     8  C   -0.078254
     9  C   -0.048179
    10  C    0.020375
    11  C    0.014778
    12  C   -0.000281
    13  C   -0.035773
    14  C    0.244180
    15  O   -0.285535
    16  O   -0.355303
    17  N   -0.438432
    18  C    0.180763
    19  C   -0.146974
    20  C   -0.106879
    21  C    0.207156
    22  C    0.079702
    23  C    0.051191
    24  O   -0.235992
    25  C   -0.010293
    26  N   -0.368914
    27  C    0.022564
    28  C   -0.081795
    29  C   -0.120513
    30  C    0.042806
    31  C    0.052823
    32  C   -0.004482
    33  C   -0.029132
    34  N   -0.431041
    35  C    0.160361
    36  C   -0.200532
    37  C   -0.051688
    38  C    0.127473
    39  C    0.085898
    40  C    0.113306
    41  O   -0.186276
    42  C   -0.041557
    43  C    0.283682
    44  O   -0.238516
    45  O   -0.406898
    46  C    0.140367
    47  C    0.242894
    48  C   -0.164432
    49  C   -0.173867
    50  C    0.053217
    51  C   -0.012862
    52  C   -0.020810
    53  C    0.021189
    54  C   -0.189366
    55  C    0.001220
    56  C    0.034139
    57  C   -0.070611
    58  C    0.052294
    59  C   -0.191764
    60  C   -0.007291
    61  C    0.011305
    62  C   -0.079443
    63  C    0.013098
    64  C   -0.189078
    65  C    0.023666
    66  C   -0.019351
    67  H   -0.003803
    68  H   -0.020361
    69  H   -0.017630
    70  H    0.037885
    71  H    0.036026
    72  H    0.033983
    73  H    0.047099
    74  H    0.045950
    75  H    0.054054
    76  H    0.049169
    77  H    0.076054
    78  H    0.068817
    79  H    0.060402
    80  H    0.037863
    81  H    0.065161
    82  H    0.070986
    83  H    0.064954
    84  H    0.051433
    85  H    0.031653
    86  H    0.032615
    87  H    0.042912
    88  H    0.037461
    89  H    0.047809
    90  H    0.039438
    91  H    0.030659
    92  H    0.027166
    93  H    0.038747
    94  H    0.043570
    95  H    0.019164
    96  H    0.067051
    97  H    0.074237
    98  H    0.066813
    99  H    0.037497
   100  H    0.076305
   101  H    0.056776
   102  H    0.045645
   103  H    0.054653
   104  H    0.023623
   105  H    0.050652
   106  H    0.037748
   107  H    0.039085
   108  H    0.018994
   109  H    0.019428
   110  H    0.013607
   111  H    0.044351
   112  H    0.010677
   113  H    0.018574
   114  H    0.017217
   115  H    0.026073
   116  H    0.028655
   117  H    0.023165
   118  H    0.007874
   119  H    0.014443
   120  H    0.017908
   121  H    0.040393
   122  H    0.016037
   123  H   -0.004462
   124  H    0.034442
   125  H    0.033349
   126  H    0.025911
   127  H    0.038597
   128  H    0.021656
   129  H    0.017313
   130  H    0.020882
   131  H    0.017188
   132  H    0.018497
   133  H    0.018475
   134  H    0.024375
   135  H    0.022984
   136  H    0.015898
   137  H    0.013470
   138  H    0.020488
   139  H    0.014386
   140  H    0.027067
 Sum of Mulliken charges =  -0.00000

 Dipole moment (field-independent basis, Debye):
    X=             -2.2175    Y=              6.1779    Z=             -1.4210  Tot=              6.7159
 Quadrupole moment (field-independent basis, Debye-Ang):
   XX=           -386.7027   YY=           -420.9606   ZZ=           -393.5014
   XY=            -42.1703   XZ=            -22.6266   YZ=            -23.9887

 Normal termination of Gaussian 16 at Thu May  5 01:43:04 2022.
