 Gaussian 16, Revision A.03,
 Gaussian 16:  ES64L-G16RevA.03 25-Dec-2016

 --------------------
 #p ZINDO=(nstates=5)
 --------------------

 -----------------------------
 step_501_chromophore_26 ZINDO
 -----------------------------
 Symbolic Z-matrix:
 Charge =  0 Multiplicity = 1

                         Standard orientation:
 ---------------------------------------------------------------------
 Center     Atomic      Atomic             Coordinates (Angstroms)
 Number     Number       Type             X           Y           Z
 ---------------------------------------------------------------------
      1         12           0       -3.812531    1.323223    0.587856
      2          6           0       -4.432344   -2.066862    0.122489
      3          6           0       -2.000493    0.490109    3.424424
      4          6           0       -2.691323    4.421716    0.847548
      5          6           0       -5.209386    1.977014   -2.510512
      6          7           0       -3.141735   -0.560319    1.558732
      7          6           0       -3.633014   -1.817816    1.273708
      8          6           0       -3.231389   -2.844362    2.291159
      9          6           0       -2.787317   -1.926142    3.513847
     10          6           0       -2.583309   -0.588045    2.815898
     11          6           0       -3.585189   -1.915573    4.903230
     12          6           0       -2.156704   -3.918325    1.793498
     13          6           0       -1.100756   -3.455080    0.746207
     14          6           0        0.294733   -3.972049    1.001070
     15          8           0        0.603375   -4.857598    1.828017
     16          8           0        1.138121   -3.489627    0.019869
     17          7           0       -2.424868    2.310185    1.880845
     18          6           0       -1.792389    1.780498    3.012490
     19          6           0       -0.911543    2.739007    3.621597
     20          6           0       -1.074454    3.922410    2.862584
     21          6           0       -2.064185    3.610884    1.788648
     22          6           0       -0.268922    2.442839    4.977605
     23          6           0       -0.329450    5.228370    3.221148
     24          8           0        0.512880    5.276051    4.123350
     25          6           0       -0.724458    6.424091    2.461312
     26          7           0       -3.861909    2.896615   -0.752081
     27          6           0       -3.558281    4.156312   -0.263763
     28          6           0       -3.970790    5.291380   -1.226657
     29          6           0       -4.563544    4.397422   -2.391847
     30          6           0       -4.505718    3.019463   -1.901034
     31          6           0       -4.921457    6.346284   -0.755646
     32          6           0       -3.720193    4.510158   -3.760963
     33          6           0       -4.631729    4.696090   -4.945874
     34          7           0       -4.848323    0.242362   -0.861674
     35          6           0       -5.359737    0.651165   -2.079392
     36          6           0       -5.961517   -0.502596   -2.786152
     37          6           0       -5.616909   -1.612107   -1.938193
     38          6           0       -4.954450   -1.090554   -0.820862
     39          6           0       -6.500325   -0.611917   -4.154576
     40          6           0       -5.610995   -3.079727   -1.759803
     41          8           0       -5.987649   -3.945145   -2.515825
     42          6           0       -4.889514   -3.420977   -0.416356
     43          6           0       -5.770776   -4.206672    0.448267
     44          8           0       -5.636303   -5.348971    0.887680
     45          8           0       -7.015605   -3.525675    0.491388
     46          6           0       -8.040293   -4.131688    1.368356
     47          6           0        2.343010   -4.310444   -0.045415
     48          6           0        3.428581   -3.596276   -0.767436
     49          6           0        3.316582   -3.298771   -2.079711
     50          6           0        2.136517   -3.577135   -3.007380
     51          6           0        4.399968   -2.515963   -2.755700
     52          6           0        4.354968   -0.956100   -2.377857
     53          6           0        4.895097   -0.094236   -3.556003
     54          6           0        6.044629    0.867599   -3.059820
     55          6           0        5.805630    2.312196   -3.466126
     56          6           0        7.483666    0.400604   -3.382807
     57          6           0        8.417124    0.361991   -2.130202
     58          6           0        8.414247   -0.932565   -1.365538
     59          6           0        8.320124   -0.799716    0.140439
     60          6           0        6.950765   -1.372432    0.686175
     61          6           0        9.536929   -1.627981    0.850573
     62          6           0       10.065919   -0.794986    2.109462
     63          6           0       11.440633   -0.041239    1.933732
     64          6           0       11.313668    1.158775    0.953159
     65          6           0       11.837681    0.712896   -0.402595
     66          6           0       11.959457    2.485117    1.447222
     67          1           0       -1.664648    0.218711    4.427935
     68          1           0       -2.550235    5.501254    0.930678
     69          1           0       -5.689833    2.301277   -3.435331
     70          1           0       -4.089447   -3.456886    2.567796
     71          1           0       -1.799525   -2.339964    3.718178
     72          1           0       -4.391853   -2.642937    4.992792
     73          1           0       -4.096990   -0.975503    5.108797
     74          1           0       -2.921488   -2.253497    5.699575
     75          1           0       -2.652767   -4.825862    1.450980
     76          1           0       -1.633992   -4.255400    2.688594
     77          1           0       -1.081409   -2.367214    0.674035
     78          1           0       -1.375784   -3.823392   -0.241744
     79          1           0        0.701766    2.919365    5.118275
     80          1           0       -0.038742    1.379488    5.038583
     81          1           0       -0.967306    2.822339    5.723861
     82          1           0       -1.729183    6.712532    2.768790
     83          1           0       -0.656759    6.219962    1.392277
     84          1           0       -0.010632    7.192706    2.757459
     85          1           0       -3.056164    5.699462   -1.657441
     86          1           0       -5.620160    4.664478   -2.374383
     87          1           0       -5.219954    6.895284   -1.648881
     88          1           0       -4.341847    7.055752   -0.165015
     89          1           0       -5.743766    5.898004   -0.196755
     90          1           0       -3.114926    3.605845   -3.822629
     91          1           0       -2.930245    5.261401   -3.797250
     92          1           0       -4.593194    3.784469   -5.541682
     93          1           0       -4.227772    5.400185   -5.674074
     94          1           0       -5.662770    4.794046   -4.606695
     95          1           0       -6.503151    0.309010   -4.739553
     96          1           0       -7.546189   -0.894598   -4.039890
     97          1           0       -5.739915   -1.244764   -4.611718
     98          1           0       -4.013147   -3.994568   -0.717230
     99          1           0       -8.428017   -3.259189    1.895450
    100          1           0       -7.772661   -4.884670    2.109686
    101          1           0       -8.855296   -4.388387    0.691362
    102          1           0        2.152579   -5.215669   -0.620878
    103          1           0        2.741582   -4.577147    0.933741
    104          1           0        4.380565   -3.456554   -0.254209
    105          1           0        2.423449   -4.251330   -3.813370
    106          1           0        1.914281   -2.597062   -3.428756
    107          1           0        1.263471   -3.955994   -2.476642
    108          1           0        4.530491   -2.639126   -3.830691
    109          1           0        5.365764   -2.789974   -2.330902
    110          1           0        5.072013   -0.912848   -1.558703
    111          1           0        3.347831   -0.722910   -2.033944
    112          1           0        4.035843    0.448408   -3.948931
    113          1           0        5.193201   -0.609507   -4.468878
    114          1           0        6.054334    0.946465   -1.972707
    115          1           0        5.386946    2.412612   -4.466966
    116          1           0        6.720281    2.883482   -3.308180
    117          1           0        5.016133    2.710964   -2.828835
    118          1           0        7.955490    1.139064   -4.030222
    119          1           0        7.451905   -0.541792   -3.929590
    120          1           0        8.113181    1.100419   -1.387998
    121          1           0        9.438308    0.510702   -2.479540
    122          1           0        9.294203   -1.480655   -1.700292
    123          1           0        7.599982   -1.564653   -1.719595
    124          1           0        8.353090    0.239021    0.470340
    125          1           0        6.975971   -1.864942    1.657883
    126          1           0        6.577534   -2.081671   -0.053673
    127          1           0        6.195336   -0.595727    0.804775
    128          1           0       10.367716   -2.034764    0.273902
    129          1           0        9.113754   -2.501765    1.346828
    130          1           0       10.176780   -1.439488    2.982277
    131          1           0        9.382143    0.011732    2.373063
    132          1           0       12.048105   -0.871014    1.573825
    133          1           0       11.812866    0.277202    2.907903
    134          1           0       10.284620    1.511739    0.883067
    135          1           0       12.530684   -0.125940   -0.347004
    136          1           0       12.401659    1.549094   -0.817478
    137          1           0       11.083023    0.421386   -1.133873
    138          1           0       11.250266    3.312560    1.459381
    139          1           0       12.698715    2.970639    0.810366
    140          1           0       12.441131    2.427098    2.423069
 ---------------------------------------------------------------------

 SCF Done:  E(RZINDO/S) =  -474.196610019     A.U. after   19 cycles

 Excitation energies and oscillator strengths:

 Excited State   1:      Singlet-A      1.2483 eV  993.19 nm  f=0.5801  <S**2>=0.000
     175 ->178         0.19389
     176 ->177         0.66038
 This state for optimization and/or second-order correction.
 Total Energy, E(CIS/TDA) =  -474.150734158
 Copying the excited state density for this state as the 1-particle RhoCI density.

 Excited State   2:      Singlet-A      1.8651 eV  664.76 nm  f=0.0159  <S**2>=0.000
     175 ->177         0.52329
     176 ->178        -0.44940

 Excited State   3:      Singlet-A      2.8964 eV  428.07 nm  f=0.8596  <S**2>=0.000
     175 ->177         0.36933
     176 ->178         0.47732
     176 ->179         0.24499
     176 ->180        -0.13307
     176 ->182         0.10531

 Excited State   4:      Singlet-A      3.0641 eV  404.64 nm  f=0.0014  <S**2>=0.000
     168 ->177         0.27022
     168 ->178         0.20920
     168 ->179         0.31923
     168 ->180        -0.29852
     168 ->181        -0.10820
     168 ->182        -0.11037
     168 ->183         0.15974
     168 ->185        -0.25956

 Excited State   5:      Singlet-A      3.0704 eV  403.81 nm  f=0.0113  <S**2>=0.000
     170 ->177         0.30431
     170 ->179        -0.38011
     170 ->180        -0.20801
     170 ->183         0.20079
     170 ->185         0.19948
     170 ->187        -0.19324
     170 ->200         0.11047

 The electronic state is 1-A.
 Alpha  occ. eigenvalues --   -1.84882  -1.82022  -1.80608  -1.73842  -1.71447
 Alpha  occ. eigenvalues --   -1.70564  -1.65674  -1.59511  -1.58825  -1.57883
 Alpha  occ. eigenvalues --   -1.54286  -1.50145  -1.48284  -1.47242  -1.46449
 Alpha  occ. eigenvalues --   -1.45073  -1.42355  -1.41123  -1.39442  -1.37974
 Alpha  occ. eigenvalues --   -1.36130  -1.34304  -1.32856  -1.30954  -1.29303
 Alpha  occ. eigenvalues --   -1.28302  -1.26959  -1.24214  -1.21968  -1.17983
 Alpha  occ. eigenvalues --   -1.16947  -1.16007  -1.15076  -1.13640  -1.13251
 Alpha  occ. eigenvalues --   -1.12059  -1.10669  -1.09724  -1.06201  -1.04896
 Alpha  occ. eigenvalues --   -1.02301  -1.01940  -0.98718  -0.98202  -0.97450
 Alpha  occ. eigenvalues --   -0.95654  -0.94964  -0.93916  -0.93258  -0.92670
 Alpha  occ. eigenvalues --   -0.91357  -0.90913  -0.88346  -0.87716  -0.87070
 Alpha  occ. eigenvalues --   -0.85799  -0.84593  -0.83406  -0.82269  -0.80653
 Alpha  occ. eigenvalues --   -0.79322  -0.77998  -0.77497  -0.77120  -0.76075
 Alpha  occ. eigenvalues --   -0.75792  -0.74991  -0.74798  -0.74440  -0.73684
 Alpha  occ. eigenvalues --   -0.73193  -0.72813  -0.71943  -0.71491  -0.71294
 Alpha  occ. eigenvalues --   -0.70053  -0.69071  -0.68761  -0.68159  -0.67830
 Alpha  occ. eigenvalues --   -0.67073  -0.66411  -0.66205  -0.66090  -0.65595
 Alpha  occ. eigenvalues --   -0.65479  -0.65037  -0.64851  -0.64513  -0.64129
 Alpha  occ. eigenvalues --   -0.63456  -0.63300  -0.63038  -0.62603  -0.61973
 Alpha  occ. eigenvalues --   -0.61654  -0.61290  -0.60611  -0.60417  -0.60096
 Alpha  occ. eigenvalues --   -0.59296  -0.58546  -0.58496  -0.58232  -0.57857
 Alpha  occ. eigenvalues --   -0.57696  -0.57068  -0.56726  -0.56620  -0.56321
 Alpha  occ. eigenvalues --   -0.56115  -0.55829  -0.55365  -0.55281  -0.55035
 Alpha  occ. eigenvalues --   -0.54820  -0.54389  -0.53984  -0.53671  -0.52949
 Alpha  occ. eigenvalues --   -0.52738  -0.52656  -0.52405  -0.52124  -0.52000
 Alpha  occ. eigenvalues --   -0.51919  -0.51383  -0.51063  -0.50683  -0.50296
 Alpha  occ. eigenvalues --   -0.49870  -0.49522  -0.49189  -0.48986  -0.48933
 Alpha  occ. eigenvalues --   -0.48782  -0.48474  -0.48278  -0.48119  -0.47883
 Alpha  occ. eigenvalues --   -0.47577  -0.47173  -0.46516  -0.46472  -0.46399
 Alpha  occ. eigenvalues --   -0.46138  -0.45811  -0.45783  -0.45419  -0.45163
 Alpha  occ. eigenvalues --   -0.45152  -0.44948  -0.44648  -0.44162  -0.43731
 Alpha  occ. eigenvalues --   -0.43334  -0.43147  -0.43028  -0.42950  -0.42753
 Alpha  occ. eigenvalues --   -0.42152  -0.41715  -0.41540  -0.39526  -0.38971
 Alpha  occ. eigenvalues --   -0.38664  -0.38049  -0.36007  -0.35273  -0.35107
 Alpha  occ. eigenvalues --   -0.33748  -0.32927  -0.32375  -0.31758  -0.26926
 Alpha  occ. eigenvalues --   -0.21974
 Alpha virt. eigenvalues --   -0.08675  -0.02884  -0.00611   0.00903   0.01168
 Alpha virt. eigenvalues --    0.01185   0.02023   0.02426   0.04220   0.05019
 Alpha virt. eigenvalues --    0.05655   0.06712   0.07010   0.07523   0.07890

 Mulliken charges:
               1
     1  Mg   0.432481
     2  C   -0.071674
     3  C   -0.064971
     4  C   -0.078887
     5  C   -0.068884
     6  N   -0.299738
     7  C    0.122772
     8  C    0.003809
     9  C   -0.001965
    10  C    0.143574
    11  C   -0.048783
    12  C   -0.027518
    13  C    0.009781
    14  C    0.463939
    15  O   -0.521450
    16  O   -0.261655
    17  N   -0.336575
    18  C    0.118603
    19  C    0.035950
    20  C   -0.052407
    21  C    0.135566
    22  C   -0.033727
    23  C    0.332819
    24  O   -0.522257
    25  C   -0.028714
    26  N   -0.257227
    27  C    0.111355
    28  C   -0.004884
    29  C   -0.006644
    30  C    0.132224
    31  C   -0.041235
    32  C   -0.026385
    33  C   -0.060055
    34  N   -0.324781
    35  C    0.086175
    36  C    0.027300
    37  C   -0.069629
    38  C    0.115296
    39  C   -0.036254
    40  C    0.339038
    41  O   -0.514138
    42  C    0.064212
    43  C    0.487470
    44  O   -0.510007
    45  O   -0.279558
    46  C    0.070958
    47  C    0.106599
    48  C   -0.103441
    49  C    0.005804
    50  C   -0.041142
    51  C   -0.035886
    52  C   -0.037516
    53  C   -0.034800
    54  C   -0.014526
    55  C   -0.054655
    56  C   -0.034782
    57  C   -0.037793
    58  C   -0.029931
    59  C   -0.006144
    60  C   -0.062353
    61  C   -0.047618
    62  C   -0.049543
    63  C   -0.037645
    64  C   -0.001477
    65  C   -0.056582
    66  C   -0.064094
    67  H    0.018540
    68  H    0.016621
    69  H    0.019629
    70  H    0.031199
    71  H    0.028900
    72  H    0.020508
    73  H    0.029043
    74  H    0.026703
    75  H    0.034410
    76  H    0.031744
    77  H    0.045918
    78  H    0.047890
    79  H    0.038695
    80  H    0.025811
    81  H    0.042242
    82  H    0.045397
    83  H    0.040209
    84  H    0.034800
    85  H    0.030828
    86  H    0.036726
    87  H    0.020812
    88  H    0.016437
    89  H    0.033812
    90  H    0.023241
    91  H    0.022179
    92  H    0.010852
    93  H    0.026071
    94  H    0.030197
    95  H    0.014173
    96  H    0.047065
    97  H    0.048662
    98  H    0.052452
    99  H    0.019523
   100  H    0.063207
   101  H    0.042121
   102  H    0.044968
   103  H    0.048350
   104  H    0.035626
   105  H    0.032815
   106  H    0.025756
   107  H    0.025846
   108  H    0.022998
   109  H    0.011676
   110  H    0.026092
   111  H    0.031837
   112  H    0.010192
   113  H    0.025942
   114  H    0.018934
   115  H    0.018971
   116  H    0.020215
   117  H    0.008728
   118  H    0.011019
   119  H    0.021602
   120  H    0.025343
   121  H    0.017869
   122  H    0.013376
   123  H    0.015256
   124  H    0.031372
   125  H    0.021569
   126  H    0.019810
   127  H    0.013783
   128  H    0.034391
   129  H    0.012892
   130  H    0.012955
   131  H    0.016866
   132  H    0.021100
   133  H    0.018619
   134  H    0.024725
   135  H    0.018409
   136  H    0.011295
   137  H    0.021195
   138  H    0.012276
   139  H    0.014409
   140  H    0.018508
 Sum of Mulliken charges =   0.00000

 Dipole moment (field-independent basis, Debye):
    X=             -2.8137    Y=              8.6014    Z=             -1.8440  Tot=              9.2359
 N-N= 4.545104940228D+03 E-N= 0.000000000000D+00  KE=-9.764062442037D+03
 Leave Link  601 at Thu May  5 02:06:09 2022, MaxMem=  6710886400 cpu:               0.8 elap:               0.1
 (Enter /sw/apps/gaussian-16.0/g16/l9999.exe)
 1\1\GINC-BP1-COMPUTE212\SP\RZINDO CIS\STO-3G\C55H74Mg1N4O6\OF15641\05-
 May-2022\0\\#p ZINDO=(nstates=5)\\step_501_chromophore_26 ZINDO\\0,1\M
 g,0,-9.665,18.334,42.784\C,0,-6.24,17.805,42.496\C,0,-9.099,21.676,42.
 053\C,0,-12.912,18.874,42.483\C,0,-10.148,14.914,43.005\N,0,-7.916,19.
 561,42.171\C,0,-6.598,19.162,42.258\C,0,-5.633,20.296,42.076\C,0,-6.57
 3,21.558,42.319\C,0,-7.951,20.936,42.136\C,0,-6.371,22.541,43.568\C,0,
 -4.814,20.285,40.703\C,0,-5.518,19.697,39.444\C,0,-5.279,20.481,38.176

 Normal termination of Gaussian 16 at Thu May  5 02:06:09 2022.
