 Gaussian 16, Revision A.03,
 Gaussian 16:  ES64L-G16RevA.03 25-Dec-2016

 ------------------------------
 #p blyp/Def2SVP td=(nstates=5)
 ------------------------------

 --------------------------------------------------
 step_1551_chromophore_8 TDDFT with blyp functional
 --------------------------------------------------
 Symbolic Z-matrix:
 Charge =  0 Multiplicity = 1

                         Standard orientation:
 ---------------------------------------------------------------------
 Center     Atomic      Atomic             Coordinates (Angstroms)
 Number     Number       Type             X           Y           Z
 ---------------------------------------------------------------------
      1         12           0        4.221334    1.095686    0.286120
      2          6           0        4.175892   -2.515620    0.213921
      3          6           0        4.144685    1.012938   -3.168905
      4          6           0        3.525951    4.339071    0.342611
      5          6           0        3.740343    0.927141    3.744891
      6          7           0        4.326222   -0.571851   -1.233133
      7          6           0        4.235984   -1.941058   -1.102685
      8          6           0        4.333868   -2.718020   -2.480191
      9          6           0        4.632644   -1.470484   -3.433308
     10          6           0        4.414327   -0.203606   -2.539260
     11          6           0        6.047382   -1.553006   -4.075051
     12          6           0        2.969371   -3.497019   -2.847252
     13          6           0        1.659967   -2.662969   -2.419823
     14          6           0        0.562789   -3.467086   -1.676532
     15          8           0        0.465024   -4.709843   -1.572390
     16          8           0       -0.323009   -2.623455   -1.120657
     17          7           0        3.902847    2.575116   -1.278560
     18          6           0        3.952053    2.341765   -2.599335
     19          6           0        3.754512    3.659752   -3.284952
     20          6           0        3.595217    4.646536   -2.277200
     21          6           0        3.634818    3.877194   -0.953714
     22          6           0        3.952926    3.822290   -4.805577
     23          6           0        3.433846    6.151003   -2.460624
     24          8           0        3.518183    6.628650   -3.585085
     25          6           0        3.268141    7.144465   -1.392445
     26          7           0        3.652965    2.378392    1.768198
     27          6           0        3.602099    3.685542    1.554390
     28          6           0        3.701315    4.523375    2.808638
     29          6           0        3.534326    3.451093    3.888481
     30          6           0        3.734976    2.128260    3.040561
     31          6           0        4.957227    5.501483    2.888412
     32          6           0        2.182302    3.515447    4.692907
     33          6           0        2.254762    3.872595    6.254542
     34          7           0        4.114729   -0.453975    1.769527
     35          6           0        3.895757   -0.314743    3.055122
     36          6           0        3.826201   -1.630387    3.621208
     37          6           0        3.961416   -2.537920    2.555773
     38          6           0        4.106427   -1.795197    1.424425
     39          6           0        3.548585   -1.941413    5.089567
     40          6           0        3.974528   -3.926447    2.183235
     41          8           0        3.906799   -4.880327    2.846134
     42          6           0        4.174343   -3.962812    0.582532
     43          6           0        5.533665   -4.728809    0.443183
     44          8           0        6.605121   -4.285665    0.761444
     45          8           0        5.235142   -6.001940   -0.048363
     46          6           0        6.505634   -6.845818   -0.196539
     47          6           0       -1.526095   -3.337604   -0.629982
     48          6           0       -2.676488   -2.370295   -0.846621
     49          6           0       -3.793494   -2.408174   -0.134271
     50          6           0       -4.295717   -3.431667    0.838205
     51          6           0       -4.655829   -1.222151   -0.268957
     52          6           0       -5.476611   -1.174876   -1.588819
     53          6           0       -5.150838    0.050379   -2.493566
     54          6           0       -6.337270    1.083604   -2.530435
     55          6           0       -6.348400    1.766190   -3.853974
     56          6           0       -6.310065    2.043950   -1.271829
     57          6           0       -7.694094    2.123959   -0.607801
     58          6           0       -7.743058    1.416502    0.770033
     59          6           0       -9.146600    0.986759    1.153649
     60          6           0       -9.155079    1.114914    2.659303
     61          6           0       -9.706005   -0.378540    0.677313
     62          6           0      -11.124621   -0.302702    0.000499
     63          6           0      -12.182770   -0.947294    0.885997
     64          6           0      -13.556709   -0.253424    0.784820
     65          6           0      -14.107421   -0.265642   -0.664994
     66          6           0      -14.689234   -0.901987    1.747813
     67          1           0        3.909517    1.039071   -4.234735
     68          1           0        3.510872    5.426212    0.445711
     69          1           0        3.431407    1.027501    4.787460
     70          1           0        5.116901   -3.471471   -2.394918
     71          1           0        3.958046   -1.468944   -4.287983
     72          1           0        6.412139   -2.561931   -3.883422
     73          1           0        6.657257   -0.742165   -3.674527
     74          1           0        5.979465   -1.328448   -5.138760
     75          1           0        2.903917   -4.497408   -2.419200
     76          1           0        2.831960   -3.556624   -3.926964
     77          1           0        1.115516   -2.476991   -3.345416
     78          1           0        1.808688   -1.704506   -1.921013
     79          1           0        4.751724    4.562298   -4.772625
     80          1           0        3.121347    4.120162   -5.444055
     81          1           0        4.295507    2.846793   -5.153357
     82          1           0        4.077544    7.109837   -0.663046
     83          1           0        2.274397    6.927370   -1.000141
     84          1           0        3.099980    8.164722   -1.735554
     85          1           0        2.784721    5.101347    2.691137
     86          1           0        4.344781    3.465788    4.617456
     87          1           0        5.514146    5.405598    1.956089
     88          1           0        5.636567    5.248652    3.702217
     89          1           0        4.709927    6.561668    2.941954
     90          1           0        1.629090    2.600166    4.479796
     91          1           0        1.593676    4.239159    4.128186
     92          1           0        1.859291    4.882936    6.361438
     93          1           0        3.308882    3.888047    6.534803
     94          1           0        1.822664    3.154858    6.952019
     95          1           0        3.814722   -2.937672    5.441494
     96          1           0        2.516188   -1.695617    5.336243
     97          1           0        4.171241   -1.192780    5.580206
     98          1           0        3.375943   -4.428173    0.003784
     99          1           0        7.044788   -6.701941    0.740099
    100          1           0        7.095052   -6.490957   -1.041177
    101          1           0        6.223165   -7.878331   -0.400707
    102          1           0       -1.498530   -3.690121    0.401321
    103          1           0       -1.899676   -4.138490   -1.267088
    104          1           0       -2.352417   -1.507801   -1.428371
    105          1           0       -3.721655   -4.356734    0.794931
    106          1           0       -5.340229   -3.734169    0.758791
    107          1           0       -4.159314   -3.034190    1.843949
    108          1           0       -4.030397   -0.350173   -0.078848
    109          1           0       -5.443028   -1.084330    0.472121
    110          1           0       -6.525772   -1.209555   -1.295865
    111          1           0       -5.294316   -2.023692   -2.249252
    112          1           0       -4.936167   -0.346692   -3.486124
    113          1           0       -4.239809    0.478059   -2.075251
    114          1           0       -7.272645    0.524473   -2.495921
    115          1           0       -7.285428    2.105369   -4.295778
    116          1           0       -6.014796    1.014389   -4.568024
    117          1           0       -5.645772    2.598700   -3.799411
    118          1           0       -5.934061    3.024353   -1.565036
    119          1           0       -5.536105    1.710009   -0.580634
    120          1           0       -8.475030    1.766696   -1.278528
    121          1           0       -7.783625    3.187251   -0.381328
    122          1           0       -7.465985    2.248682    1.416396
    123          1           0       -7.002794    0.618659    0.828153
    124          1           0       -9.736789    1.777408    0.690076
    125          1           0       -8.189793    1.117456    3.165522
    126          1           0       -9.650943    0.229769    3.056796
    127          1           0       -9.682983    2.029700    2.930336
    128          1           0       -9.761784   -1.100363    1.491785
    129          1           0       -8.993143   -0.803711   -0.028627
    130          1           0      -11.131954   -0.929577   -0.891036
    131          1           0      -11.438259    0.690296   -0.320443
    132          1           0      -11.882037   -0.875234    1.930836
    133          1           0      -12.213899   -2.004316    0.622150
    134          1           0      -13.422217    0.792432    1.058168
    135          1           0      -14.983881   -0.903570   -0.775470
    136          1           0      -13.488624   -0.576455   -1.506813
    137          1           0      -14.370936    0.764078   -0.908038
    138          1           0      -15.461694   -0.220626    2.102567
    139          1           0      -14.175346   -1.322901    2.612535
    140          1           0      -15.261913   -1.641290    1.188281
 ---------------------------------------------------------------------

 SCF Done:  E(RB-LYP) =  -3007.33563788     A.U. after   22 cycles

 Excitation energies and oscillator strengths:

 Excited State   1:      Singlet-A      1.7817 eV  695.86 nm  f=0.0131  <S**2>=0.000
     244 -> 247        0.69418
     246 -> 247       -0.12629
 This state for optimization and/or second-order correction.
 Total Energy, E(TD-HF/TD-DFT) =  -3007.27015991
 Copying the excited state density for this state as the 1-particle RhoCI density.

 Excited State   2:      Singlet-A      1.8451 eV  671.95 nm  f=0.2878  <S**2>=0.000
     244 -> 247        0.13153
     245 -> 248       -0.19388
     246 -> 247        0.66590
     246 <- 247       -0.14241

 Excited State   3:      Singlet-A      1.9702 eV  629.29 nm  f=0.0410  <S**2>=0.000
     243 -> 247        0.42558
     245 -> 247        0.52220
     246 -> 247       -0.11734
     246 -> 248        0.15247

 Excited State   4:      Singlet-A      2.0878 eV  593.85 nm  f=0.0002  <S**2>=0.000
     242 -> 247        0.70350

 Excited State   5:      Singlet-A      2.1351 eV  580.69 nm  f=0.0301  <S**2>=0.000
     243 -> 247        0.54554
     245 -> 247       -0.36733
     246 -> 248       -0.23364

 The electronic state is 1-A.
 Alpha  occ. eigenvalues --  -46.28219 -18.82969 -18.81839 -18.77264 -18.76353
 Alpha  occ. eigenvalues --  -18.75895 -18.74802 -14.03918 -14.03539 -14.01403
 Alpha  occ. eigenvalues --  -14.00377 -10.04112 -10.03926  -9.99526  -9.99285
 Alpha  occ. eigenvalues --   -9.97668  -9.97424  -9.97215  -9.96937  -9.96285
 Alpha  occ. eigenvalues --   -9.96213  -9.96209  -9.96048  -9.95162  -9.95021
 Alpha  occ. eigenvalues --   -9.94276  -9.94091  -9.94041  -9.94035  -9.93936
 Alpha  occ. eigenvalues --   -9.93857  -9.93745  -9.93707  -9.93589  -9.93373
 Alpha  occ. eigenvalues --   -9.93319  -9.93278  -9.93113  -9.92928  -9.92923
 Alpha  occ. eigenvalues --   -9.92754  -9.92519  -9.92397  -9.92368  -9.92270
 Alpha  occ. eigenvalues --   -9.92102  -9.92101  -9.91997  -9.91840  -9.91468
 Alpha  occ. eigenvalues --   -9.91441  -9.91307  -9.91189  -9.91097  -9.91027
 Alpha  occ. eigenvalues --   -9.90866  -9.90863  -9.90853  -9.90843  -9.90821
 Alpha  occ. eigenvalues --   -9.90769  -9.90759  -9.90514  -9.90303  -9.90156
 Alpha  occ. eigenvalues --   -9.90010  -2.92714  -1.73140  -1.72593  -1.72426
 Alpha  occ. eigenvalues --   -0.98440  -0.96704  -0.94496  -0.91258  -0.89768
 Alpha  occ. eigenvalues --   -0.89076  -0.88479  -0.86727  -0.85616  -0.84939
 Alpha  occ. eigenvalues --   -0.75672  -0.74010  -0.73353  -0.72777  -0.72134
 Alpha  occ. eigenvalues --   -0.71902  -0.71503  -0.70890  -0.70630  -0.69201
 Alpha  occ. eigenvalues --   -0.68898  -0.68863  -0.67765  -0.67235  -0.67109
 Alpha  occ. eigenvalues --   -0.66400  -0.66064  -0.65363  -0.64903  -0.64490
 Alpha  occ. eigenvalues --   -0.64151  -0.62148  -0.61873  -0.61633  -0.60604
 Alpha  occ. eigenvalues --   -0.60427  -0.59887  -0.59564  -0.59360  -0.59061
 Alpha  occ. eigenvalues --   -0.58006  -0.57251  -0.56579  -0.55520  -0.55318
 Alpha  occ. eigenvalues --   -0.53932  -0.53387  -0.52882  -0.52619  -0.52384
 Alpha  occ. eigenvalues --   -0.51356  -0.51031  -0.50586  -0.50346  -0.49787
 Alpha  occ. eigenvalues --   -0.49569  -0.49246  -0.48624  -0.47724  -0.46328
 Alpha  occ. eigenvalues --   -0.46188  -0.45877  -0.45459  -0.44943  -0.43937
 Alpha  occ. eigenvalues --   -0.43794  -0.43281  -0.43123  -0.43024  -0.42166
 Alpha  occ. eigenvalues --   -0.42026  -0.41574  -0.41420  -0.41214  -0.40934
 Alpha  occ. eigenvalues --   -0.40894  -0.40721  -0.40444  -0.40074  -0.39786
 Alpha  occ. eigenvalues --   -0.39757  -0.39717  -0.39522  -0.39099  -0.38901
 Alpha  occ. eigenvalues --   -0.38793  -0.38615  -0.38501  -0.38381  -0.38232
 Alpha  occ. eigenvalues --   -0.38168  -0.38070  -0.37819  -0.37566  -0.37240
 Alpha  occ. eigenvalues --   -0.37149  -0.36956  -0.36798  -0.36735  -0.36493
 Alpha  occ. eigenvalues --   -0.36236  -0.36202  -0.36097  -0.35740  -0.35560
 Alpha  occ. eigenvalues --   -0.35323  -0.35192  -0.35026  -0.34859  -0.34814
 Alpha  occ. eigenvalues --   -0.34489  -0.34431  -0.34311  -0.34188  -0.34107
 Alpha  occ. eigenvalues --   -0.33890  -0.33779  -0.33593  -0.33308  -0.33160
 Alpha  occ. eigenvalues --   -0.33055  -0.33007  -0.32684  -0.32544  -0.32384
 Alpha  occ. eigenvalues --   -0.32052  -0.31983  -0.31864  -0.31797  -0.31418
 Alpha  occ. eigenvalues --   -0.31254  -0.30749  -0.30699  -0.30668  -0.30567
 Alpha  occ. eigenvalues --   -0.30452  -0.30390  -0.30019  -0.29912  -0.29879
 Alpha  occ. eigenvalues --   -0.29666  -0.29607  -0.29409  -0.29295  -0.29198
 Alpha  occ. eigenvalues --   -0.28743  -0.28538  -0.28353  -0.28266  -0.28096
 Alpha  occ. eigenvalues --   -0.27761  -0.27057  -0.26718  -0.26541  -0.26372
 Alpha  occ. eigenvalues --   -0.25800  -0.25795  -0.25737  -0.25481  -0.25318
 Alpha  occ. eigenvalues --   -0.25229  -0.25165  -0.24283  -0.24272  -0.23652
 Alpha  occ. eigenvalues --   -0.23192  -0.22769  -0.21852  -0.21560  -0.20542
 Alpha  occ. eigenvalues --   -0.20048  -0.19128  -0.18918  -0.17939  -0.17341
 Alpha  occ. eigenvalues --   -0.15847
 Alpha virt. eigenvalues --   -0.11455  -0.07057  -0.05808  -0.04069  -0.03015
 Alpha virt. eigenvalues --   -0.02281  -0.01796  -0.01664  -0.01491   0.00115
 Alpha virt. eigenvalues --    0.00760   0.01271   0.02002   0.02461   0.02893

 Mulliken charges:
               1
     1  Mg   0.679053
     2  C    0.012688
     3  C   -0.061411
     4  C   -0.052726
     5  C   -0.110075
     6  N   -0.198545
     7  C   -0.114413
     8  C    0.048015
     9  C   -0.043543
    10  C    0.101736
    11  C    0.136994
    12  C    0.112039
    13  C    0.069257
    14  C    0.071495
    15  O   -0.221606
    16  O   -0.248126
    17  N   -0.255819
    18  C    0.051869
    19  C   -0.143329
    20  C    0.046980
    21  C    0.116251
    22  C    0.168387
    23  C   -0.112697
    24  O   -0.174318
    25  C    0.179922
    26  N   -0.190313
    27  C   -0.027263
    28  C    0.048187
    29  C   -0.019513
    30  C    0.026217
    31  C    0.133726
    32  C    0.094483
    33  C    0.066250
    34  N   -0.217930
    35  C    0.138119
    36  C   -0.216622
    37  C    0.144302
    38  C    0.069259
    39  C    0.171710
    40  C   -0.103703
    41  O   -0.056703
    42  C    0.010508
    43  C    0.128942
    44  O   -0.160724
    45  O   -0.296344
    46  C    0.213361
    47  C    0.295710
    48  C   -0.139555
    49  C   -0.104645
    50  C    0.155722
    51  C    0.104527
    52  C    0.066561
    53  C    0.079711
    54  C   -0.071884
    55  C    0.125509
    56  C    0.116899
    57  C    0.064789
    58  C    0.078627
    59  C   -0.075762
    60  C    0.121383
    61  C    0.143345
    62  C    0.068295
    63  C    0.077484
    64  C   -0.077926
    65  C    0.082600
    66  C    0.085623
    67  H   -0.039519
    68  H   -0.096419
    69  H   -0.045343
    70  H   -0.012049
    71  H   -0.027934
    72  H   -0.001795
    73  H   -0.006406
    74  H   -0.012663
    75  H    0.017683
    76  H   -0.019848
    77  H    0.002381
    78  H    0.029460
    79  H    0.021255
    80  H    0.013935
    81  H   -0.031582
    82  H    0.029932
    83  H   -0.004930
    84  H   -0.019595
    85  H   -0.023382
    86  H   -0.032804
    87  H   -0.009333
    88  H   -0.004510
    89  H   -0.005341
    90  H   -0.021147
    91  H   -0.034900
    92  H    0.005504
    93  H   -0.012990
    94  H    0.006163
    95  H    0.008857
    96  H    0.000342
    97  H   -0.009939
    98  H    0.006208
    99  H    0.031771
   100  H    0.013228
   101  H    0.022267
   102  H    0.016156
   103  H    0.016105
   104  H   -0.028754
   105  H   -0.021117
   106  H   -0.002010
   107  H   -0.000205
   108  H   -0.012787
   109  H   -0.047197
   110  H   -0.026820
   111  H   -0.025942
   112  H   -0.040387
   113  H   -0.026266
   114  H   -0.039184
   115  H   -0.021845
   116  H   -0.031302
   117  H   -0.020472
   118  H   -0.047183
   119  H   -0.043095
   120  H   -0.014203
   121  H   -0.037495
   122  H   -0.035932
   123  H   -0.023603
   124  H   -0.041514
   125  H   -0.017710
   126  H   -0.035577
   127  H   -0.015722
   128  H   -0.033580
   129  H   -0.047162
   130  H   -0.032669
   131  H   -0.022055
   132  H   -0.029943
   133  H   -0.029446
   134  H   -0.027244
   135  H   -0.021264
   136  H   -0.018307
   137  H   -0.019479
   138  H   -0.014269
   139  H   -0.015084
   140  H   -0.013033
 Sum of Mulliken charges =  -0.00000

 Dipole moment (field-independent basis, Debye):
    X=             -1.0775    Y=              2.4571    Z=              1.1294  Tot=              2.9110
 Quadrupole moment (field-independent basis, Debye-Ang):
   XX=           -395.2192   YY=           -424.3928   ZZ=           -399.4829
   XY=              3.6785   XZ=             -3.1031   YZ=             43.2572

 Normal termination of Gaussian 16 at Thu Apr 28 13:59:49 2022.
