 Gaussian 16, Revision A.03,
 Gaussian 16:  ES64L-G16RevA.03 25-Dec-2016

 -----------------------------------
 #p cam-b3lyp/Def2SVP td=(nstates=5)
 -----------------------------------

 -------------------------------------------------------
 step_1551_chromophore_8 TDDFT with cam-b3lyp functional
 -------------------------------------------------------
 Symbolic Z-matrix:
 Charge =  0 Multiplicity = 1

                         Standard orientation:
 ---------------------------------------------------------------------
 Center     Atomic      Atomic             Coordinates (Angstroms)
 Number     Number       Type             X           Y           Z
 ---------------------------------------------------------------------
      1         12           0        4.221334    1.095686    0.286120
      2          6           0        4.175892   -2.515620    0.213921
      3          6           0        4.144685    1.012938   -3.168905
      4          6           0        3.525951    4.339071    0.342611
      5          6           0        3.740343    0.927141    3.744891
      6          7           0        4.326222   -0.571851   -1.233133
      7          6           0        4.235984   -1.941058   -1.102685
      8          6           0        4.333868   -2.718020   -2.480191
      9          6           0        4.632644   -1.470484   -3.433308
     10          6           0        4.414327   -0.203606   -2.539260
     11          6           0        6.047382   -1.553006   -4.075051
     12          6           0        2.969371   -3.497019   -2.847252
     13          6           0        1.659967   -2.662969   -2.419823
     14          6           0        0.562789   -3.467086   -1.676532
     15          8           0        0.465024   -4.709843   -1.572390
     16          8           0       -0.323009   -2.623455   -1.120657
     17          7           0        3.902847    2.575116   -1.278560
     18          6           0        3.952053    2.341765   -2.599335
     19          6           0        3.754512    3.659752   -3.284952
     20          6           0        3.595217    4.646536   -2.277200
     21          6           0        3.634818    3.877194   -0.953714
     22          6           0        3.952926    3.822290   -4.805577
     23          6           0        3.433846    6.151003   -2.460624
     24          8           0        3.518183    6.628650   -3.585085
     25          6           0        3.268141    7.144465   -1.392445
     26          7           0        3.652965    2.378392    1.768198
     27          6           0        3.602099    3.685542    1.554390
     28          6           0        3.701315    4.523375    2.808638
     29          6           0        3.534326    3.451093    3.888481
     30          6           0        3.734976    2.128260    3.040561
     31          6           0        4.957227    5.501483    2.888412
     32          6           0        2.182302    3.515447    4.692907
     33          6           0        2.254762    3.872595    6.254542
     34          7           0        4.114729   -0.453975    1.769527
     35          6           0        3.895757   -0.314743    3.055122
     36          6           0        3.826201   -1.630387    3.621208
     37          6           0        3.961416   -2.537920    2.555773
     38          6           0        4.106427   -1.795197    1.424425
     39          6           0        3.548585   -1.941413    5.089567
     40          6           0        3.974528   -3.926447    2.183235
     41          8           0        3.906799   -4.880327    2.846134
     42          6           0        4.174343   -3.962812    0.582532
     43          6           0        5.533665   -4.728809    0.443183
     44          8           0        6.605121   -4.285665    0.761444
     45          8           0        5.235142   -6.001940   -0.048363
     46          6           0        6.505634   -6.845818   -0.196539
     47          6           0       -1.526095   -3.337604   -0.629982
     48          6           0       -2.676488   -2.370295   -0.846621
     49          6           0       -3.793494   -2.408174   -0.134271
     50          6           0       -4.295717   -3.431667    0.838205
     51          6           0       -4.655829   -1.222151   -0.268957
     52          6           0       -5.476611   -1.174876   -1.588819
     53          6           0       -5.150838    0.050379   -2.493566
     54          6           0       -6.337270    1.083604   -2.530435
     55          6           0       -6.348400    1.766190   -3.853974
     56          6           0       -6.310065    2.043950   -1.271829
     57          6           0       -7.694094    2.123959   -0.607801
     58          6           0       -7.743058    1.416502    0.770033
     59          6           0       -9.146600    0.986759    1.153649
     60          6           0       -9.155079    1.114914    2.659303
     61          6           0       -9.706005   -0.378540    0.677313
     62          6           0      -11.124621   -0.302702    0.000499
     63          6           0      -12.182770   -0.947294    0.885997
     64          6           0      -13.556709   -0.253424    0.784820
     65          6           0      -14.107421   -0.265642   -0.664994
     66          6           0      -14.689234   -0.901987    1.747813
     67          1           0        3.909517    1.039071   -4.234735
     68          1           0        3.510872    5.426212    0.445711
     69          1           0        3.431407    1.027501    4.787460
     70          1           0        5.116901   -3.471471   -2.394918
     71          1           0        3.958046   -1.468944   -4.287983
     72          1           0        6.412139   -2.561931   -3.883422
     73          1           0        6.657257   -0.742165   -3.674527
     74          1           0        5.979465   -1.328448   -5.138760
     75          1           0        2.903917   -4.497408   -2.419200
     76          1           0        2.831960   -3.556624   -3.926964
     77          1           0        1.115516   -2.476991   -3.345416
     78          1           0        1.808688   -1.704506   -1.921013
     79          1           0        4.751724    4.562298   -4.772625
     80          1           0        3.121347    4.120162   -5.444055
     81          1           0        4.295507    2.846793   -5.153357
     82          1           0        4.077544    7.109837   -0.663046
     83          1           0        2.274397    6.927370   -1.000141
     84          1           0        3.099980    8.164722   -1.735554
     85          1           0        2.784721    5.101347    2.691137
     86          1           0        4.344781    3.465788    4.617456
     87          1           0        5.514146    5.405598    1.956089
     88          1           0        5.636567    5.248652    3.702217
     89          1           0        4.709927    6.561668    2.941954
     90          1           0        1.629090    2.600166    4.479796
     91          1           0        1.593676    4.239159    4.128186
     92          1           0        1.859291    4.882936    6.361438
     93          1           0        3.308882    3.888047    6.534803
     94          1           0        1.822664    3.154858    6.952019
     95          1           0        3.814722   -2.937672    5.441494
     96          1           0        2.516188   -1.695617    5.336243
     97          1           0        4.171241   -1.192780    5.580206
     98          1           0        3.375943   -4.428173    0.003784
     99          1           0        7.044788   -6.701941    0.740099
    100          1           0        7.095052   -6.490957   -1.041177
    101          1           0        6.223165   -7.878331   -0.400707
    102          1           0       -1.498530   -3.690121    0.401321
    103          1           0       -1.899676   -4.138490   -1.267088
    104          1           0       -2.352417   -1.507801   -1.428371
    105          1           0       -3.721655   -4.356734    0.794931
    106          1           0       -5.340229   -3.734169    0.758791
    107          1           0       -4.159314   -3.034190    1.843949
    108          1           0       -4.030397   -0.350173   -0.078848
    109          1           0       -5.443028   -1.084330    0.472121
    110          1           0       -6.525772   -1.209555   -1.295865
    111          1           0       -5.294316   -2.023692   -2.249252
    112          1           0       -4.936167   -0.346692   -3.486124
    113          1           0       -4.239809    0.478059   -2.075251
    114          1           0       -7.272645    0.524473   -2.495921
    115          1           0       -7.285428    2.105369   -4.295778
    116          1           0       -6.014796    1.014389   -4.568024
    117          1           0       -5.645772    2.598700   -3.799411
    118          1           0       -5.934061    3.024353   -1.565036
    119          1           0       -5.536105    1.710009   -0.580634
    120          1           0       -8.475030    1.766696   -1.278528
    121          1           0       -7.783625    3.187251   -0.381328
    122          1           0       -7.465985    2.248682    1.416396
    123          1           0       -7.002794    0.618659    0.828153
    124          1           0       -9.736789    1.777408    0.690076
    125          1           0       -8.189793    1.117456    3.165522
    126          1           0       -9.650943    0.229769    3.056796
    127          1           0       -9.682983    2.029700    2.930336
    128          1           0       -9.761784   -1.100363    1.491785
    129          1           0       -8.993143   -0.803711   -0.028627
    130          1           0      -11.131954   -0.929577   -0.891036
    131          1           0      -11.438259    0.690296   -0.320443
    132          1           0      -11.882037   -0.875234    1.930836
    133          1           0      -12.213899   -2.004316    0.622150
    134          1           0      -13.422217    0.792432    1.058168
    135          1           0      -14.983881   -0.903570   -0.775470
    136          1           0      -13.488624   -0.576455   -1.506813
    137          1           0      -14.370936    0.764078   -0.908038
    138          1           0      -15.461694   -0.220626    2.102567
    139          1           0      -14.175346   -1.322901    2.612535
    140          1           0      -15.261913   -1.641290    1.188281
 ---------------------------------------------------------------------

 SCF Done:  E(RCAM-B3LYP) =  -3007.12923586     A.U. after   17 cycles

 Excitation energies and oscillator strengths:

 Excited State   1:      Singlet-A      1.7416 eV  711.91 nm  f=0.3836  <S**2>=0.000
     245 -> 248       -0.18548
     246 -> 247        0.68450
     245 <- 248       -0.10788
 This state for optimization and/or second-order correction.
 Total Energy, E(TD-HF/TD-DFT) =  -3007.06523406
 Copying the excited state density for this state as the 1-particle RhoCI density.

 Excited State   2:      Singlet-A      2.2637 eV  547.71 nm  f=0.0787  <S**2>=0.000
     245 -> 247        0.62461
     246 -> 248        0.32029

 Excited State   3:      Singlet-A      3.3454 eV  370.61 nm  f=0.0023  <S**2>=0.000
     243 -> 247        0.67757
     246 -> 248       -0.10241

 Excited State   4:      Singlet-A      3.4678 eV  357.53 nm  f=0.3537  <S**2>=0.000
     241 -> 247       -0.18578
     242 -> 247       -0.36551
     245 -> 247       -0.22933
     246 -> 248        0.50285

 Excited State   5:      Singlet-A      3.5409 eV  350.15 nm  f=0.1192  <S**2>=0.000
     240 -> 247        0.39684
     240 -> 248        0.11685
     240 -> 249       -0.24721
     240 -> 251        0.17071
     241 -> 249        0.18927
     242 -> 247       -0.29582
     245 -> 247        0.13482
     246 -> 248       -0.21639

 The electronic state is 1-A.
 Alpha  occ. eigenvalues --  -46.89872 -19.25820 -19.24734 -19.20366 -19.19186
 Alpha  occ. eigenvalues --  -19.18997 -19.18086 -14.42929 -14.42278 -14.40007
 Alpha  occ. eigenvalues --  -14.38667 -10.39400 -10.39350 -10.34712 -10.34412
 Alpha  occ. eigenvalues --  -10.31768 -10.31738 -10.31461 -10.31405 -10.30874
 Alpha  occ. eigenvalues --  -10.30849 -10.30572 -10.30524 -10.29346 -10.29111
 Alpha  occ. eigenvalues --  -10.29100 -10.28170 -10.28121 -10.28063 -10.28048
 Alpha  occ. eigenvalues --  -10.28004 -10.27872 -10.27871 -10.27659 -10.27658
 Alpha  occ. eigenvalues --  -10.27645 -10.27129 -10.27108 -10.27105 -10.26695
 Alpha  occ. eigenvalues --  -10.26581 -10.26473 -10.26279 -10.26159 -10.26034
 Alpha  occ. eigenvalues --  -10.25988 -10.25978 -10.25884 -10.25582 -10.25169
 Alpha  occ. eigenvalues --  -10.25114 -10.24950 -10.24839 -10.24747 -10.24745
 Alpha  occ. eigenvalues --  -10.24682 -10.24530 -10.24525 -10.24518 -10.24500
 Alpha  occ. eigenvalues --  -10.24404 -10.24392 -10.24107 -10.23951 -10.23841
 Alpha  occ. eigenvalues --  -10.23706  -3.18263  -1.93168  -1.92724  -1.92550
 Alpha  occ. eigenvalues --   -1.16801  -1.15273  -1.12956  -1.09741  -1.07625
 Alpha  occ. eigenvalues --   -1.06887  -1.06224  -1.04298  -1.03329  -1.02556
 Alpha  occ. eigenvalues --   -0.92797  -0.90916  -0.90162  -0.89526  -0.88806
 Alpha  occ. eigenvalues --   -0.88595  -0.88195  -0.87469  -0.87222  -0.85705
 Alpha  occ. eigenvalues --   -0.85487  -0.85160  -0.84003  -0.83386  -0.83298
 Alpha  occ. eigenvalues --   -0.82539  -0.82232  -0.81276  -0.80791  -0.80276
 Alpha  occ. eigenvalues --   -0.79901  -0.77725  -0.77400  -0.77266  -0.75975
 Alpha  occ. eigenvalues --   -0.75772  -0.75235  -0.74877  -0.74631  -0.74313
 Alpha  occ. eigenvalues --   -0.73018  -0.72187  -0.71486  -0.70133  -0.70079
 Alpha  occ. eigenvalues --   -0.68451  -0.67927  -0.67284  -0.66923  -0.66823
 Alpha  occ. eigenvalues --   -0.65466  -0.65114  -0.64736  -0.64408  -0.63790
 Alpha  occ. eigenvalues --   -0.63386  -0.63192  -0.62510  -0.61424  -0.59869
 Alpha  occ. eigenvalues --   -0.59738  -0.59410  -0.58952  -0.58397  -0.57480
 Alpha  occ. eigenvalues --   -0.57376  -0.56670  -0.56357  -0.56307  -0.55380
 Alpha  occ. eigenvalues --   -0.55168  -0.54314  -0.54296  -0.54081  -0.53877
 Alpha  occ. eigenvalues --   -0.53686  -0.53528  -0.53252  -0.53004  -0.52767
 Alpha  occ. eigenvalues --   -0.52662  -0.52256  -0.52110  -0.51645  -0.51586
 Alpha  occ. eigenvalues --   -0.51343  -0.51297  -0.50850  -0.50725  -0.50685
 Alpha  occ. eigenvalues --   -0.50508  -0.50437  -0.50134  -0.49812  -0.49721
 Alpha  occ. eigenvalues --   -0.49598  -0.49572  -0.49110  -0.49078  -0.48938
 Alpha  occ. eigenvalues --   -0.48823  -0.48302  -0.48171  -0.47719  -0.47607
 Alpha  occ. eigenvalues --   -0.47299  -0.47137  -0.47026  -0.46828  -0.46676
 Alpha  occ. eigenvalues --   -0.46520  -0.46448  -0.46327  -0.46185  -0.45894
 Alpha  occ. eigenvalues --   -0.45759  -0.45607  -0.45473  -0.45134  -0.45056
 Alpha  occ. eigenvalues --   -0.44660  -0.44583  -0.44398  -0.44173  -0.43946
 Alpha  occ. eigenvalues --   -0.43694  -0.43634  -0.43437  -0.43268  -0.42968
 Alpha  occ. eigenvalues --   -0.42855  -0.42298  -0.42189  -0.42032  -0.41976
 Alpha  occ. eigenvalues --   -0.41847  -0.41717  -0.41527  -0.41483  -0.41057
 Alpha  occ. eigenvalues --   -0.40988  -0.40801  -0.40593  -0.40414  -0.40250
 Alpha  occ. eigenvalues --   -0.39850  -0.39603  -0.39509  -0.39229  -0.39113
 Alpha  occ. eigenvalues --   -0.38726  -0.37810  -0.37494  -0.37257  -0.37112
 Alpha  occ. eigenvalues --   -0.36899  -0.36843  -0.36805  -0.36426  -0.36399
 Alpha  occ. eigenvalues --   -0.36372  -0.35820  -0.34772  -0.34765  -0.34078
 Alpha  occ. eigenvalues --   -0.34049  -0.33728  -0.33477  -0.31491  -0.30493
 Alpha  occ. eigenvalues --   -0.30432  -0.30007  -0.29201  -0.28818  -0.24194
 Alpha  occ. eigenvalues --   -0.21152
 Alpha virt. eigenvalues --   -0.08524  -0.02013   0.00789   0.01939   0.03119
 Alpha virt. eigenvalues --    0.04938   0.05778   0.05927   0.06037   0.06995
 Alpha virt. eigenvalues --    0.07454   0.08099   0.08148   0.09030   0.09099

 Mulliken charges:
               1
     1  Mg   0.810507
     2  C   -0.009759
     3  C   -0.068748
     4  C   -0.075554
     5  C   -0.108987
     6  N   -0.264145
     7  C   -0.080496
     8  C    0.007076
     9  C   -0.095479
    10  C    0.107588
    11  C    0.082255
    12  C    0.064735
    13  C   -0.002713
    14  C    0.154643
    15  O   -0.266317
    16  O   -0.311066
    17  N   -0.342199
    18  C    0.058711
    19  C   -0.143416
    20  C   -0.023484
    21  C    0.146847
    22  C    0.119714
    23  C   -0.033359
    24  O   -0.213240
    25  C    0.090019
    26  N   -0.270265
    27  C    0.001507
    28  C   -0.016423
    29  C   -0.068469
    30  C    0.041495
    31  C    0.075420
    32  C    0.035478
    33  C    0.005969
    34  N   -0.309122
    35  C    0.142353
    36  C   -0.211005
    37  C    0.062026
    38  C    0.101178
    39  C    0.121331
    40  C   -0.008221
    41  O   -0.095822
    42  C   -0.050054
    43  C    0.212092
    44  O   -0.197809
    45  O   -0.360681
    46  C    0.174101
    47  C    0.260393
    48  C   -0.153994
    49  C   -0.128854
    50  C    0.091874
    51  C    0.041285
    52  C    0.018203
    53  C    0.027294
    54  C   -0.127255
    55  C    0.067398
    56  C    0.064667
    57  C    0.009994
    58  C    0.033030
    59  C   -0.131353
    60  C    0.060368
    61  C    0.088473
    62  C    0.009940
    63  C    0.031220
    64  C   -0.138119
    65  C    0.019497
    66  C    0.031310
    67  H   -0.005668
    68  H   -0.059698
    69  H   -0.010967
    70  H    0.020668
    71  H    0.005662
    72  H    0.021531
    73  H    0.019554
    74  H    0.011462
    75  H    0.048901
    76  H    0.010961
    77  H    0.033566
    78  H    0.060366
    79  H    0.047854
    80  H    0.041443
    81  H   -0.006824
    82  H    0.053770
    83  H    0.024335
    84  H    0.019040
    85  H    0.012206
    86  H    0.001969
    87  H    0.015395
    88  H    0.021020
    89  H    0.019070
    90  H    0.009999
    91  H   -0.005816
    92  H    0.028017
    93  H    0.008834
    94  H    0.029343
    95  H    0.036011
    96  H    0.025192
    97  H    0.012514
    98  H    0.045593
    99  H    0.056068
   100  H    0.034864
   101  H    0.046368
   102  H    0.042399
   103  H    0.046531
   104  H    0.006533
   105  H    0.003747
   106  H    0.023488
   107  H    0.025453
   108  H    0.016050
   109  H   -0.016598
   110  H   -0.002464
   111  H    0.004218
   112  H   -0.009863
   113  H   -0.000544
   114  H   -0.008804
   115  H    0.003973
   116  H   -0.006411
   117  H    0.002156
   118  H   -0.016567
   119  H   -0.015432
   120  H    0.010030
   121  H   -0.007618
   122  H   -0.004619
   123  H   -0.004352
   124  H   -0.008850
   125  H    0.007950
   126  H   -0.012158
   127  H    0.009280
   128  H   -0.004366
   129  H   -0.019427
   130  H   -0.003479
   131  H    0.004816
   132  H   -0.004890
   133  H   -0.001576
   134  H    0.003388
   135  H    0.003209
   136  H    0.006103
   137  H    0.005130
   138  H    0.010375
   139  H    0.008250
   140  H    0.008751
 Sum of Mulliken charges =  -0.00000

 Dipole moment (field-independent basis, Debye):
    X=             -1.0321    Y=              2.9378    Z=              0.7826  Tot=              3.2106
 Quadrupole moment (field-independent basis, Debye-Ang):
   XX=           -394.5158   YY=           -420.9661   ZZ=           -397.3412
   XY=              4.5962   XZ=             -4.8512   YZ=             44.5044

 Normal termination of Gaussian 16 at Thu Apr 28 12:59:51 2022.
