 Gaussian 16, Revision A.03,
 Gaussian 16:  ES64L-G16RevA.03 25-Dec-2016

 ---------------------------------
 #p PBE1PBE/Def2SVP td=(nstates=5)
 ---------------------------------

 -----------------------------------------------------
 step_1551_chromophore_8 TDDFT with PBE1PBE functional
 -----------------------------------------------------
 Symbolic Z-matrix:
 Charge =  0 Multiplicity = 1

                         Standard orientation:
 ---------------------------------------------------------------------
 Center     Atomic      Atomic             Coordinates (Angstroms)
 Number     Number       Type             X           Y           Z
 ---------------------------------------------------------------------
      1         12           0        4.221334    1.095686    0.286120
      2          6           0        4.175892   -2.515620    0.213921
      3          6           0        4.144685    1.012938   -3.168905
      4          6           0        3.525951    4.339071    0.342611
      5          6           0        3.740343    0.927141    3.744891
      6          7           0        4.326222   -0.571851   -1.233133
      7          6           0        4.235984   -1.941058   -1.102685
      8          6           0        4.333868   -2.718020   -2.480191
      9          6           0        4.632644   -1.470484   -3.433308
     10          6           0        4.414327   -0.203606   -2.539260
     11          6           0        6.047382   -1.553006   -4.075051
     12          6           0        2.969371   -3.497019   -2.847252
     13          6           0        1.659967   -2.662969   -2.419823
     14          6           0        0.562789   -3.467086   -1.676532
     15          8           0        0.465024   -4.709843   -1.572390
     16          8           0       -0.323009   -2.623455   -1.120657
     17          7           0        3.902847    2.575116   -1.278560
     18          6           0        3.952053    2.341765   -2.599335
     19          6           0        3.754512    3.659752   -3.284952
     20          6           0        3.595217    4.646536   -2.277200
     21          6           0        3.634818    3.877194   -0.953714
     22          6           0        3.952926    3.822290   -4.805577
     23          6           0        3.433846    6.151003   -2.460624
     24          8           0        3.518183    6.628650   -3.585085
     25          6           0        3.268141    7.144465   -1.392445
     26          7           0        3.652965    2.378392    1.768198
     27          6           0        3.602099    3.685542    1.554390
     28          6           0        3.701315    4.523375    2.808638
     29          6           0        3.534326    3.451093    3.888481
     30          6           0        3.734976    2.128260    3.040561
     31          6           0        4.957227    5.501483    2.888412
     32          6           0        2.182302    3.515447    4.692907
     33          6           0        2.254762    3.872595    6.254542
     34          7           0        4.114729   -0.453975    1.769527
     35          6           0        3.895757   -0.314743    3.055122
     36          6           0        3.826201   -1.630387    3.621208
     37          6           0        3.961416   -2.537920    2.555773
     38          6           0        4.106427   -1.795197    1.424425
     39          6           0        3.548585   -1.941413    5.089567
     40          6           0        3.974528   -3.926447    2.183235
     41          8           0        3.906799   -4.880327    2.846134
     42          6           0        4.174343   -3.962812    0.582532
     43          6           0        5.533665   -4.728809    0.443183
     44          8           0        6.605121   -4.285665    0.761444
     45          8           0        5.235142   -6.001940   -0.048363
     46          6           0        6.505634   -6.845818   -0.196539
     47          6           0       -1.526095   -3.337604   -0.629982
     48          6           0       -2.676488   -2.370295   -0.846621
     49          6           0       -3.793494   -2.408174   -0.134271
     50          6           0       -4.295717   -3.431667    0.838205
     51          6           0       -4.655829   -1.222151   -0.268957
     52          6           0       -5.476611   -1.174876   -1.588819
     53          6           0       -5.150838    0.050379   -2.493566
     54          6           0       -6.337270    1.083604   -2.530435
     55          6           0       -6.348400    1.766190   -3.853974
     56          6           0       -6.310065    2.043950   -1.271829
     57          6           0       -7.694094    2.123959   -0.607801
     58          6           0       -7.743058    1.416502    0.770033
     59          6           0       -9.146600    0.986759    1.153649
     60          6           0       -9.155079    1.114914    2.659303
     61          6           0       -9.706005   -0.378540    0.677313
     62          6           0      -11.124621   -0.302702    0.000499
     63          6           0      -12.182770   -0.947294    0.885997
     64          6           0      -13.556709   -0.253424    0.784820
     65          6           0      -14.107421   -0.265642   -0.664994
     66          6           0      -14.689234   -0.901987    1.747813
     67          1           0        3.909517    1.039071   -4.234735
     68          1           0        3.510872    5.426212    0.445711
     69          1           0        3.431407    1.027501    4.787460
     70          1           0        5.116901   -3.471471   -2.394918
     71          1           0        3.958046   -1.468944   -4.287983
     72          1           0        6.412139   -2.561931   -3.883422
     73          1           0        6.657257   -0.742165   -3.674527
     74          1           0        5.979465   -1.328448   -5.138760
     75          1           0        2.903917   -4.497408   -2.419200
     76          1           0        2.831960   -3.556624   -3.926964
     77          1           0        1.115516   -2.476991   -3.345416
     78          1           0        1.808688   -1.704506   -1.921013
     79          1           0        4.751724    4.562298   -4.772625
     80          1           0        3.121347    4.120162   -5.444055
     81          1           0        4.295507    2.846793   -5.153357
     82          1           0        4.077544    7.109837   -0.663046
     83          1           0        2.274397    6.927370   -1.000141
     84          1           0        3.099980    8.164722   -1.735554
     85          1           0        2.784721    5.101347    2.691137
     86          1           0        4.344781    3.465788    4.617456
     87          1           0        5.514146    5.405598    1.956089
     88          1           0        5.636567    5.248652    3.702217
     89          1           0        4.709927    6.561668    2.941954
     90          1           0        1.629090    2.600166    4.479796
     91          1           0        1.593676    4.239159    4.128186
     92          1           0        1.859291    4.882936    6.361438
     93          1           0        3.308882    3.888047    6.534803
     94          1           0        1.822664    3.154858    6.952019
     95          1           0        3.814722   -2.937672    5.441494
     96          1           0        2.516188   -1.695617    5.336243
     97          1           0        4.171241   -1.192780    5.580206
     98          1           0        3.375943   -4.428173    0.003784
     99          1           0        7.044788   -6.701941    0.740099
    100          1           0        7.095052   -6.490957   -1.041177
    101          1           0        6.223165   -7.878331   -0.400707
    102          1           0       -1.498530   -3.690121    0.401321
    103          1           0       -1.899676   -4.138490   -1.267088
    104          1           0       -2.352417   -1.507801   -1.428371
    105          1           0       -3.721655   -4.356734    0.794931
    106          1           0       -5.340229   -3.734169    0.758791
    107          1           0       -4.159314   -3.034190    1.843949
    108          1           0       -4.030397   -0.350173   -0.078848
    109          1           0       -5.443028   -1.084330    0.472121
    110          1           0       -6.525772   -1.209555   -1.295865
    111          1           0       -5.294316   -2.023692   -2.249252
    112          1           0       -4.936167   -0.346692   -3.486124
    113          1           0       -4.239809    0.478059   -2.075251
    114          1           0       -7.272645    0.524473   -2.495921
    115          1           0       -7.285428    2.105369   -4.295778
    116          1           0       -6.014796    1.014389   -4.568024
    117          1           0       -5.645772    2.598700   -3.799411
    118          1           0       -5.934061    3.024353   -1.565036
    119          1           0       -5.536105    1.710009   -0.580634
    120          1           0       -8.475030    1.766696   -1.278528
    121          1           0       -7.783625    3.187251   -0.381328
    122          1           0       -7.465985    2.248682    1.416396
    123          1           0       -7.002794    0.618659    0.828153
    124          1           0       -9.736789    1.777408    0.690076
    125          1           0       -8.189793    1.117456    3.165522
    126          1           0       -9.650943    0.229769    3.056796
    127          1           0       -9.682983    2.029700    2.930336
    128          1           0       -9.761784   -1.100363    1.491785
    129          1           0       -8.993143   -0.803711   -0.028627
    130          1           0      -11.131954   -0.929577   -0.891036
    131          1           0      -11.438259    0.690296   -0.320443
    132          1           0      -11.882037   -0.875234    1.930836
    133          1           0      -12.213899   -2.004316    0.622150
    134          1           0      -13.422217    0.792432    1.058168
    135          1           0      -14.983881   -0.903570   -0.775470
    136          1           0      -13.488624   -0.576455   -1.506813
    137          1           0      -14.370936    0.764078   -0.908038
    138          1           0      -15.461694   -0.220626    2.102567
    139          1           0      -14.175346   -1.322901    2.612535
    140          1           0      -15.261913   -1.641290    1.188281
 ---------------------------------------------------------------------

 SCF Done:  E(RPBE1PBE) =  -3005.31753757     A.U. after   15 cycles

 Excitation energies and oscillator strengths:

 Excited State   1:      Singlet-A      1.8974 eV  653.44 nm  f=0.3703  <S**2>=0.000
     245 -> 248       -0.18082
     246 -> 247        0.69087
     246 <- 247       -0.10621
 This state for optimization and/or second-order correction.
 Total Energy, E(TD-HF/TD-DFT) =  -3005.24780955
 Copying the excited state density for this state as the 1-particle RhoCI density.

 Excited State   2:      Singlet-A      2.2710 eV  545.94 nm  f=0.0794  <S**2>=0.000
     245 -> 247        0.63843
     246 -> 248        0.29068

 Excited State   3:      Singlet-A      2.9818 eV  415.80 nm  f=0.0000  <S**2>=0.000
     242 -> 247        0.61388
     242 -> 249       -0.16524
     243 -> 247        0.27504

 Excited State   4:      Singlet-A      3.0134 eV  411.45 nm  f=0.0010  <S**2>=0.000
     241 -> 247        0.22881
     242 -> 247       -0.25910
     243 -> 247        0.59847

 Excited State   5:      Singlet-A      3.0615 eV  404.98 nm  f=0.0092  <S**2>=0.000
     240 -> 247        0.24034
     241 -> 247        0.58446
     243 -> 247       -0.22955
     246 -> 248       -0.12327

 The electronic state is 1-A.
 Alpha  occ. eigenvalues --  -46.93228 -19.26486 -19.25461 -19.20606 -19.19517
 Alpha  occ. eigenvalues --  -19.19220 -19.18244 -14.42387 -14.41770 -14.39568
 Alpha  occ. eigenvalues --  -14.38359 -10.36473 -10.36402 -10.31801 -10.31594
 Alpha  occ. eigenvalues --  -10.29602 -10.29162 -10.29017 -10.28820 -10.28442
 Alpha  occ. eigenvalues --  -10.28429 -10.28311 -10.28170 -10.27214 -10.26856
 Alpha  occ. eigenvalues --  -10.26686 -10.25980 -10.25885 -10.25831 -10.25814
 Alpha  occ. eigenvalues --  -10.25587 -10.25554 -10.25520 -10.25459 -10.25330
 Alpha  occ. eigenvalues --  -10.25305 -10.24950 -10.24817 -10.24584 -10.24425
 Alpha  occ. eigenvalues --  -10.24105 -10.24046 -10.23956 -10.23481 -10.23447
 Alpha  occ. eigenvalues --  -10.23423 -10.23400 -10.23325 -10.23090 -10.22859
 Alpha  occ. eigenvalues --  -10.22692 -10.22623 -10.22381 -10.22275 -10.22237
 Alpha  occ. eigenvalues --  -10.22154 -10.22104 -10.22080 -10.22061 -10.22021
 Alpha  occ. eigenvalues --  -10.21951 -10.21921 -10.21697 -10.21497 -10.21230
 Alpha  occ. eigenvalues --  -10.21059  -3.15204  -1.88049  -1.87584  -1.87411
 Alpha  occ. eigenvalues --   -1.11626  -1.10039  -1.07790  -1.04423  -1.02509
 Alpha  occ. eigenvalues --   -1.01535  -1.01074  -0.99053  -0.97914  -0.97167
 Alpha  occ. eigenvalues --   -0.87196  -0.85042  -0.84257  -0.83853  -0.83094
 Alpha  occ. eigenvalues --   -0.82690  -0.82392  -0.81586  -0.81527  -0.79975
 Alpha  occ. eigenvalues --   -0.79781  -0.79415  -0.78217  -0.77662  -0.77478
 Alpha  occ. eigenvalues --   -0.76671  -0.76419  -0.75478  -0.75045  -0.74472
 Alpha  occ. eigenvalues --   -0.74171  -0.71994  -0.71694  -0.71505  -0.70305
 Alpha  occ. eigenvalues --   -0.69950  -0.69579  -0.68944  -0.68778  -0.68456
 Alpha  occ. eigenvalues --   -0.67410  -0.66565  -0.65926  -0.64500  -0.64408
 Alpha  occ. eigenvalues --   -0.62979  -0.62133  -0.61680  -0.61367  -0.61041
 Alpha  occ. eigenvalues --   -0.59924  -0.59649  -0.59034  -0.58923  -0.57880
 Alpha  occ. eigenvalues --   -0.57843  -0.57337  -0.56704  -0.56046  -0.54384
 Alpha  occ. eigenvalues --   -0.54140  -0.54005  -0.53564  -0.52965  -0.52050
 Alpha  occ. eigenvalues --   -0.51782  -0.51035  -0.50876  -0.50759  -0.49899
 Alpha  occ. eigenvalues --   -0.49787  -0.48801  -0.48724  -0.48635  -0.48331
 Alpha  occ. eigenvalues --   -0.48229  -0.48028  -0.47727  -0.47592  -0.47355
 Alpha  occ. eigenvalues --   -0.47176  -0.46739  -0.46686  -0.46166  -0.46119
 Alpha  occ. eigenvalues --   -0.45866  -0.45804  -0.45344  -0.45335  -0.45258
 Alpha  occ. eigenvalues --   -0.45087  -0.44974  -0.44668  -0.44420  -0.44236
 Alpha  occ. eigenvalues --   -0.44190  -0.44156  -0.43643  -0.43616  -0.43527
 Alpha  occ. eigenvalues --   -0.43427  -0.42993  -0.42770  -0.42399  -0.42257
 Alpha  occ. eigenvalues --   -0.41987  -0.41767  -0.41687  -0.41500  -0.41326
 Alpha  occ. eigenvalues --   -0.41153  -0.41105  -0.40995  -0.40882  -0.40577
 Alpha  occ. eigenvalues --   -0.40488  -0.40324  -0.40149  -0.39928  -0.39778
 Alpha  occ. eigenvalues --   -0.39270  -0.39187  -0.39164  -0.38984  -0.38598
 Alpha  occ. eigenvalues --   -0.38450  -0.38424  -0.38200  -0.37952  -0.37767
 Alpha  occ. eigenvalues --   -0.37693  -0.37138  -0.37058  -0.36898  -0.36679
 Alpha  occ. eigenvalues --   -0.36608  -0.36526  -0.36423  -0.36272  -0.35917
 Alpha  occ. eigenvalues --   -0.35760  -0.35730  -0.35335  -0.35219  -0.35144
 Alpha  occ. eigenvalues --   -0.34803  -0.34464  -0.34307  -0.34118  -0.33974
 Alpha  occ. eigenvalues --   -0.33520  -0.32586  -0.32328  -0.32263  -0.31901
 Alpha  occ. eigenvalues --   -0.31896  -0.31798  -0.31760  -0.31438  -0.31260
 Alpha  occ. eigenvalues --   -0.31236  -0.30717  -0.29817  -0.29676  -0.29290
 Alpha  occ. eigenvalues --   -0.28995  -0.28983  -0.28470  -0.27078  -0.25629
 Alpha  occ. eigenvalues --   -0.25425  -0.25065  -0.24900  -0.24050  -0.21099
 Alpha  occ. eigenvalues --   -0.18789
 Alpha virt. eigenvalues --   -0.11019  -0.05467  -0.03471  -0.01385  -0.00774
 Alpha virt. eigenvalues --    0.01019   0.01165   0.01368   0.01533   0.03172
 Alpha virt. eigenvalues --    0.03422   0.04086   0.04856   0.05348   0.05684

 Mulliken charges:
               1
     1  Mg   0.949900
     2  C   -0.017113
     3  C   -0.059876
     4  C   -0.070405
     5  C   -0.086279
     6  N   -0.366172
     7  C   -0.002974
     8  C   -0.060787
     9  C   -0.166710
    10  C    0.131732
    11  C    0.026894
    12  C    0.019661
    13  C   -0.084213
    14  C    0.222654
    15  O   -0.298079
    16  O   -0.341362
    17  N   -0.455964
    18  C    0.091811
    19  C   -0.168123
    20  C   -0.075368
    21  C    0.182767
    22  C    0.061736
    23  C    0.018166
    24  O   -0.247362
    25  C    0.011290
    26  N   -0.383542
    27  C    0.034444
    28  C   -0.092662
    29  C   -0.138700
    30  C    0.074934
    31  C    0.016666
    32  C   -0.022176
    33  C   -0.067123
    34  N   -0.439850
    35  C    0.168083
    36  C   -0.228677
    37  C    0.006023
    38  C    0.148573
    39  C    0.067587
    40  C    0.092564
    41  O   -0.143796
    42  C   -0.158058
    43  C    0.295742
    44  O   -0.230698
    45  O   -0.389374
    46  C    0.116984
    47  C    0.220327
    48  C   -0.162570
    49  C   -0.175411
    50  C    0.027665
    51  C   -0.029182
    52  C   -0.040874
    53  C   -0.029829
    54  C   -0.216415
    55  C    0.009033
    56  C    0.018396
    57  C   -0.058981
    58  C   -0.032407
    59  C   -0.212315
    60  C   -0.000294
    61  C    0.027899
    62  C   -0.053156
    63  C   -0.022399
    64  C   -0.234008
    65  C   -0.036802
    66  C   -0.029259
    67  H    0.024774
    68  H   -0.023745
    69  H    0.019900
    70  H    0.058499
    71  H    0.041486
    72  H    0.048470
    73  H    0.047545
    74  H    0.038709
    75  H    0.077290
    76  H    0.044209
    77  H    0.067374
    78  H    0.094106
    79  H    0.075086
    80  H    0.067344
    81  H    0.020650
    82  H    0.077622
    83  H    0.052425
    84  H    0.047384
    85  H    0.049015
    86  H    0.039531
    87  H    0.043636
    88  H    0.047908
    89  H    0.046024
    90  H    0.042250
    91  H    0.028088
    92  H    0.055578
    93  H    0.035940
    94  H    0.055838
    95  H    0.063347
    96  H    0.054094
    97  H    0.040693
    98  H    0.085072
    99  H    0.077368
   100  H    0.057142
   101  H    0.067959
   102  H    0.068436
   103  H    0.074578
   104  H    0.036486
   105  H    0.030939
   106  H    0.050453
   107  H    0.053680
   108  H    0.046859
   109  H    0.018880
   110  H    0.033255
   111  H    0.036858
   112  H    0.021804
   113  H    0.032116
   114  H    0.029641
   115  H    0.031612
   116  H    0.021442
   117  H    0.030072
   118  H    0.015332
   119  H    0.017948
   120  H    0.042252
   121  H    0.026763
   122  H    0.030238
   123  H    0.036525
   124  H    0.029875
   125  H    0.035040
   126  H    0.015392
   127  H    0.037325
   128  H    0.026817
   129  H    0.018287
   130  H    0.029646
   131  H    0.035435
   132  H    0.028981
   133  H    0.031063
   134  H    0.040982
   135  H    0.029973
   136  H    0.032506
   137  H    0.032787
   138  H    0.037923
   139  H    0.035498
   140  H    0.035508
 Sum of Mulliken charges =  -0.00000

 Dipole moment (field-independent basis, Debye):
    X=             -1.0180    Y=              2.8546    Z=              0.9691  Tot=              3.1818
 Quadrupole moment (field-independent basis, Debye-Ang):
   XX=           -391.8734   YY=           -417.9940   ZZ=           -392.6764
   XY=              4.1837   XZ=             -4.4799   YZ=             45.3756

 Normal termination of Gaussian 16 at Thu Apr 28 13:18:15 2022.
