 Gaussian 16, Revision A.03,
 Gaussian 16:  ES64L-G16RevA.03 25-Dec-2016

 --------------------------------
 #p wB97XD/Def2SVP td=(nstates=5)
 --------------------------------

 ----------------------------------------------------
 step_1551_chromophore_8 TDDFT with wB97XD functional
 ----------------------------------------------------
 Symbolic Z-matrix:
 Charge =  0 Multiplicity = 1

                         Standard orientation:
 ---------------------------------------------------------------------
 Center     Atomic      Atomic             Coordinates (Angstroms)
 Number     Number       Type             X           Y           Z
 ---------------------------------------------------------------------
      1         12           0        4.221334    1.095686    0.286120
      2          6           0        4.175892   -2.515620    0.213921
      3          6           0        4.144685    1.012938   -3.168905
      4          6           0        3.525951    4.339071    0.342611
      5          6           0        3.740343    0.927141    3.744891
      6          7           0        4.326222   -0.571851   -1.233133
      7          6           0        4.235984   -1.941058   -1.102685
      8          6           0        4.333868   -2.718020   -2.480191
      9          6           0        4.632644   -1.470484   -3.433308
     10          6           0        4.414327   -0.203606   -2.539260
     11          6           0        6.047382   -1.553006   -4.075051
     12          6           0        2.969371   -3.497019   -2.847252
     13          6           0        1.659967   -2.662969   -2.419823
     14          6           0        0.562789   -3.467086   -1.676532
     15          8           0        0.465024   -4.709843   -1.572390
     16          8           0       -0.323009   -2.623455   -1.120657
     17          7           0        3.902847    2.575116   -1.278560
     18          6           0        3.952053    2.341765   -2.599335
     19          6           0        3.754512    3.659752   -3.284952
     20          6           0        3.595217    4.646536   -2.277200
     21          6           0        3.634818    3.877194   -0.953714
     22          6           0        3.952926    3.822290   -4.805577
     23          6           0        3.433846    6.151003   -2.460624
     24          8           0        3.518183    6.628650   -3.585085
     25          6           0        3.268141    7.144465   -1.392445
     26          7           0        3.652965    2.378392    1.768198
     27          6           0        3.602099    3.685542    1.554390
     28          6           0        3.701315    4.523375    2.808638
     29          6           0        3.534326    3.451093    3.888481
     30          6           0        3.734976    2.128260    3.040561
     31          6           0        4.957227    5.501483    2.888412
     32          6           0        2.182302    3.515447    4.692907
     33          6           0        2.254762    3.872595    6.254542
     34          7           0        4.114729   -0.453975    1.769527
     35          6           0        3.895757   -0.314743    3.055122
     36          6           0        3.826201   -1.630387    3.621208
     37          6           0        3.961416   -2.537920    2.555773
     38          6           0        4.106427   -1.795197    1.424425
     39          6           0        3.548585   -1.941413    5.089567
     40          6           0        3.974528   -3.926447    2.183235
     41          8           0        3.906799   -4.880327    2.846134
     42          6           0        4.174343   -3.962812    0.582532
     43          6           0        5.533665   -4.728809    0.443183
     44          8           0        6.605121   -4.285665    0.761444
     45          8           0        5.235142   -6.001940   -0.048363
     46          6           0        6.505634   -6.845818   -0.196539
     47          6           0       -1.526095   -3.337604   -0.629982
     48          6           0       -2.676488   -2.370295   -0.846621
     49          6           0       -3.793494   -2.408174   -0.134271
     50          6           0       -4.295717   -3.431667    0.838205
     51          6           0       -4.655829   -1.222151   -0.268957
     52          6           0       -5.476611   -1.174876   -1.588819
     53          6           0       -5.150838    0.050379   -2.493566
     54          6           0       -6.337270    1.083604   -2.530435
     55          6           0       -6.348400    1.766190   -3.853974
     56          6           0       -6.310065    2.043950   -1.271829
     57          6           0       -7.694094    2.123959   -0.607801
     58          6           0       -7.743058    1.416502    0.770033
     59          6           0       -9.146600    0.986759    1.153649
     60          6           0       -9.155079    1.114914    2.659303
     61          6           0       -9.706005   -0.378540    0.677313
     62          6           0      -11.124621   -0.302702    0.000499
     63          6           0      -12.182770   -0.947294    0.885997
     64          6           0      -13.556709   -0.253424    0.784820
     65          6           0      -14.107421   -0.265642   -0.664994
     66          6           0      -14.689234   -0.901987    1.747813
     67          1           0        3.909517    1.039071   -4.234735
     68          1           0        3.510872    5.426212    0.445711
     69          1           0        3.431407    1.027501    4.787460
     70          1           0        5.116901   -3.471471   -2.394918
     71          1           0        3.958046   -1.468944   -4.287983
     72          1           0        6.412139   -2.561931   -3.883422
     73          1           0        6.657257   -0.742165   -3.674527
     74          1           0        5.979465   -1.328448   -5.138760
     75          1           0        2.903917   -4.497408   -2.419200
     76          1           0        2.831960   -3.556624   -3.926964
     77          1           0        1.115516   -2.476991   -3.345416
     78          1           0        1.808688   -1.704506   -1.921013
     79          1           0        4.751724    4.562298   -4.772625
     80          1           0        3.121347    4.120162   -5.444055
     81          1           0        4.295507    2.846793   -5.153357
     82          1           0        4.077544    7.109837   -0.663046
     83          1           0        2.274397    6.927370   -1.000141
     84          1           0        3.099980    8.164722   -1.735554
     85          1           0        2.784721    5.101347    2.691137
     86          1           0        4.344781    3.465788    4.617456
     87          1           0        5.514146    5.405598    1.956089
     88          1           0        5.636567    5.248652    3.702217
     89          1           0        4.709927    6.561668    2.941954
     90          1           0        1.629090    2.600166    4.479796
     91          1           0        1.593676    4.239159    4.128186
     92          1           0        1.859291    4.882936    6.361438
     93          1           0        3.308882    3.888047    6.534803
     94          1           0        1.822664    3.154858    6.952019
     95          1           0        3.814722   -2.937672    5.441494
     96          1           0        2.516188   -1.695617    5.336243
     97          1           0        4.171241   -1.192780    5.580206
     98          1           0        3.375943   -4.428173    0.003784
     99          1           0        7.044788   -6.701941    0.740099
    100          1           0        7.095052   -6.490957   -1.041177
    101          1           0        6.223165   -7.878331   -0.400707
    102          1           0       -1.498530   -3.690121    0.401321
    103          1           0       -1.899676   -4.138490   -1.267088
    104          1           0       -2.352417   -1.507801   -1.428371
    105          1           0       -3.721655   -4.356734    0.794931
    106          1           0       -5.340229   -3.734169    0.758791
    107          1           0       -4.159314   -3.034190    1.843949
    108          1           0       -4.030397   -0.350173   -0.078848
    109          1           0       -5.443028   -1.084330    0.472121
    110          1           0       -6.525772   -1.209555   -1.295865
    111          1           0       -5.294316   -2.023692   -2.249252
    112          1           0       -4.936167   -0.346692   -3.486124
    113          1           0       -4.239809    0.478059   -2.075251
    114          1           0       -7.272645    0.524473   -2.495921
    115          1           0       -7.285428    2.105369   -4.295778
    116          1           0       -6.014796    1.014389   -4.568024
    117          1           0       -5.645772    2.598700   -3.799411
    118          1           0       -5.934061    3.024353   -1.565036
    119          1           0       -5.536105    1.710009   -0.580634
    120          1           0       -8.475030    1.766696   -1.278528
    121          1           0       -7.783625    3.187251   -0.381328
    122          1           0       -7.465985    2.248682    1.416396
    123          1           0       -7.002794    0.618659    0.828153
    124          1           0       -9.736789    1.777408    0.690076
    125          1           0       -8.189793    1.117456    3.165522
    126          1           0       -9.650943    0.229769    3.056796
    127          1           0       -9.682983    2.029700    2.930336
    128          1           0       -9.761784   -1.100363    1.491785
    129          1           0       -8.993143   -0.803711   -0.028627
    130          1           0      -11.131954   -0.929577   -0.891036
    131          1           0      -11.438259    0.690296   -0.320443
    132          1           0      -11.882037   -0.875234    1.930836
    133          1           0      -12.213899   -2.004316    0.622150
    134          1           0      -13.422217    0.792432    1.058168
    135          1           0      -14.983881   -0.903570   -0.775470
    136          1           0      -13.488624   -0.576455   -1.506813
    137          1           0      -14.370936    0.764078   -0.908038
    138          1           0      -15.461694   -0.220626    2.102567
    139          1           0      -14.175346   -1.322901    2.612535
    140          1           0      -15.261913   -1.641290    1.188281
 ---------------------------------------------------------------------

 SCF Done:  E(RwB97XD) =  -3007.82860863     A.U. after   17 cycles

 Excitation energies and oscillator strengths:

 Excited State   1:      Singlet-A      1.6833 eV  736.56 nm  f=0.3814  <S**2>=0.000
     245 -> 248       -0.19073
     246 -> 247        0.68227
     245 <- 248       -0.11717
 This state for optimization and/or second-order correction.
 Total Energy, E(TD-HF/TD-DFT) =  -3007.76674898
 Copying the excited state density for this state as the 1-particle RhoCI density.

 Excited State   2:      Singlet-A      2.2102 eV  560.96 nm  f=0.0767  <S**2>=0.000
     245 -> 247        0.62276
     246 -> 248        0.32246

 Excited State   3:      Singlet-A      3.3743 eV  367.44 nm  f=0.0094  <S**2>=0.000
     243 -> 247        0.66231
     246 -> 248       -0.14871

 Excited State   4:      Singlet-A      3.4854 eV  355.72 nm  f=0.3712  <S**2>=0.000
     240 -> 247       -0.17665
     242 -> 247       -0.35466
     242 -> 249        0.11225
     243 -> 247        0.10845
     245 -> 247       -0.23102
     246 -> 248        0.49619

 Excited State   5:      Singlet-A      3.5559 eV  348.67 nm  f=0.1078  <S**2>=0.000
     240 -> 247       -0.24965
     240 -> 249        0.15063
     240 -> 251       -0.12036
     241 -> 247       -0.26564
     241 -> 249        0.28019
     241 -> 251       -0.12004
     242 -> 247        0.30258
     242 -> 249       -0.16852
     245 -> 247       -0.12773
     246 -> 248        0.21114

 The electronic state is 1-A.
 Alpha  occ. eigenvalues --  -46.96206 -19.31027 -19.29998 -19.25309 -19.24126
 Alpha  occ. eigenvalues --  -19.23996 -19.23106 -14.47547 -14.46816 -14.44578
 Alpha  occ. eigenvalues --  -14.43250 -10.43279 -10.43144 -10.38669 -10.38383
 Alpha  occ. eigenvalues --  -10.35787 -10.35538 -10.35510 -10.35282 -10.34937
 Alpha  occ. eigenvalues --  -10.34853 -10.34579 -10.34556 -10.33444 -10.33280
 Alpha  occ. eigenvalues --  -10.33097 -10.32254 -10.32234 -10.32061 -10.32049
 Alpha  occ. eigenvalues --  -10.31979 -10.31974 -10.31881 -10.31785 -10.31704
 Alpha  occ. eigenvalues --  -10.31696 -10.31211 -10.31078 -10.30985 -10.30719
 Alpha  occ. eigenvalues --  -10.30491 -10.30407 -10.30233 -10.30021 -10.29969
 Alpha  occ. eigenvalues --  -10.29850 -10.29839 -10.29782 -10.29443 -10.29135
 Alpha  occ. eigenvalues --  -10.29045 -10.28909 -10.28748 -10.28649 -10.28594
 Alpha  occ. eigenvalues --  -10.28571 -10.28449 -10.28444 -10.28438 -10.28395
 Alpha  occ. eigenvalues --  -10.28329 -10.28297 -10.27966 -10.27917 -10.27651
 Alpha  occ. eigenvalues --  -10.27505  -3.22055  -1.95646  -1.95180  -1.95007
 Alpha  occ. eigenvalues --   -1.18974  -1.17437  -1.15179  -1.11953  -1.09858
 Alpha  occ. eigenvalues --   -1.08882  -1.08393  -1.06327  -1.05349  -1.04591
 Alpha  occ. eigenvalues --   -0.94776  -0.92706  -0.91915  -0.91451  -0.90669
 Alpha  occ. eigenvalues --   -0.90356  -0.90038  -0.89238  -0.89155  -0.87671
 Alpha  occ. eigenvalues --   -0.87419  -0.87039  -0.85868  -0.85276  -0.85157
 Alpha  occ. eigenvalues --   -0.84385  -0.84116  -0.83125  -0.82672  -0.82131
 Alpha  occ. eigenvalues --   -0.81818  -0.79626  -0.79342  -0.79165  -0.77920
 Alpha  occ. eigenvalues --   -0.77609  -0.77196  -0.76651  -0.76446  -0.76126
 Alpha  occ. eigenvalues --   -0.74958  -0.74128  -0.73466  -0.72046  -0.72001
 Alpha  occ. eigenvalues --   -0.70459  -0.69776  -0.69273  -0.68848  -0.68682
 Alpha  occ. eigenvalues --   -0.67422  -0.67118  -0.66617  -0.66401  -0.65569
 Alpha  occ. eigenvalues --   -0.65309  -0.65002  -0.64335  -0.63456  -0.61836
 Alpha  occ. eigenvalues --   -0.61637  -0.61404  -0.60936  -0.60374  -0.59468
 Alpha  occ. eigenvalues --   -0.59332  -0.58523  -0.58323  -0.58239  -0.57300
 Alpha  occ. eigenvalues --   -0.57148  -0.56224  -0.56149  -0.56032  -0.55746
 Alpha  occ. eigenvalues --   -0.55599  -0.55440  -0.55181  -0.54954  -0.54694
 Alpha  occ. eigenvalues --   -0.54563  -0.54112  -0.54016  -0.53568  -0.53502
 Alpha  occ. eigenvalues --   -0.53239  -0.53181  -0.52705  -0.52615  -0.52581
 Alpha  occ. eigenvalues --   -0.52415  -0.52343  -0.52028  -0.51764  -0.51588
 Alpha  occ. eigenvalues --   -0.51528  -0.51493  -0.51053  -0.50934  -0.50832
 Alpha  occ. eigenvalues --   -0.50723  -0.50207  -0.50046  -0.49603  -0.49516
 Alpha  occ. eigenvalues --   -0.49217  -0.49029  -0.48942  -0.48747  -0.48552
 Alpha  occ. eigenvalues --   -0.48469  -0.48369  -0.48256  -0.48086  -0.47777
 Alpha  occ. eigenvalues --   -0.47660  -0.47515  -0.47365  -0.47103  -0.46981
 Alpha  occ. eigenvalues --   -0.46489  -0.46405  -0.46321  -0.46096  -0.45796
 Alpha  occ. eigenvalues --   -0.45623  -0.45568  -0.45344  -0.45113  -0.44885
 Alpha  occ. eigenvalues --   -0.44756  -0.44277  -0.44133  -0.43946  -0.43818
 Alpha  occ. eigenvalues --   -0.43682  -0.43646  -0.43496  -0.43431  -0.42902
 Alpha  occ. eigenvalues --   -0.42899  -0.42721  -0.42440  -0.42263  -0.42187
 Alpha  occ. eigenvalues --   -0.41742  -0.41482  -0.41355  -0.41081  -0.40988
 Alpha  occ. eigenvalues --   -0.40578  -0.39634  -0.39332  -0.39316  -0.38933
 Alpha  occ. eigenvalues --   -0.38899  -0.38856  -0.38790  -0.38324  -0.38251
 Alpha  occ. eigenvalues --   -0.38231  -0.37642  -0.36797  -0.36605  -0.36060
 Alpha  occ. eigenvalues --   -0.35899  -0.35754  -0.35536  -0.33694  -0.32483
 Alpha  occ. eigenvalues --   -0.32400  -0.32161  -0.31384  -0.30812  -0.26111
 Alpha  occ. eigenvalues --   -0.22965
 Alpha virt. eigenvalues --   -0.06869  -0.00110   0.02846   0.05129   0.05207
 Alpha virt. eigenvalues --    0.07597   0.08071   0.08186   0.08244   0.09705
 Alpha virt. eigenvalues --    0.09984   0.10846   0.11421   0.12078   0.12367

 Mulliken charges:
               1
     1  Mg   0.943609
     2  C   -0.020861
     3  C   -0.075565
     4  C   -0.084489
     5  C   -0.110506
     6  N   -0.331574
     7  C   -0.038706
     8  C   -0.036028
     9  C   -0.143392
    10  C    0.119582
    11  C    0.036234
    12  C    0.026690
    13  C   -0.062921
    14  C    0.211888
    15  O   -0.296039
    16  O   -0.341003
    17  N   -0.421462
    18  C    0.078794
    19  C   -0.159921
    20  C   -0.068422
    21  C    0.175207
    22  C    0.075904
    23  C    0.014312
    24  O   -0.243018
    25  C    0.023985
    26  N   -0.349173
    27  C    0.026172
    28  C   -0.066263
    29  C   -0.113556
    30  C    0.062889
    31  C    0.027978
    32  C   -0.010698
    33  C   -0.048865
    34  N   -0.399117
    35  C    0.159193
    36  C   -0.226121
    37  C    0.013358
    38  C    0.131918
    39  C    0.078732
    40  C    0.074880
    41  O   -0.135871
    42  C   -0.115150
    43  C    0.275258
    44  O   -0.227039
    45  O   -0.390469
    46  C    0.133506
    47  C    0.232370
    48  C   -0.172431
    49  C   -0.157348
    50  C    0.039634
    51  C   -0.005852
    52  C   -0.023909
    53  C   -0.010490
    54  C   -0.183759
    55  C    0.021308
    56  C    0.029575
    57  C   -0.037979
    58  C   -0.005491
    59  C   -0.184818
    60  C    0.013407
    61  C    0.046563
    62  C   -0.037338
    63  C   -0.007472
    64  C   -0.202807
    65  C   -0.028117
    66  C   -0.015220
    67  H    0.019260
    68  H   -0.039381
    69  H    0.014197
    70  H    0.048253
    71  H    0.031284
    72  H    0.042837
    73  H    0.041272
    74  H    0.033699
    75  H    0.071696
    76  H    0.037109
    77  H    0.060705
    78  H    0.083572
    79  H    0.070086
    80  H    0.065388
    81  H    0.014229
    82  H    0.073464
    83  H    0.046730
    84  H    0.046803
    85  H    0.036950
    86  H    0.026063
    87  H    0.035558
    88  H    0.043391
    89  H    0.041205
    90  H    0.034127
    91  H    0.018834
    92  H    0.049815
    93  H    0.028489
    94  H    0.050942
    95  H    0.060693
    96  H    0.048389
    97  H    0.032641
    98  H    0.075812
    99  H    0.072997
   100  H    0.052737
   101  H    0.065254
   102  H    0.063883
   103  H    0.068245
   104  H    0.033037
   105  H    0.025591
   106  H    0.046046
   107  H    0.048294
   108  H    0.037288
   109  H    0.008124
   110  H    0.019785
   111  H    0.028598
   112  H    0.013981
   113  H    0.020109
   114  H    0.013966
   115  H    0.027086
   116  H    0.014101
   117  H    0.022644
   118  H    0.008323
   119  H    0.005187
   120  H    0.030315
   121  H    0.019126
   122  H    0.020431
   123  H    0.014348
   124  H    0.015043
   125  H    0.028992
   126  H    0.007709
   127  H    0.032275
   128  H    0.017074
   129  H    0.007466
   130  H    0.021242
   131  H    0.025572
   132  H    0.016128
   133  H    0.023478
   134  H    0.030202
   135  H    0.023623
   136  H    0.026354
   137  H    0.027270
   138  H    0.032774
   139  H    0.029584
   140  H    0.027918
 Sum of Mulliken charges =  -0.00000

 Dipole moment (field-independent basis, Debye):
    X=             -0.9919    Y=              3.0114    Z=              0.7428  Tot=              3.2564
 Quadrupole moment (field-independent basis, Debye-Ang):
   XX=           -391.0112   YY=           -416.6535   ZZ=           -392.6568
   XY=              4.5790   XZ=             -5.4708   YZ=             44.7436

 Normal termination of Gaussian 16 at Thu Apr 28 13:46:50 2022.
