 Gaussian 16, Revision A.03,
 Gaussian 16:  ES64L-G16RevA.03 25-Dec-2016

 --------------------
 #p ZINDO=(nstates=5)
 --------------------

 -----------------------------
 step_1551_chromophore_8 ZINDO
 -----------------------------
 Symbolic Z-matrix:
 Charge =  0 Multiplicity = 1

                         Standard orientation:
 ---------------------------------------------------------------------
 Center     Atomic      Atomic             Coordinates (Angstroms)
 Number     Number       Type             X           Y           Z
 ---------------------------------------------------------------------
      1         12           0        4.221334    1.095686    0.286120
      2          6           0        4.175892   -2.515620    0.213921
      3          6           0        4.144685    1.012938   -3.168905
      4          6           0        3.525951    4.339071    0.342611
      5          6           0        3.740343    0.927141    3.744891
      6          7           0        4.326222   -0.571851   -1.233133
      7          6           0        4.235984   -1.941058   -1.102685
      8          6           0        4.333868   -2.718020   -2.480191
      9          6           0        4.632644   -1.470484   -3.433308
     10          6           0        4.414327   -0.203606   -2.539260
     11          6           0        6.047382   -1.553006   -4.075051
     12          6           0        2.969371   -3.497019   -2.847252
     13          6           0        1.659967   -2.662969   -2.419823
     14          6           0        0.562789   -3.467086   -1.676532
     15          8           0        0.465024   -4.709843   -1.572390
     16          8           0       -0.323009   -2.623455   -1.120657
     17          7           0        3.902847    2.575116   -1.278560
     18          6           0        3.952053    2.341765   -2.599335
     19          6           0        3.754512    3.659752   -3.284952
     20          6           0        3.595217    4.646536   -2.277200
     21          6           0        3.634818    3.877194   -0.953714
     22          6           0        3.952926    3.822290   -4.805577
     23          6           0        3.433846    6.151003   -2.460624
     24          8           0        3.518183    6.628650   -3.585085
     25          6           0        3.268141    7.144465   -1.392445
     26          7           0        3.652965    2.378392    1.768198
     27          6           0        3.602099    3.685542    1.554390
     28          6           0        3.701315    4.523375    2.808638
     29          6           0        3.534326    3.451093    3.888481
     30          6           0        3.734976    2.128260    3.040561
     31          6           0        4.957227    5.501483    2.888412
     32          6           0        2.182302    3.515447    4.692907
     33          6           0        2.254762    3.872595    6.254542
     34          7           0        4.114729   -0.453975    1.769527
     35          6           0        3.895757   -0.314743    3.055122
     36          6           0        3.826201   -1.630387    3.621208
     37          6           0        3.961416   -2.537920    2.555773
     38          6           0        4.106427   -1.795197    1.424425
     39          6           0        3.548585   -1.941413    5.089567
     40          6           0        3.974528   -3.926447    2.183235
     41          8           0        3.906799   -4.880327    2.846134
     42          6           0        4.174343   -3.962812    0.582532
     43          6           0        5.533665   -4.728809    0.443183
     44          8           0        6.605121   -4.285665    0.761444
     45          8           0        5.235142   -6.001940   -0.048363
     46          6           0        6.505634   -6.845818   -0.196539
     47          6           0       -1.526095   -3.337604   -0.629982
     48          6           0       -2.676488   -2.370295   -0.846621
     49          6           0       -3.793494   -2.408174   -0.134271
     50          6           0       -4.295717   -3.431667    0.838205
     51          6           0       -4.655829   -1.222151   -0.268957
     52          6           0       -5.476611   -1.174876   -1.588819
     53          6           0       -5.150838    0.050379   -2.493566
     54          6           0       -6.337270    1.083604   -2.530435
     55          6           0       -6.348400    1.766190   -3.853974
     56          6           0       -6.310065    2.043950   -1.271829
     57          6           0       -7.694094    2.123959   -0.607801
     58          6           0       -7.743058    1.416502    0.770033
     59          6           0       -9.146600    0.986759    1.153649
     60          6           0       -9.155079    1.114914    2.659303
     61          6           0       -9.706005   -0.378540    0.677313
     62          6           0      -11.124621   -0.302702    0.000499
     63          6           0      -12.182770   -0.947294    0.885997
     64          6           0      -13.556709   -0.253424    0.784820
     65          6           0      -14.107421   -0.265642   -0.664994
     66          6           0      -14.689234   -0.901987    1.747813
     67          1           0        3.909517    1.039071   -4.234735
     68          1           0        3.510872    5.426212    0.445711
     69          1           0        3.431407    1.027501    4.787460
     70          1           0        5.116901   -3.471471   -2.394918
     71          1           0        3.958046   -1.468944   -4.287983
     72          1           0        6.412139   -2.561931   -3.883422
     73          1           0        6.657257   -0.742165   -3.674527
     74          1           0        5.979465   -1.328448   -5.138760
     75          1           0        2.903917   -4.497408   -2.419200
     76          1           0        2.831960   -3.556624   -3.926964
     77          1           0        1.115516   -2.476991   -3.345416
     78          1           0        1.808688   -1.704506   -1.921013
     79          1           0        4.751724    4.562298   -4.772625
     80          1           0        3.121347    4.120162   -5.444055
     81          1           0        4.295507    2.846793   -5.153357
     82          1           0        4.077544    7.109837   -0.663046
     83          1           0        2.274397    6.927370   -1.000141
     84          1           0        3.099980    8.164722   -1.735554
     85          1           0        2.784721    5.101347    2.691137
     86          1           0        4.344781    3.465788    4.617456
     87          1           0        5.514146    5.405598    1.956089
     88          1           0        5.636567    5.248652    3.702217
     89          1           0        4.709927    6.561668    2.941954
     90          1           0        1.629090    2.600166    4.479796
     91          1           0        1.593676    4.239159    4.128186
     92          1           0        1.859291    4.882936    6.361438
     93          1           0        3.308882    3.888047    6.534803
     94          1           0        1.822664    3.154858    6.952019
     95          1           0        3.814722   -2.937672    5.441494
     96          1           0        2.516188   -1.695617    5.336243
     97          1           0        4.171241   -1.192780    5.580206
     98          1           0        3.375943   -4.428173    0.003784
     99          1           0        7.044788   -6.701941    0.740099
    100          1           0        7.095052   -6.490957   -1.041177
    101          1           0        6.223165   -7.878331   -0.400707
    102          1           0       -1.498530   -3.690121    0.401321
    103          1           0       -1.899676   -4.138490   -1.267088
    104          1           0       -2.352417   -1.507801   -1.428371
    105          1           0       -3.721655   -4.356734    0.794931
    106          1           0       -5.340229   -3.734169    0.758791
    107          1           0       -4.159314   -3.034190    1.843949
    108          1           0       -4.030397   -0.350173   -0.078848
    109          1           0       -5.443028   -1.084330    0.472121
    110          1           0       -6.525772   -1.209555   -1.295865
    111          1           0       -5.294316   -2.023692   -2.249252
    112          1           0       -4.936167   -0.346692   -3.486124
    113          1           0       -4.239809    0.478059   -2.075251
    114          1           0       -7.272645    0.524473   -2.495921
    115          1           0       -7.285428    2.105369   -4.295778
    116          1           0       -6.014796    1.014389   -4.568024
    117          1           0       -5.645772    2.598700   -3.799411
    118          1           0       -5.934061    3.024353   -1.565036
    119          1           0       -5.536105    1.710009   -0.580634
    120          1           0       -8.475030    1.766696   -1.278528
    121          1           0       -7.783625    3.187251   -0.381328
    122          1           0       -7.465985    2.248682    1.416396
    123          1           0       -7.002794    0.618659    0.828153
    124          1           0       -9.736789    1.777408    0.690076
    125          1           0       -8.189793    1.117456    3.165522
    126          1           0       -9.650943    0.229769    3.056796
    127          1           0       -9.682983    2.029700    2.930336
    128          1           0       -9.761784   -1.100363    1.491785
    129          1           0       -8.993143   -0.803711   -0.028627
    130          1           0      -11.131954   -0.929577   -0.891036
    131          1           0      -11.438259    0.690296   -0.320443
    132          1           0      -11.882037   -0.875234    1.930836
    133          1           0      -12.213899   -2.004316    0.622150
    134          1           0      -13.422217    0.792432    1.058168
    135          1           0      -14.983881   -0.903570   -0.775470
    136          1           0      -13.488624   -0.576455   -1.506813
    137          1           0      -14.370936    0.764078   -0.908038
    138          1           0      -15.461694   -0.220626    2.102567
    139          1           0      -14.175346   -1.322901    2.612535
    140          1           0      -15.261913   -1.641290    1.188281
 ---------------------------------------------------------------------

 SCF Done:  E(RZINDO/S) =  -474.228373037     A.U. after   20 cycles

 Excitation energies and oscillator strengths:

 Excited State   1:      Singlet-A      1.3045 eV  950.44 nm  f=0.5928  <S**2>=0.000
     175 ->178         0.19962
     176 ->177         0.66040
 This state for optimization and/or second-order correction.
 Total Energy, E(CIS/TDA) =  -474.180434013
 Copying the excited state density for this state as the 1-particle RhoCI density.

 Excited State   2:      Singlet-A      1.9011 eV  652.16 nm  f=0.0165  <S**2>=0.000
     175 ->177         0.52259
     176 ->178        -0.45160

 Excited State   3:      Singlet-A      2.9007 eV  427.43 nm  f=0.0002  <S**2>=0.000
     168 ->177         0.21490
     168 ->178        -0.12293
     168 ->179        -0.31934
     168 ->181         0.22201
     168 ->184        -0.12889
     168 ->185        -0.17256
     169 ->177         0.17565
     169 ->179        -0.25140
     169 ->181         0.17244
     169 ->185        -0.13441

 Excited State   4:      Singlet-A      3.0171 eV  410.94 nm  f=0.9697  <S**2>=0.000
     170 ->177         0.11241
     170 ->179         0.11075
     170 ->181         0.10627
     171 ->177         0.11431
     175 ->177         0.37822
     176 ->178         0.46714
     176 ->179         0.13278
     176 ->180         0.17861

 Excited State   5:      Singlet-A      3.0747 eV  403.24 nm  f=0.1518  <S**2>=0.000
     170 ->177         0.28676
     170 ->178        -0.10792
     170 ->179         0.29099
     170 ->181         0.30837
     170 ->185         0.19307
     170 ->187        -0.12116
     170 ->188         0.11657
     170 ->203        -0.14050
     175 ->177        -0.13742
     176 ->178        -0.15429
     176 ->180        -0.15042

 The electronic state is 1-A.
 Alpha  occ. eigenvalues --   -1.86896  -1.83307  -1.78105  -1.73672  -1.70304
 Alpha  occ. eigenvalues --   -1.69974  -1.66539  -1.61377  -1.60582  -1.60035
 Alpha  occ. eigenvalues --   -1.55623  -1.52083  -1.49447  -1.46638  -1.45478
 Alpha  occ. eigenvalues --   -1.44598  -1.41869  -1.40607  -1.38655  -1.37319
 Alpha  occ. eigenvalues --   -1.34996  -1.33614  -1.32490  -1.30722  -1.29886
 Alpha  occ. eigenvalues --   -1.27853  -1.27013  -1.23270  -1.22212  -1.17967
 Alpha  occ. eigenvalues --   -1.15640  -1.14657  -1.14375  -1.13988  -1.13268
 Alpha  occ. eigenvalues --   -1.12859  -1.11558  -1.09709  -1.05643  -1.03284
 Alpha  occ. eigenvalues --   -1.02270  -1.00116  -0.98455  -0.97354  -0.96783
 Alpha  occ. eigenvalues --   -0.95889  -0.95044  -0.94258  -0.92984  -0.92568
 Alpha  occ. eigenvalues --   -0.91139  -0.90765  -0.88719  -0.88248  -0.86617
 Alpha  occ. eigenvalues --   -0.86081  -0.84650  -0.83235  -0.81153  -0.79713
 Alpha  occ. eigenvalues --   -0.78615  -0.78051  -0.77471  -0.76805  -0.76466
 Alpha  occ. eigenvalues --   -0.75468  -0.75302  -0.74423  -0.73537  -0.73159
 Alpha  occ. eigenvalues --   -0.72611  -0.72297  -0.71649  -0.71312  -0.70560
 Alpha  occ. eigenvalues --   -0.70005  -0.69381  -0.68785  -0.68431  -0.67924
 Alpha  occ. eigenvalues --   -0.67522  -0.66747  -0.66667  -0.66239  -0.65515
 Alpha  occ. eigenvalues --   -0.65158  -0.64608  -0.64333  -0.63808  -0.63433
 Alpha  occ. eigenvalues --   -0.63213  -0.63092  -0.62499  -0.62339  -0.62157
 Alpha  occ. eigenvalues --   -0.61992  -0.61532  -0.61422  -0.61107  -0.60192
 Alpha  occ. eigenvalues --   -0.59912  -0.59189  -0.58778  -0.58624  -0.58298
 Alpha  occ. eigenvalues --   -0.57929  -0.57559  -0.57319  -0.56939  -0.56896
 Alpha  occ. eigenvalues --   -0.55886  -0.55772  -0.55446  -0.54965  -0.54535
 Alpha  occ. eigenvalues --   -0.54253  -0.53806  -0.53664  -0.52753  -0.52699
 Alpha  occ. eigenvalues --   -0.52639  -0.52441  -0.52019  -0.51855  -0.51765
 Alpha  occ. eigenvalues --   -0.51533  -0.51350  -0.51159  -0.51002  -0.50932
 Alpha  occ. eigenvalues --   -0.50316  -0.49902  -0.49831  -0.49592  -0.49219
 Alpha  occ. eigenvalues --   -0.48964  -0.48790  -0.48533  -0.48207  -0.48141
 Alpha  occ. eigenvalues --   -0.48058  -0.47708  -0.47387  -0.47089  -0.46426
 Alpha  occ. eigenvalues --   -0.46334  -0.46176  -0.45769  -0.45582  -0.45475
 Alpha  occ. eigenvalues --   -0.45081  -0.45041  -0.44727  -0.44209  -0.43950
 Alpha  occ. eigenvalues --   -0.43199  -0.43055  -0.42621  -0.42387  -0.42241
 Alpha  occ. eigenvalues --   -0.41562  -0.41474  -0.41260  -0.39249  -0.38565
 Alpha  occ. eigenvalues --   -0.38433  -0.36590  -0.35202  -0.35044  -0.34152
 Alpha  occ. eigenvalues --   -0.33427  -0.32865  -0.31812  -0.31212  -0.26585
 Alpha  occ. eigenvalues --   -0.21787
 Alpha virt. eigenvalues --   -0.08195  -0.02435  -0.00295   0.01397   0.01604
 Alpha virt. eigenvalues --    0.02005   0.02994   0.03355   0.04982   0.05042
 Alpha virt. eigenvalues --    0.06253   0.06475   0.06815   0.07543   0.08069

 Mulliken charges:
               1
     1  Mg   0.426681
     2  C   -0.028393
     3  C   -0.087395
     4  C   -0.086256
     5  C   -0.086426
     6  N   -0.278815
     7  C    0.088339
     8  C   -0.002363
     9  C   -0.003660
    10  C    0.141586
    11  C   -0.052969
    12  C   -0.029685
    13  C   -0.005563
    14  C    0.463583
    15  O   -0.540591
    16  O   -0.252965
    17  N   -0.313164
    18  C    0.109061
    19  C    0.043717
    20  C   -0.055592
    21  C    0.118480
    22  C   -0.041292
    23  C    0.332123
    24  O   -0.530869
    25  C   -0.021211
    26  N   -0.237664
    27  C    0.152791
    28  C   -0.001073
    29  C   -0.009146
    30  C    0.113869
    31  C   -0.050785
    32  C   -0.037993
    33  C   -0.058227
    34  N   -0.324478
    35  C    0.112643
    36  C    0.005706
    37  C   -0.043013
    38  C    0.091758
    39  C   -0.045725
    40  C    0.346236
    41  O   -0.489528
    42  C    0.043734
    43  C    0.486005
    44  O   -0.502177
    45  O   -0.276296
    46  C    0.069765
    47  C    0.092848
    48  C   -0.098937
    49  C    0.006617
    50  C   -0.036228
    51  C   -0.024318
    52  C   -0.036931
    53  C   -0.038943
    54  C   -0.009438
    55  C   -0.055481
    56  C   -0.039066
    57  C   -0.042620
    58  C   -0.032841
    59  C   -0.009927
    60  C   -0.055867
    61  C   -0.031594
    62  C   -0.037780
    63  C   -0.026253
    64  C   -0.011143
    65  C   -0.061913
    66  C   -0.066692
    67  H    0.031342
    68  H    0.019650
    69  H    0.041254
    70  H    0.042662
    71  H    0.024520
    72  H    0.031706
    73  H    0.026900
    74  H    0.018107
    75  H    0.045427
    76  H    0.024457
    77  H    0.039685
    78  H    0.055427
    79  H    0.046606
    80  H    0.047295
    81  H    0.018783
    82  H    0.041641
    83  H    0.032646
    84  H    0.037225
    85  H    0.029878
    86  H    0.024997
    87  H    0.020017
    88  H    0.026989
    89  H    0.024204
    90  H    0.023637
    91  H    0.015690
    92  H    0.024709
    93  H    0.016510
    94  H    0.031705
    95  H    0.038888
    96  H    0.029014
    97  H    0.018158
    98  H    0.059390
    99  H    0.055844
   100  H    0.039759
   101  H    0.038444
   102  H    0.058353
   103  H    0.057100
   104  H    0.036434
   105  H    0.015870
   106  H    0.029614
   107  H    0.029052
   108  H    0.021156
   109  H    0.008048
   110  H    0.018277
   111  H    0.018002
   112  H    0.017881
   113  H    0.022908
   114  H    0.018084
   115  H    0.017887
   116  H    0.011282
   117  H    0.017670
   118  H    0.014950
   119  H    0.017022
   120  H    0.027994
   121  H    0.014073
   122  H    0.016232
   123  H    0.026006
   124  H    0.019401
   125  H    0.019236
   126  H    0.010395
   127  H    0.017183
   128  H    0.024060
   129  H    0.011573
   130  H    0.013613
   131  H    0.027363
   132  H    0.012368
   133  H    0.021250
   134  H    0.022759
   135  H    0.017296
   136  H    0.018952
   137  H    0.010970
   138  H    0.019991
   139  H    0.018114
   140  H    0.022159
 Sum of Mulliken charges =  -0.00000

 Dipole moment (field-independent basis, Debye):
    X=             -1.9068    Y=              5.6770    Z=             -0.1182  Tot=              5.9898
 N-N= 4.472787569677D+03 E-N= 0.000000000000D+00  KE=-9.619729458094D+03
 Leave Link  601 at Thu Apr 28 13:59:57 2022, MaxMem=  6710886400 cpu:               1.0 elap:               0.1
 (Enter /sw/apps/gaussian-16.0/g16/l9999.exe)
 1\1\GINC-BP1-COMPUTE140\SP\RZINDO CIS\STO-3G\C55H74Mg1N4O6\OF15641\28-
 Apr-2022\0\\#p ZINDO=(nstates=5)\\step_1551_chromophore_8 ZINDO\\0,1\M
 g,0,44.161,3.13,46.843\C,0,42.313,6.228,46.653\C,0,41.123,1.487,46.698
 \C,0,45.84,0.325,46.278\C,0,47.098,4.979,46.421\N,0,42.013,3.827,46.85
 3\C,0,41.452,5.078,46.711\C,0,39.868,5.072,46.752\C,0,39.647,3.524,47.
 082\C,0,41.058,2.862,46.931\C,0,38.998,3.313,48.48\C,0,39.213,5.532,45
 .351\C,0,40.044,4.987,44.084\C,0,40.331,6.026,42.97\O,0,39.81,7.154,42

 Normal termination of Gaussian 16 at Thu Apr 28 13:59:57 2022.
