 Gaussian 16, Revision A.03,
 Gaussian 16:  ES64L-G16RevA.03 25-Dec-2016

 ------------------------------
 #p blyp/Def2SVP td=(nstates=5)
 ------------------------------

 ---------------------------------------------------
 step_1001_chromophore_17 TDDFT with blyp functional
 ---------------------------------------------------
 Symbolic Z-matrix:
 Charge =  0 Multiplicity = 1

                         Standard orientation:
 ---------------------------------------------------------------------
 Center     Atomic      Atomic             Coordinates (Angstroms)
 Number     Number       Type             X           Y           Z
 ---------------------------------------------------------------------
      1         12           0        3.702793    1.417612   -0.669012
      2          6           0        3.974551   -2.052445   -0.854273
      3          6           0        0.867282    1.314774   -2.527807
      4          6           0        2.869128    4.499205    0.603829
      5          6           0        6.329288    1.410615    1.738649
      6          7           0        2.583729   -0.193545   -1.457123
      7          6           0        2.910483   -1.554162   -1.542873
      8          6           0        1.791095   -2.313466   -2.214376
      9          6           0        1.084390   -1.185467   -3.060110
     10          6           0        1.530135    0.097474   -2.310138
     11          6           0        1.401731   -1.258940   -4.604520
     12          6           0        0.855320   -3.036159   -1.142106
     13          6           0        0.460878   -4.511041   -1.317634
     14          6           0        0.058404   -5.268604   -0.013127
     15          8           0        0.520462   -6.299162    0.482190
     16          8           0       -0.985828   -4.521253    0.578950
     17          7           0        2.248436    2.802571   -1.150472
     18          6           0        1.174022    2.562530   -1.993767
     19          6           0        0.486468    3.831354   -2.099328
     20          6           0        1.055641    4.776897   -1.237423
     21          6           0        2.107991    4.058099   -0.545343
     22          6           0       -0.823311    3.982231   -2.972810
     23          6           0        0.669328    6.264944   -1.216019
     24          8           0       -0.119128    6.660442   -2.027566
     25          6           0        1.470749    7.219503   -0.434625
     26          7           0        4.595874    2.854048    0.942932
     27          6           0        4.050453    4.065444    1.120693
     28          6           0        4.807215    4.873528    2.178070
     29          6           0        5.917091    3.841799    2.626628
     30          6           0        5.713056    2.657143    1.707048
     31          6           0        5.396347    6.235328    1.565558
     32          6           0        5.845740    3.403119    4.097306
     33          6           0        7.253716    3.556540    4.823351
     34          7           0        4.962040    0.020754    0.209429
     35          6           0        5.998601    0.148631    1.149427
     36          6           0        6.580402   -1.209701    1.383395
     37          6           0        5.871700   -2.086177    0.648823
     38          6           0        4.867960   -1.267496   -0.068124
     39          6           0        7.732401   -1.428499    2.367032
     40          6           0        5.687406   -3.482518    0.258431
     41          8           0        6.355360   -4.449848    0.545548
     42          6           0        4.510011   -3.457839   -0.644128
     43          6           0        5.058306   -3.991443   -2.011832
     44          8           0        6.098734   -3.579114   -2.558690
     45          8           0        4.317628   -5.101481   -2.483283
     46          6           0        4.641939   -5.646978   -3.777217
     47          6           0       -1.655742   -5.121426    1.715251
     48          6           0       -3.086306   -5.271759    1.354229
     49          6           0       -4.054497   -5.666245    2.266876
     50          6           0       -3.953358   -5.839971    3.794271
     51          6           0       -5.425944   -6.059881    1.750880
     52          6           0       -6.477259   -5.042611    2.013764
     53          6           0       -6.640362   -4.048188    0.790089
     54          6           0       -7.007815   -2.732928    1.416913
     55          6           0       -5.723079   -2.199791    2.120752
     56          6           0       -7.597838   -1.673174    0.371277
     57          6           0       -8.744510   -0.819647    0.893485
     58          6           0       -9.673083   -0.433748   -0.313622
     59          6           0      -10.204351    1.026840   -0.138061
     60          6           0      -11.685669    1.011706   -0.679976
     61          6           0       -9.253905    1.999512   -0.904692
     62          6           0       -9.127304    3.398095   -0.168220
     63          6           0       -7.667560    4.033824    0.146503
     64          6           0       -7.618476    5.582637   -0.149833
     65          6           0       -6.391668    5.983848   -1.033280
     66          6           0       -7.700032    6.413101    1.160183
     67          1           0        0.048379    1.085886   -3.212598
     68          1           0        2.377499    5.346087    1.086615
     69          1           0        7.187822    1.471836    2.410057
     70          1           0        2.150484   -3.147279   -2.817241
     71          1           0        0.010694   -1.343035   -2.949821
     72          1           0        2.186534   -0.573013   -4.924756
     73          1           0        0.517497   -0.987210   -5.181293
     74          1           0        1.688005   -2.279351   -4.858078
     75          1           0       -0.095518   -2.508289   -1.065547
     76          1           0        1.257178   -2.898522   -0.137595
     77          1           0        1.303636   -5.050956   -1.750618
     78          1           0       -0.344489   -4.584036   -2.047460
     79          1           0       -1.584006    4.429086   -2.332154
     80          1           0       -1.170653    3.030279   -3.374279
     81          1           0       -0.741938    4.609319   -3.861361
     82          1           0        1.149729    7.204859    0.606871
     83          1           0        1.217997    8.213839   -0.804899
     84          1           0        2.539575    7.045528   -0.565323
     85          1           0        4.138064    4.973379    3.032306
     86          1           0        6.885018    4.321697    2.480997
     87          1           0        6.474794    6.275667    1.721043
     88          1           0        4.974003    7.079633    2.110946
     89          1           0        5.148922    6.338892    0.509331
     90          1           0        5.466217    2.387100    4.204749
     91          1           0        5.062615    3.911384    4.659484
     92          1           0        7.680187    2.609758    5.153983
     93          1           0        7.236190    4.156430    5.733899
     94          1           0        7.950777    4.146822    4.228662
     95          1           0        7.493536   -0.953297    3.318015
     96          1           0        8.504259   -0.835799    1.877403
     97          1           0        8.002473   -2.480952    2.461262
     98          1           0        3.752327   -4.147234   -0.273588
     99          1           0        4.182500   -6.633347   -3.721061
    100          1           0        5.714619   -5.633589   -3.970092
    101          1           0        4.124051   -5.210810   -4.631055
    102          1           0       -1.687871   -4.361094    2.494923
    103          1           0       -1.225898   -5.978879    2.234878
    104          1           0       -3.325953   -5.284534    0.291314
    105          1           0       -3.016967   -5.398832    4.134636
    106          1           0       -3.892592   -6.911349    3.985640
    107          1           0       -4.838139   -5.451135    4.299846
    108          1           0       -5.888551   -7.009580    2.017158
    109          1           0       -5.379552   -6.162139    0.666627
    110          1           0       -6.279810   -4.521309    2.951100
    111          1           0       -7.383062   -5.625282    2.182094
    112          1           0       -7.454784   -4.315666    0.117617
    113          1           0       -5.747052   -3.958648    0.171535
    114          1           0       -7.746662   -2.951989    2.187979
    115          1           0       -4.787434   -2.680268    1.836366
    116          1           0       -5.839531   -2.396459    3.186443
    117          1           0       -5.658603   -1.111518    2.112511
    118          1           0       -7.876364   -2.189845   -0.546821
    119          1           0       -6.706142   -1.093640    0.131357
    120          1           0       -8.363132    0.097818    1.345018
    121          1           0       -9.122520   -1.303476    1.793691
    122          1           0      -10.483825   -1.153844   -0.207324
    123          1           0       -9.322536   -0.488720   -1.344546
    124          1           0      -10.173751    1.247637    0.928283
    125          1           0      -11.976036    0.015361   -1.014753
    126          1           0      -11.959423    1.562274   -1.579296
    127          1           0      -12.344216    1.275906    0.147689
    128          1           0       -9.613555    2.067866   -1.932009
    129          1           0       -8.274341    1.530483   -0.995622
    130          1           0       -9.647388    3.359972    0.788194
    131          1           0       -9.764534    4.109336   -0.692478
    132          1           0       -7.014294    3.495244   -0.539392
    133          1           0       -7.363692    3.931061    1.188360
    134          1           0       -8.496491    5.863954   -0.732120
    135          1           0       -6.212250    7.043671   -1.214105
    136          1           0       -6.727779    5.481750   -1.940222
    137          1           0       -5.427543    5.603593   -0.694119
    138          1           0       -8.370318    7.258593    1.001717
    139          1           0       -6.697815    6.587850    1.550725
    140          1           0       -8.163420    5.839773    1.963200
 ---------------------------------------------------------------------

 SCF Done:  E(RB-LYP) =  -3007.37000894     A.U. after   21 cycles

 Excitation energies and oscillator strengths:

 Excited State   1:      Singlet-A      1.8066 eV  686.28 nm  f=0.2840  <S**2>=0.000
     245 -> 248       -0.18847
     246 -> 247        0.69182
     246 <- 247       -0.15233
 This state for optimization and/or second-order correction.
 Total Energy, E(TD-HF/TD-DFT) =  -3007.30361688
 Copying the excited state density for this state as the 1-particle RhoCI density.

 Excited State   2:      Singlet-A      2.0164 eV  614.88 nm  f=0.0238  <S**2>=0.000
     244 -> 247        0.55966
     245 -> 247        0.39188
     246 -> 248        0.14915

 Excited State   3:      Singlet-A      2.0675 eV  599.69 nm  f=0.0365  <S**2>=0.000
     243 -> 247       -0.25977
     244 -> 247       -0.41972
     245 -> 247        0.45254
     246 -> 248        0.21103

 Excited State   4:      Singlet-A      2.1082 eV  588.11 nm  f=0.0096  <S**2>=0.000
     243 -> 247        0.65115
     245 -> 247        0.22084
     246 -> 248        0.12048

 Excited State   5:      Singlet-A      2.1585 eV  574.41 nm  f=0.0001  <S**2>=0.000
     242 -> 247        0.70692

 The electronic state is 1-A.
 Alpha  occ. eigenvalues --  -46.27371 -18.82481 -18.82269 -18.77930 -18.77443
 Alpha  occ. eigenvalues --  -18.75789 -18.75657 -14.03381 -14.02701 -14.01514
 Alpha  occ. eigenvalues --  -14.01115 -10.05089 -10.04853  -9.99741  -9.99483
 Alpha  occ. eigenvalues --   -9.97645  -9.97636  -9.96792  -9.96652  -9.96317
 Alpha  occ. eigenvalues --   -9.96312  -9.96297  -9.95952  -9.95599  -9.94876
 Alpha  occ. eigenvalues --   -9.94587  -9.94575  -9.94534  -9.94413  -9.94260
 Alpha  occ. eigenvalues --   -9.94040  -9.93791  -9.93572  -9.93510  -9.93418
 Alpha  occ. eigenvalues --   -9.93336  -9.93273  -9.93248  -9.93208  -9.93060
 Alpha  occ. eigenvalues --   -9.93018  -9.92855  -9.92793  -9.92512  -9.92415
 Alpha  occ. eigenvalues --   -9.92162  -9.92057  -9.92035  -9.91859  -9.91853
 Alpha  occ. eigenvalues --   -9.91614  -9.91545  -9.91430  -9.91378  -9.91169
 Alpha  occ. eigenvalues --   -9.91094  -9.91048  -9.91022  -9.90950  -9.90857
 Alpha  occ. eigenvalues --   -9.90760  -9.90545  -9.90513  -9.90373  -9.90365
 Alpha  occ. eigenvalues --   -9.90190  -2.91983  -1.72394  -1.71872  -1.71697
 Alpha  occ. eigenvalues --   -0.97052  -0.96614  -0.93098  -0.92154  -0.89998
 Alpha  occ. eigenvalues --   -0.89361  -0.86475  -0.85853  -0.85014  -0.84173
 Alpha  occ. eigenvalues --   -0.75831  -0.73794  -0.72557  -0.72511  -0.72116
 Alpha  occ. eigenvalues --   -0.71752  -0.71174  -0.71074  -0.70266  -0.70212
 Alpha  occ. eigenvalues --   -0.69288  -0.68492  -0.67987  -0.67369  -0.66964
 Alpha  occ. eigenvalues --   -0.66129  -0.65986  -0.65263  -0.65054  -0.64430
 Alpha  occ. eigenvalues --   -0.63550  -0.62649  -0.62222  -0.61534  -0.61011
 Alpha  occ. eigenvalues --   -0.59833  -0.59793  -0.59629  -0.59053  -0.58569
 Alpha  occ. eigenvalues --   -0.58084  -0.57699  -0.57036  -0.55796  -0.55385
 Alpha  occ. eigenvalues --   -0.54148  -0.53339  -0.52704  -0.52169  -0.52013
 Alpha  occ. eigenvalues --   -0.51401  -0.51042  -0.50929  -0.50353  -0.49979
 Alpha  occ. eigenvalues --   -0.49684  -0.49025  -0.48791  -0.48600  -0.46757
 Alpha  occ. eigenvalues --   -0.46485  -0.46150  -0.45836  -0.45505  -0.44872
 Alpha  occ. eigenvalues --   -0.44080  -0.43524  -0.43047  -0.42415  -0.42321
 Alpha  occ. eigenvalues --   -0.42187  -0.41475  -0.41318  -0.41044  -0.40843
 Alpha  occ. eigenvalues --   -0.40598  -0.40447  -0.40290  -0.40167  -0.39824
 Alpha  occ. eigenvalues --   -0.39742  -0.39382  -0.39353  -0.39154  -0.39056
 Alpha  occ. eigenvalues --   -0.38877  -0.38601  -0.38373  -0.38240  -0.37987
 Alpha  occ. eigenvalues --   -0.37938  -0.37814  -0.37525  -0.37179  -0.37000
 Alpha  occ. eigenvalues --   -0.36644  -0.36520  -0.36453  -0.36337  -0.36184
 Alpha  occ. eigenvalues --   -0.36091  -0.36036  -0.35927  -0.35767  -0.35415
 Alpha  occ. eigenvalues --   -0.35331  -0.34940  -0.34720  -0.34673  -0.34546
 Alpha  occ. eigenvalues --   -0.34487  -0.34366  -0.33973  -0.33889  -0.33824
 Alpha  occ. eigenvalues --   -0.33750  -0.33558  -0.33504  -0.33434  -0.33293
 Alpha  occ. eigenvalues --   -0.33113  -0.32620  -0.32499  -0.32416  -0.32180
 Alpha  occ. eigenvalues --   -0.32001  -0.31797  -0.31538  -0.31492  -0.31327
 Alpha  occ. eigenvalues --   -0.31258  -0.31111  -0.30965  -0.30904  -0.30686
 Alpha  occ. eigenvalues --   -0.30605  -0.30417  -0.30348  -0.30287  -0.29963
 Alpha  occ. eigenvalues --   -0.29803  -0.29619  -0.29217  -0.28950  -0.28816
 Alpha  occ. eigenvalues --   -0.28799  -0.28556  -0.28368  -0.28083  -0.27987
 Alpha  occ. eigenvalues --   -0.27800  -0.27004  -0.26790  -0.26605  -0.26530
 Alpha  occ. eigenvalues --   -0.26321  -0.26175  -0.26062  -0.25764  -0.25062
 Alpha  occ. eigenvalues --   -0.24936  -0.24490  -0.24154  -0.23715  -0.23426
 Alpha  occ. eigenvalues --   -0.22977  -0.22743  -0.22639  -0.21871  -0.21514
 Alpha  occ. eigenvalues --   -0.20184  -0.19463  -0.19141  -0.18941  -0.17531
 Alpha  occ. eigenvalues --   -0.15774
 Alpha virt. eigenvalues --   -0.11531  -0.06939  -0.06027  -0.04641  -0.03818
 Alpha virt. eigenvalues --   -0.03535  -0.02771  -0.02650  -0.02097  -0.00206
 Alpha virt. eigenvalues --    0.01121   0.01576   0.02370   0.02785   0.02896

 Mulliken charges:
               1
     1  Mg   0.699193
     2  C    0.041819
     3  C   -0.047201
     4  C   -0.049020
     5  C   -0.056394
     6  N   -0.278107
     7  C   -0.070674
     8  C    0.020409
     9  C    0.000604
    10  C    0.014601
    11  C    0.127370
    12  C    0.086221
    13  C    0.122339
    14  C    0.096013
    15  O   -0.171027
    16  O   -0.296421
    17  N   -0.338587
    18  C    0.210454
    19  C   -0.130846
    20  C    0.021395
    21  C    0.081333
    22  C    0.169716
    23  C   -0.083099
    24  O   -0.137852
    25  C    0.130800
    26  N   -0.171069
    27  C    0.013375
    28  C    0.016727
    29  C    0.055381
    30  C   -0.036845
    31  C    0.119183
    32  C    0.094606
    33  C    0.043628
    34  N   -0.234595
    35  C    0.121222
    36  C   -0.219248
    37  C    0.087914
    38  C    0.048166
    39  C    0.184024
    40  C   -0.031110
    41  O   -0.102820
    42  C    0.099996
    43  C    0.126306
    44  O   -0.191682
    45  O   -0.279214
    46  C    0.212427
    47  C    0.317408
    48  C   -0.097007
    49  C   -0.141937
    50  C    0.155488
    51  C    0.141646
    52  C    0.050436
    53  C    0.120871
    54  C   -0.132586
    55  C    0.107034
    56  C    0.110792
    57  C    0.090657
    58  C    0.092772
    59  C   -0.101533
    60  C    0.106638
    61  C    0.123983
    62  C    0.042947
    63  C    0.106706
    64  C   -0.093213
    65  C    0.076964
    66  C    0.107254
    67  H   -0.063370
    68  H   -0.060803
    69  H   -0.067330
    70  H   -0.037851
    71  H   -0.028314
    72  H   -0.001699
    73  H   -0.006005
    74  H   -0.007372
    75  H   -0.017716
    76  H   -0.010974
    77  H   -0.004437
    78  H    0.001959
    79  H    0.004914
    80  H   -0.030167
    81  H    0.001399
    82  H    0.014004
    83  H   -0.014060
    84  H    0.022989
    85  H   -0.020292
    86  H   -0.027366
    87  H   -0.007796
    88  H   -0.003792
    89  H    0.010612
    90  H   -0.016443
    91  H   -0.026963
    92  H    0.005078
    93  H   -0.016796
    94  H   -0.009372
    95  H    0.001178
    96  H    0.002934
    97  H    0.014711
    98  H   -0.002746
    99  H    0.011732
   100  H    0.029707
   101  H    0.001959
   102  H   -0.008876
   103  H    0.020474
   104  H   -0.029373
   105  H   -0.016655
   106  H    0.002406
   107  H    0.004390
   108  H   -0.042455
   109  H   -0.050279
   110  H   -0.028152
   111  H   -0.041195
   112  H   -0.042492
   113  H   -0.027223
   114  H   -0.034344
   115  H   -0.000531
   116  H   -0.031565
   117  H   -0.026281
   118  H   -0.037518
   119  H   -0.038940
   120  H   -0.037589
   121  H   -0.033813
   122  H   -0.029857
   123  H   -0.019999
   124  H   -0.029306
   125  H   -0.029987
   126  H   -0.022670
   127  H   -0.012938
   128  H   -0.030980
   129  H   -0.028437
   130  H   -0.032739
   131  H   -0.032246
   132  H   -0.030524
   133  H   -0.021349
   134  H   -0.033379
   135  H   -0.012226
   136  H   -0.010655
   137  H   -0.009823
   138  H   -0.011010
   139  H   -0.014400
   140  H   -0.033710
 Sum of Mulliken charges =  -0.00000

 Dipole moment (field-independent basis, Debye):
    X=             -2.0656    Y=              2.6470    Z=              1.4051  Tot=              3.6397
 Quadrupole moment (field-independent basis, Debye-Ang):
   XX=           -412.5596   YY=           -426.7473   ZZ=           -381.1637
   XY=             55.4001   XZ=              5.6514   YZ=             27.0223

 Normal termination of Gaussian 16 at Tue May  3 16:55:04 2022.
