 Gaussian 16, Revision A.03,
 Gaussian 16:  ES64L-G16RevA.03 25-Dec-2016

 -----------------------------------
 #p cam-b3lyp/Def2SVP td=(nstates=5)
 -----------------------------------

 --------------------------------------------------------
 step_1001_chromophore_17 TDDFT with cam-b3lyp functional
 --------------------------------------------------------
 Symbolic Z-matrix:
 Charge =  0 Multiplicity = 1

                         Standard orientation:
 ---------------------------------------------------------------------
 Center     Atomic      Atomic             Coordinates (Angstroms)
 Number     Number       Type             X           Y           Z
 ---------------------------------------------------------------------
      1         12           0        3.702793    1.417612   -0.669012
      2          6           0        3.974551   -2.052445   -0.854273
      3          6           0        0.867282    1.314774   -2.527807
      4          6           0        2.869128    4.499205    0.603829
      5          6           0        6.329288    1.410615    1.738649
      6          7           0        2.583729   -0.193545   -1.457123
      7          6           0        2.910483   -1.554162   -1.542873
      8          6           0        1.791095   -2.313466   -2.214376
      9          6           0        1.084390   -1.185467   -3.060110
     10          6           0        1.530135    0.097474   -2.310138
     11          6           0        1.401731   -1.258940   -4.604520
     12          6           0        0.855320   -3.036159   -1.142106
     13          6           0        0.460878   -4.511041   -1.317634
     14          6           0        0.058404   -5.268604   -0.013127
     15          8           0        0.520462   -6.299162    0.482190
     16          8           0       -0.985828   -4.521253    0.578950
     17          7           0        2.248436    2.802571   -1.150472
     18          6           0        1.174022    2.562530   -1.993767
     19          6           0        0.486468    3.831354   -2.099328
     20          6           0        1.055641    4.776897   -1.237423
     21          6           0        2.107991    4.058099   -0.545343
     22          6           0       -0.823311    3.982231   -2.972810
     23          6           0        0.669328    6.264944   -1.216019
     24          8           0       -0.119128    6.660442   -2.027566
     25          6           0        1.470749    7.219503   -0.434625
     26          7           0        4.595874    2.854048    0.942932
     27          6           0        4.050453    4.065444    1.120693
     28          6           0        4.807215    4.873528    2.178070
     29          6           0        5.917091    3.841799    2.626628
     30          6           0        5.713056    2.657143    1.707048
     31          6           0        5.396347    6.235328    1.565558
     32          6           0        5.845740    3.403119    4.097306
     33          6           0        7.253716    3.556540    4.823351
     34          7           0        4.962040    0.020754    0.209429
     35          6           0        5.998601    0.148631    1.149427
     36          6           0        6.580402   -1.209701    1.383395
     37          6           0        5.871700   -2.086177    0.648823
     38          6           0        4.867960   -1.267496   -0.068124
     39          6           0        7.732401   -1.428499    2.367032
     40          6           0        5.687406   -3.482518    0.258431
     41          8           0        6.355360   -4.449848    0.545548
     42          6           0        4.510011   -3.457839   -0.644128
     43          6           0        5.058306   -3.991443   -2.011832
     44          8           0        6.098734   -3.579114   -2.558690
     45          8           0        4.317628   -5.101481   -2.483283
     46          6           0        4.641939   -5.646978   -3.777217
     47          6           0       -1.655742   -5.121426    1.715251
     48          6           0       -3.086306   -5.271759    1.354229
     49          6           0       -4.054497   -5.666245    2.266876
     50          6           0       -3.953358   -5.839971    3.794271
     51          6           0       -5.425944   -6.059881    1.750880
     52          6           0       -6.477259   -5.042611    2.013764
     53          6           0       -6.640362   -4.048188    0.790089
     54          6           0       -7.007815   -2.732928    1.416913
     55          6           0       -5.723079   -2.199791    2.120752
     56          6           0       -7.597838   -1.673174    0.371277
     57          6           0       -8.744510   -0.819647    0.893485
     58          6           0       -9.673083   -0.433748   -0.313622
     59          6           0      -10.204351    1.026840   -0.138061
     60          6           0      -11.685669    1.011706   -0.679976
     61          6           0       -9.253905    1.999512   -0.904692
     62          6           0       -9.127304    3.398095   -0.168220
     63          6           0       -7.667560    4.033824    0.146503
     64          6           0       -7.618476    5.582637   -0.149833
     65          6           0       -6.391668    5.983848   -1.033280
     66          6           0       -7.700032    6.413101    1.160183
     67          1           0        0.048379    1.085886   -3.212598
     68          1           0        2.377499    5.346087    1.086615
     69          1           0        7.187822    1.471836    2.410057
     70          1           0        2.150484   -3.147279   -2.817241
     71          1           0        0.010694   -1.343035   -2.949821
     72          1           0        2.186534   -0.573013   -4.924756
     73          1           0        0.517497   -0.987210   -5.181293
     74          1           0        1.688005   -2.279351   -4.858078
     75          1           0       -0.095518   -2.508289   -1.065547
     76          1           0        1.257178   -2.898522   -0.137595
     77          1           0        1.303636   -5.050956   -1.750618
     78          1           0       -0.344489   -4.584036   -2.047460
     79          1           0       -1.584006    4.429086   -2.332154
     80          1           0       -1.170653    3.030279   -3.374279
     81          1           0       -0.741938    4.609319   -3.861361
     82          1           0        1.149729    7.204859    0.606871
     83          1           0        1.217997    8.213839   -0.804899
     84          1           0        2.539575    7.045528   -0.565323
     85          1           0        4.138064    4.973379    3.032306
     86          1           0        6.885018    4.321697    2.480997
     87          1           0        6.474794    6.275667    1.721043
     88          1           0        4.974003    7.079633    2.110946
     89          1           0        5.148922    6.338892    0.509331
     90          1           0        5.466217    2.387100    4.204749
     91          1           0        5.062615    3.911384    4.659484
     92          1           0        7.680187    2.609758    5.153983
     93          1           0        7.236190    4.156430    5.733899
     94          1           0        7.950777    4.146822    4.228662
     95          1           0        7.493536   -0.953297    3.318015
     96          1           0        8.504259   -0.835799    1.877403
     97          1           0        8.002473   -2.480952    2.461262
     98          1           0        3.752327   -4.147234   -0.273588
     99          1           0        4.182500   -6.633347   -3.721061
    100          1           0        5.714619   -5.633589   -3.970092
    101          1           0        4.124051   -5.210810   -4.631055
    102          1           0       -1.687871   -4.361094    2.494923
    103          1           0       -1.225898   -5.978879    2.234878
    104          1           0       -3.325953   -5.284534    0.291314
    105          1           0       -3.016967   -5.398832    4.134636
    106          1           0       -3.892592   -6.911349    3.985640
    107          1           0       -4.838139   -5.451135    4.299846
    108          1           0       -5.888551   -7.009580    2.017158
    109          1           0       -5.379552   -6.162139    0.666627
    110          1           0       -6.279810   -4.521309    2.951100
    111          1           0       -7.383062   -5.625282    2.182094
    112          1           0       -7.454784   -4.315666    0.117617
    113          1           0       -5.747052   -3.958648    0.171535
    114          1           0       -7.746662   -2.951989    2.187979
    115          1           0       -4.787434   -2.680268    1.836366
    116          1           0       -5.839531   -2.396459    3.186443
    117          1           0       -5.658603   -1.111518    2.112511
    118          1           0       -7.876364   -2.189845   -0.546821
    119          1           0       -6.706142   -1.093640    0.131357
    120          1           0       -8.363132    0.097818    1.345018
    121          1           0       -9.122520   -1.303476    1.793691
    122          1           0      -10.483825   -1.153844   -0.207324
    123          1           0       -9.322536   -0.488720   -1.344546
    124          1           0      -10.173751    1.247637    0.928283
    125          1           0      -11.976036    0.015361   -1.014753
    126          1           0      -11.959423    1.562274   -1.579296
    127          1           0      -12.344216    1.275906    0.147689
    128          1           0       -9.613555    2.067866   -1.932009
    129          1           0       -8.274341    1.530483   -0.995622
    130          1           0       -9.647388    3.359972    0.788194
    131          1           0       -9.764534    4.109336   -0.692478
    132          1           0       -7.014294    3.495244   -0.539392
    133          1           0       -7.363692    3.931061    1.188360
    134          1           0       -8.496491    5.863954   -0.732120
    135          1           0       -6.212250    7.043671   -1.214105
    136          1           0       -6.727779    5.481750   -1.940222
    137          1           0       -5.427543    5.603593   -0.694119
    138          1           0       -8.370318    7.258593    1.001717
    139          1           0       -6.697815    6.587850    1.550725
    140          1           0       -8.163420    5.839773    1.963200
 ---------------------------------------------------------------------

 SCF Done:  E(RCAM-B3LYP) =  -3007.15272577     A.U. after   17 cycles

 Excitation energies and oscillator strengths:

 Excited State   1:      Singlet-A      1.6836 eV  736.43 nm  f=0.3564  <S**2>=0.000
     245 -> 248        0.18081
     246 -> 247        0.68652
     245 <- 248        0.11028
 This state for optimization and/or second-order correction.
 Total Energy, E(TD-HF/TD-DFT) =  -3007.09085557
 Copying the excited state density for this state as the 1-particle RhoCI density.

 Excited State   2:      Singlet-A      2.2816 eV  543.41 nm  f=0.0704  <S**2>=0.000
     245 -> 247        0.61831
     246 -> 248       -0.33322

 Excited State   3:      Singlet-A      3.3357 eV  371.69 nm  f=0.0327  <S**2>=0.000
     243 -> 247        0.65441
     246 -> 248        0.22742

 Excited State   4:      Singlet-A      3.5352 eV  350.71 nm  f=0.8337  <S**2>=0.000
     242 -> 247        0.13956
     243 -> 247       -0.22196
     245 -> 247        0.32628
     246 -> 248        0.56896
     245 <- 247       -0.10999

 Excited State   5:      Singlet-A      3.7116 eV  334.05 nm  f=0.0092  <S**2>=0.000
     239 -> 247        0.16531
     239 -> 249       -0.12288
     240 -> 247        0.52450
     240 -> 249       -0.34962
     240 -> 251        0.14828

 The electronic state is 1-A.
 Alpha  occ. eigenvalues --  -46.88970 -19.25417 -19.25088 -19.20997 -19.20563
 Alpha  occ. eigenvalues --  -19.19103 -19.18920 -14.42196 -14.41650 -14.40071
 Alpha  occ. eigenvalues --  -14.39602 -10.40572 -10.40487 -10.34859 -10.34790
 Alpha  occ. eigenvalues --  -10.31577 -10.31529 -10.31367 -10.31185 -10.30797
 Alpha  occ. eigenvalues --  -10.30621 -10.30568 -10.30303 -10.29948 -10.29280
 Alpha  occ. eigenvalues --  -10.28964 -10.28705 -10.28640 -10.28401 -10.28334
 Alpha  occ. eigenvalues --  -10.28331 -10.27941 -10.27917 -10.27761 -10.27498
 Alpha  occ. eigenvalues --  -10.27451 -10.27437 -10.27053 -10.27033 -10.26994
 Alpha  occ. eigenvalues --  -10.26969 -10.26774 -10.26502 -10.26427 -10.26186
 Alpha  occ. eigenvalues --  -10.26184 -10.26114 -10.26042 -10.25610 -10.25604
 Alpha  occ. eigenvalues --  -10.25425 -10.25286 -10.25118 -10.25108 -10.25019
 Alpha  occ. eigenvalues --  -10.24898 -10.24745 -10.24700 -10.24697 -10.24583
 Alpha  occ. eigenvalues --  -10.24412 -10.24145 -10.24101 -10.24041 -10.23958
 Alpha  occ. eigenvalues --  -10.23749  -3.17481  -1.92368  -1.91930  -1.91789
 Alpha  occ. eigenvalues --   -1.15460  -1.15086  -1.11602  -1.10680  -1.07862
 Alpha  occ. eigenvalues --   -1.07294  -1.04216  -1.03523  -1.02622  -1.01676
 Alpha  occ. eigenvalues --   -0.93036  -0.90670  -0.89315  -0.89241  -0.88856
 Alpha  occ. eigenvalues --   -0.88369  -0.87806  -0.87704  -0.86830  -0.86773
 Alpha  occ. eigenvalues --   -0.85689  -0.85004  -0.84262  -0.83609  -0.83093
 Alpha  occ. eigenvalues --   -0.82243  -0.82049  -0.81212  -0.80782  -0.80224
 Alpha  occ. eigenvalues --   -0.79298  -0.78303  -0.77770  -0.77100  -0.76460
 Alpha  occ. eigenvalues --   -0.75149  -0.75115  -0.74925  -0.74315  -0.73717
 Alpha  occ. eigenvalues --   -0.73184  -0.72713  -0.71950  -0.70640  -0.70002
 Alpha  occ. eigenvalues --   -0.68823  -0.67861  -0.67188  -0.66357  -0.66321
 Alpha  occ. eigenvalues --   -0.65513  -0.65159  -0.65077  -0.64270  -0.63805
 Alpha  occ. eigenvalues --   -0.63706  -0.62820  -0.62720  -0.62530  -0.60299
 Alpha  occ. eigenvalues --   -0.60080  -0.59748  -0.59337  -0.58805  -0.58562
 Alpha  occ. eigenvalues --   -0.57503  -0.56936  -0.56348  -0.55651  -0.55539
 Alpha  occ. eigenvalues --   -0.55306  -0.54398  -0.54272  -0.53907  -0.53722
 Alpha  occ. eigenvalues --   -0.53570  -0.53088  -0.52983  -0.52848  -0.52499
 Alpha  occ. eigenvalues --   -0.52331  -0.52141  -0.52033  -0.51911  -0.51801
 Alpha  occ. eigenvalues --   -0.51384  -0.51045  -0.50980  -0.50616  -0.50331
 Alpha  occ. eigenvalues --   -0.50274  -0.50199  -0.49926  -0.49712  -0.49702
 Alpha  occ. eigenvalues --   -0.49525  -0.49164  -0.48735  -0.48559  -0.48387
 Alpha  occ. eigenvalues --   -0.48170  -0.48125  -0.48059  -0.47887  -0.47443
 Alpha  occ. eigenvalues --   -0.47318  -0.46871  -0.46669  -0.46506  -0.46449
 Alpha  occ. eigenvalues --   -0.46382  -0.46115  -0.45885  -0.45791  -0.45696
 Alpha  occ. eigenvalues --   -0.45614  -0.45534  -0.45187  -0.45166  -0.45010
 Alpha  occ. eigenvalues --   -0.44779  -0.44297  -0.44077  -0.44061  -0.43813
 Alpha  occ. eigenvalues --   -0.43617  -0.43355  -0.43170  -0.42954  -0.42889
 Alpha  occ. eigenvalues --   -0.42812  -0.42640  -0.42467  -0.42297  -0.42112
 Alpha  occ. eigenvalues --   -0.42027  -0.41941  -0.41625  -0.41607  -0.41544
 Alpha  occ. eigenvalues --   -0.41159  -0.40947  -0.40448  -0.40078  -0.39898
 Alpha  occ. eigenvalues --   -0.39862  -0.39758  -0.39409  -0.39051  -0.38870
 Alpha  occ. eigenvalues --   -0.38678  -0.37866  -0.37769  -0.37581  -0.37311
 Alpha  occ. eigenvalues --   -0.37232  -0.36983  -0.36874  -0.36775  -0.36367
 Alpha  occ. eigenvalues --   -0.36228  -0.35078  -0.34800  -0.34703  -0.34598
 Alpha  occ. eigenvalues --   -0.34482  -0.33017  -0.32934  -0.31666  -0.31406
 Alpha  occ. eigenvalues --   -0.31225  -0.30995  -0.29656  -0.28895  -0.24450
 Alpha  occ. eigenvalues --   -0.20968
 Alpha virt. eigenvalues --   -0.08549  -0.01910   0.00614   0.02052   0.02526
 Alpha virt. eigenvalues --    0.04048   0.04360   0.04767   0.04951   0.06472
 Alpha virt. eigenvalues --    0.07927   0.08318   0.08648   0.08940   0.09080

 Mulliken charges:
               1
     1  Mg   0.829656
     2  C   -0.002872
     3  C   -0.064001
     4  C   -0.069817
     5  C   -0.067417
     6  N   -0.350647
     7  C   -0.024833
     8  C   -0.024828
     9  C   -0.059037
    10  C    0.034939
    11  C    0.074503
    12  C    0.035513
    13  C    0.056912
    14  C    0.177101
    15  O   -0.212615
    16  O   -0.361506
    17  N   -0.425440
    18  C    0.212514
    19  C   -0.136637
    20  C   -0.049196
    21  C    0.112054
    22  C    0.123289
    23  C   -0.001397
    24  O   -0.176044
    25  C    0.042067
    26  N   -0.235499
    27  C    0.032484
    28  C   -0.039277
    29  C    0.002159
    30  C   -0.014864
    31  C    0.064817
    32  C    0.033348
    33  C   -0.017732
    34  N   -0.321904
    35  C    0.121921
    36  C   -0.208858
    37  C    0.005091
    38  C    0.093398
    39  C    0.132536
    40  C    0.070014
    41  O   -0.140576
    42  C    0.028388
    43  C    0.217804
    44  O   -0.229470
    45  O   -0.344707
    46  C    0.174036
    47  C    0.279691
    48  C   -0.114737
    49  C   -0.169432
    50  C    0.097969
    51  C    0.078846
    52  C   -0.004413
    53  C    0.070755
    54  C   -0.186086
    55  C    0.045818
    56  C    0.059555
    57  C    0.038763
    58  C    0.035218
    59  C   -0.156970
    60  C    0.046733
    61  C    0.071440
    62  C   -0.007505
    63  C    0.050547
    64  C   -0.151013
    65  C    0.020980
    66  C    0.046164
    67  H   -0.028083
    68  H   -0.024640
    69  H   -0.031768
    70  H   -0.004543
    71  H    0.007925
    72  H    0.023891
    73  H    0.017653
    74  H    0.015466
    75  H    0.014303
    76  H    0.020636
    77  H    0.026275
    78  H    0.032942
    79  H    0.029627
    80  H   -0.005109
    81  H    0.028432
    82  H    0.041552
    83  H    0.022537
    84  H    0.049684
    85  H    0.014026
    86  H    0.006387
    87  H    0.016228
    88  H    0.019523
    89  H    0.033280
    90  H    0.015395
    91  H    0.002809
    92  H    0.026969
    93  H    0.008424
    94  H    0.012653
    95  H    0.025560
    96  H    0.027682
    97  H    0.042456
    98  H    0.040371
    99  H    0.034597
   100  H    0.054781
   101  H    0.020912
   102  H    0.017400
   103  H    0.052069
   104  H    0.003054
   105  H    0.006777
   106  H    0.027805
   107  H    0.027221
   108  H   -0.008935
   109  H   -0.018066
   110  H   -0.003534
   111  H   -0.009380
   112  H   -0.012047
   113  H   -0.000732
   114  H   -0.003704
   115  H    0.023307
   116  H   -0.007614
   117  H   -0.000179
   118  H   -0.009280
   119  H   -0.010625
   120  H   -0.011352
   121  H   -0.004478
   122  H    0.000599
   123  H    0.007923
   124  H    0.002256
   125  H   -0.004759
   126  H    0.001964
   127  H    0.010987
   128  H   -0.002857
   129  H   -0.001571
   130  H   -0.005680
   131  H   -0.004203
   132  H   -0.002028
   133  H    0.006267
   134  H   -0.002279
   135  H    0.012418
   136  H    0.011430
   137  H    0.012274
   138  H    0.013367
   139  H    0.009020
   140  H   -0.009362
 Sum of Mulliken charges =  -0.00000

 Dipole moment (field-independent basis, Debye):
    X=             -2.1953    Y=              2.9458    Z=              1.3724  Tot=              3.9218
 Quadrupole moment (field-independent basis, Debye-Ang):
   XX=           -412.5903   YY=           -424.0251   ZZ=           -379.1256
   XY=             57.5039   XZ=              7.0637   YZ=             29.0048

 Normal termination of Gaussian 16 at Tue May  3 15:03:10 2022.
