 Gaussian 16, Revision A.03,
 Gaussian 16:  ES64L-G16RevA.03 25-Dec-2016

 ---------------------------------
 #p PBE1PBE/Def2SVP td=(nstates=5)
 ---------------------------------

 ------------------------------------------------------
 step_1001_chromophore_17 TDDFT with PBE1PBE functional
 ------------------------------------------------------
 Symbolic Z-matrix:
 Charge =  0 Multiplicity = 1

                         Standard orientation:
 ---------------------------------------------------------------------
 Center     Atomic      Atomic             Coordinates (Angstroms)
 Number     Number       Type             X           Y           Z
 ---------------------------------------------------------------------
      1         12           0        3.702793    1.417612   -0.669012
      2          6           0        3.974551   -2.052445   -0.854273
      3          6           0        0.867282    1.314774   -2.527807
      4          6           0        2.869128    4.499205    0.603829
      5          6           0        6.329288    1.410615    1.738649
      6          7           0        2.583729   -0.193545   -1.457123
      7          6           0        2.910483   -1.554162   -1.542873
      8          6           0        1.791095   -2.313466   -2.214376
      9          6           0        1.084390   -1.185467   -3.060110
     10          6           0        1.530135    0.097474   -2.310138
     11          6           0        1.401731   -1.258940   -4.604520
     12          6           0        0.855320   -3.036159   -1.142106
     13          6           0        0.460878   -4.511041   -1.317634
     14          6           0        0.058404   -5.268604   -0.013127
     15          8           0        0.520462   -6.299162    0.482190
     16          8           0       -0.985828   -4.521253    0.578950
     17          7           0        2.248436    2.802571   -1.150472
     18          6           0        1.174022    2.562530   -1.993767
     19          6           0        0.486468    3.831354   -2.099328
     20          6           0        1.055641    4.776897   -1.237423
     21          6           0        2.107991    4.058099   -0.545343
     22          6           0       -0.823311    3.982231   -2.972810
     23          6           0        0.669328    6.264944   -1.216019
     24          8           0       -0.119128    6.660442   -2.027566
     25          6           0        1.470749    7.219503   -0.434625
     26          7           0        4.595874    2.854048    0.942932
     27          6           0        4.050453    4.065444    1.120693
     28          6           0        4.807215    4.873528    2.178070
     29          6           0        5.917091    3.841799    2.626628
     30          6           0        5.713056    2.657143    1.707048
     31          6           0        5.396347    6.235328    1.565558
     32          6           0        5.845740    3.403119    4.097306
     33          6           0        7.253716    3.556540    4.823351
     34          7           0        4.962040    0.020754    0.209429
     35          6           0        5.998601    0.148631    1.149427
     36          6           0        6.580402   -1.209701    1.383395
     37          6           0        5.871700   -2.086177    0.648823
     38          6           0        4.867960   -1.267496   -0.068124
     39          6           0        7.732401   -1.428499    2.367032
     40          6           0        5.687406   -3.482518    0.258431
     41          8           0        6.355360   -4.449848    0.545548
     42          6           0        4.510011   -3.457839   -0.644128
     43          6           0        5.058306   -3.991443   -2.011832
     44          8           0        6.098734   -3.579114   -2.558690
     45          8           0        4.317628   -5.101481   -2.483283
     46          6           0        4.641939   -5.646978   -3.777217
     47          6           0       -1.655742   -5.121426    1.715251
     48          6           0       -3.086306   -5.271759    1.354229
     49          6           0       -4.054497   -5.666245    2.266876
     50          6           0       -3.953358   -5.839971    3.794271
     51          6           0       -5.425944   -6.059881    1.750880
     52          6           0       -6.477259   -5.042611    2.013764
     53          6           0       -6.640362   -4.048188    0.790089
     54          6           0       -7.007815   -2.732928    1.416913
     55          6           0       -5.723079   -2.199791    2.120752
     56          6           0       -7.597838   -1.673174    0.371277
     57          6           0       -8.744510   -0.819647    0.893485
     58          6           0       -9.673083   -0.433748   -0.313622
     59          6           0      -10.204351    1.026840   -0.138061
     60          6           0      -11.685669    1.011706   -0.679976
     61          6           0       -9.253905    1.999512   -0.904692
     62          6           0       -9.127304    3.398095   -0.168220
     63          6           0       -7.667560    4.033824    0.146503
     64          6           0       -7.618476    5.582637   -0.149833
     65          6           0       -6.391668    5.983848   -1.033280
     66          6           0       -7.700032    6.413101    1.160183
     67          1           0        0.048379    1.085886   -3.212598
     68          1           0        2.377499    5.346087    1.086615
     69          1           0        7.187822    1.471836    2.410057
     70          1           0        2.150484   -3.147279   -2.817241
     71          1           0        0.010694   -1.343035   -2.949821
     72          1           0        2.186534   -0.573013   -4.924756
     73          1           0        0.517497   -0.987210   -5.181293
     74          1           0        1.688005   -2.279351   -4.858078
     75          1           0       -0.095518   -2.508289   -1.065547
     76          1           0        1.257178   -2.898522   -0.137595
     77          1           0        1.303636   -5.050956   -1.750618
     78          1           0       -0.344489   -4.584036   -2.047460
     79          1           0       -1.584006    4.429086   -2.332154
     80          1           0       -1.170653    3.030279   -3.374279
     81          1           0       -0.741938    4.609319   -3.861361
     82          1           0        1.149729    7.204859    0.606871
     83          1           0        1.217997    8.213839   -0.804899
     84          1           0        2.539575    7.045528   -0.565323
     85          1           0        4.138064    4.973379    3.032306
     86          1           0        6.885018    4.321697    2.480997
     87          1           0        6.474794    6.275667    1.721043
     88          1           0        4.974003    7.079633    2.110946
     89          1           0        5.148922    6.338892    0.509331
     90          1           0        5.466217    2.387100    4.204749
     91          1           0        5.062615    3.911384    4.659484
     92          1           0        7.680187    2.609758    5.153983
     93          1           0        7.236190    4.156430    5.733899
     94          1           0        7.950777    4.146822    4.228662
     95          1           0        7.493536   -0.953297    3.318015
     96          1           0        8.504259   -0.835799    1.877403
     97          1           0        8.002473   -2.480952    2.461262
     98          1           0        3.752327   -4.147234   -0.273588
     99          1           0        4.182500   -6.633347   -3.721061
    100          1           0        5.714619   -5.633589   -3.970092
    101          1           0        4.124051   -5.210810   -4.631055
    102          1           0       -1.687871   -4.361094    2.494923
    103          1           0       -1.225898   -5.978879    2.234878
    104          1           0       -3.325953   -5.284534    0.291314
    105          1           0       -3.016967   -5.398832    4.134636
    106          1           0       -3.892592   -6.911349    3.985640
    107          1           0       -4.838139   -5.451135    4.299846
    108          1           0       -5.888551   -7.009580    2.017158
    109          1           0       -5.379552   -6.162139    0.666627
    110          1           0       -6.279810   -4.521309    2.951100
    111          1           0       -7.383062   -5.625282    2.182094
    112          1           0       -7.454784   -4.315666    0.117617
    113          1           0       -5.747052   -3.958648    0.171535
    114          1           0       -7.746662   -2.951989    2.187979
    115          1           0       -4.787434   -2.680268    1.836366
    116          1           0       -5.839531   -2.396459    3.186443
    117          1           0       -5.658603   -1.111518    2.112511
    118          1           0       -7.876364   -2.189845   -0.546821
    119          1           0       -6.706142   -1.093640    0.131357
    120          1           0       -8.363132    0.097818    1.345018
    121          1           0       -9.122520   -1.303476    1.793691
    122          1           0      -10.483825   -1.153844   -0.207324
    123          1           0       -9.322536   -0.488720   -1.344546
    124          1           0      -10.173751    1.247637    0.928283
    125          1           0      -11.976036    0.015361   -1.014753
    126          1           0      -11.959423    1.562274   -1.579296
    127          1           0      -12.344216    1.275906    0.147689
    128          1           0       -9.613555    2.067866   -1.932009
    129          1           0       -8.274341    1.530483   -0.995622
    130          1           0       -9.647388    3.359972    0.788194
    131          1           0       -9.764534    4.109336   -0.692478
    132          1           0       -7.014294    3.495244   -0.539392
    133          1           0       -7.363692    3.931061    1.188360
    134          1           0       -8.496491    5.863954   -0.732120
    135          1           0       -6.212250    7.043671   -1.214105
    136          1           0       -6.727779    5.481750   -1.940222
    137          1           0       -5.427543    5.603593   -0.694119
    138          1           0       -8.370318    7.258593    1.001717
    139          1           0       -6.697815    6.587850    1.550725
    140          1           0       -8.163420    5.839773    1.963200
 ---------------------------------------------------------------------

 SCF Done:  E(RPBE1PBE) =  -3005.34007012     A.U. after   15 cycles

 Excitation energies and oscillator strengths:

 Excited State   1:      Singlet-A      1.8478 eV  670.99 nm  f=0.3463  <S**2>=0.000
     245 -> 248       -0.17282
     246 -> 247        0.69393
     246 <- 247       -0.10996
 This state for optimization and/or second-order correction.
 Total Energy, E(TD-HF/TD-DFT) =  -3005.27216545
 Copying the excited state density for this state as the 1-particle RhoCI density.

 Excited State   2:      Singlet-A      2.2845 eV  542.71 nm  f=0.0771  <S**2>=0.000
     245 -> 247        0.63330
     246 -> 248        0.30523

 Excited State   3:      Singlet-A      3.0160 eV  411.09 nm  f=0.0000  <S**2>=0.000
     243 -> 247        0.68934
     246 -> 248       -0.12535

 Excited State   4:      Singlet-A      3.2035 eV  387.03 nm  f=0.0018  <S**2>=0.000
     241 -> 247        0.65651
     241 -> 249       -0.19772
     242 -> 247       -0.11300

 Excited State   5:      Singlet-A      3.2084 eV  386.43 nm  f=0.0006  <S**2>=0.000
     241 -> 247        0.11365
     242 -> 247        0.66477
     242 -> 249        0.11769
     242 -> 250       -0.13398

 The electronic state is 1-A.
 Alpha  occ. eigenvalues --  -46.92356 -19.26069 -19.25831 -19.21283 -19.20796
 Alpha  occ. eigenvalues --  -19.19285 -19.19075 -14.41817 -14.41060 -14.39674
 Alpha  occ. eigenvalues --  -14.39265 -10.37642 -10.37562 -10.31958 -10.31884
 Alpha  occ. eigenvalues --  -10.29065 -10.28948 -10.28901 -10.28793 -10.28499
 Alpha  occ. eigenvalues --  -10.28402 -10.28390 -10.27981 -10.27582 -10.26969
 Alpha  occ. eigenvalues --  -10.26544 -10.26526 -10.26456 -10.26241 -10.25983
 Alpha  occ. eigenvalues --  -10.25821 -10.25793 -10.25638 -10.25598 -10.25198
 Alpha  occ. eigenvalues --  -10.25084 -10.24995 -10.24734 -10.24644 -10.24560
 Alpha  occ. eigenvalues --  -10.24528 -10.24240 -10.24102 -10.23896 -10.23686
 Alpha  occ. eigenvalues --  -10.23659 -10.23600 -10.23344 -10.23325 -10.23277
 Alpha  occ. eigenvalues --  -10.22876 -10.22858 -10.22737 -10.22685 -10.22680
 Alpha  occ. eigenvalues --  -10.22604 -10.22333 -10.22307 -10.22235 -10.22136
 Alpha  occ. eigenvalues --  -10.21988 -10.21599 -10.21559 -10.21483 -10.21326
 Alpha  occ. eigenvalues --  -10.21157  -3.14446  -1.87272  -1.86814  -1.86676
 Alpha  occ. eigenvalues --   -1.10275  -1.09832  -1.06321  -1.05397  -1.02744
 Alpha  occ. eigenvalues --   -1.02098  -0.98822  -0.98138  -0.97233  -0.96315
 Alpha  occ. eigenvalues --   -0.87374  -0.84785  -0.83580  -0.83463  -0.82969
 Alpha  occ. eigenvalues --   -0.82675  -0.82038  -0.81926  -0.81109  -0.80914
 Alpha  occ. eigenvalues --   -0.79919  -0.79303  -0.78497  -0.77822  -0.77352
 Alpha  occ. eigenvalues --   -0.76413  -0.76248  -0.75530  -0.75099  -0.74404
 Alpha  occ. eigenvalues --   -0.73447  -0.72571  -0.72087  -0.71391  -0.70743
 Alpha  occ. eigenvalues --   -0.69360  -0.69217  -0.69168  -0.68444  -0.67916
 Alpha  occ. eigenvalues --   -0.67515  -0.67049  -0.66369  -0.64946  -0.64344
 Alpha  occ. eigenvalues --   -0.63279  -0.62085  -0.61610  -0.60758  -0.60570
 Alpha  occ. eigenvalues --   -0.60053  -0.59571  -0.59408  -0.58863  -0.58202
 Alpha  occ. eigenvalues --   -0.57871  -0.57355  -0.56895  -0.56696  -0.54741
 Alpha  occ. eigenvalues --   -0.54569  -0.54262  -0.53936  -0.53458  -0.52917
 Alpha  occ. eigenvalues --   -0.52133  -0.51393  -0.50883  -0.50203  -0.50145
 Alpha  occ. eigenvalues --   -0.49864  -0.48903  -0.48785  -0.48448  -0.48272
 Alpha  occ. eigenvalues --   -0.48167  -0.47587  -0.47388  -0.47253  -0.47073
 Alpha  occ. eigenvalues --   -0.46803  -0.46699  -0.46622  -0.46481  -0.46264
 Alpha  occ. eigenvalues --   -0.45882  -0.45624  -0.45573  -0.45157  -0.44912
 Alpha  occ. eigenvalues --   -0.44809  -0.44706  -0.44509  -0.44242  -0.44236
 Alpha  occ. eigenvalues --   -0.44092  -0.43720  -0.43371  -0.43192  -0.42960
 Alpha  occ. eigenvalues --   -0.42852  -0.42737  -0.42595  -0.42546  -0.42072
 Alpha  occ. eigenvalues --   -0.41901  -0.41539  -0.41381  -0.41162  -0.41112
 Alpha  occ. eigenvalues --   -0.41051  -0.40747  -0.40610  -0.40459  -0.40359
 Alpha  occ. eigenvalues --   -0.40230  -0.40128  -0.39911  -0.39837  -0.39790
 Alpha  occ. eigenvalues --   -0.39429  -0.39049  -0.38876  -0.38816  -0.38553
 Alpha  occ. eigenvalues --   -0.38402  -0.38159  -0.37974  -0.37758  -0.37671
 Alpha  occ. eigenvalues --   -0.37554  -0.37501  -0.37314  -0.37025  -0.36951
 Alpha  occ. eigenvalues --   -0.36903  -0.36783  -0.36554  -0.36467  -0.36326
 Alpha  occ. eigenvalues --   -0.35920  -0.35769  -0.35335  -0.34992  -0.34732
 Alpha  occ. eigenvalues --   -0.34663  -0.34639  -0.34135  -0.33866  -0.33795
 Alpha  occ. eigenvalues --   -0.33438  -0.32756  -0.32655  -0.32374  -0.32272
 Alpha  occ. eigenvalues --   -0.32091  -0.31906  -0.31813  -0.31604  -0.31301
 Alpha  occ. eigenvalues --   -0.31183  -0.29947  -0.29766  -0.29600  -0.29513
 Alpha  occ. eigenvalues --   -0.29510  -0.28551  -0.28050  -0.27229  -0.26591
 Alpha  occ. eigenvalues --   -0.26206  -0.25946  -0.25204  -0.24231  -0.21303
 Alpha  occ. eigenvalues --   -0.18655
 Alpha virt. eigenvalues --   -0.11068  -0.05351  -0.03667  -0.01967  -0.00789
 Alpha virt. eigenvalues --   -0.00511  -0.00198   0.00360   0.00665   0.02666
 Alpha virt. eigenvalues --    0.04103   0.04361   0.05162   0.05675   0.05891

 Mulliken charges:
               1
     1  Mg   0.972397
     2  C   -0.029957
     3  C   -0.058981
     4  C   -0.065789
     5  C   -0.077043
     6  N   -0.450456
     7  C    0.048855
     8  C   -0.093580
     9  C   -0.140351
    10  C    0.072148
    11  C    0.020053
    12  C   -0.005993
    13  C   -0.021079
    14  C    0.238620
    15  O   -0.247030
    16  O   -0.388608
    17  N   -0.535982
    18  C    0.230562
    19  C   -0.158062
    20  C   -0.101724
    21  C    0.143080
    22  C    0.067729
    23  C    0.053105
    24  O   -0.211630
    25  C   -0.037396
    26  N   -0.334033
    27  C    0.069499
    28  C   -0.118235
    29  C   -0.076894
    30  C    0.034386
    31  C    0.007846
    32  C   -0.020362
    33  C   -0.089886
    34  N   -0.449685
    35  C    0.145333
    36  C   -0.228128
    37  C   -0.044446
    38  C    0.157516
    39  C    0.078552
    40  C    0.171837
    41  O   -0.189803
    42  C   -0.080629
    43  C    0.304930
    44  O   -0.261114
    45  O   -0.377025
    46  C    0.121265
    47  C    0.242004
    48  C   -0.133608
    49  C   -0.210531
    50  C    0.034767
    51  C    0.018025
    52  C   -0.068155
    53  C    0.018093
    54  C   -0.274441
    55  C   -0.013649
    56  C    0.006527
    57  C   -0.021081
    58  C   -0.024587
    59  C   -0.244732
    60  C   -0.009639
    61  C    0.018776
    62  C   -0.063786
    63  C   -0.009587
    64  C   -0.240560
    65  C   -0.041036
    66  C   -0.015794
    67  H    0.004811
    68  H    0.009269
    69  H    0.002556
    70  H    0.036546
    71  H    0.044148
    72  H    0.051125
    73  H    0.044266
    74  H    0.042511
    75  H    0.046398
    76  H    0.053796
    77  H    0.058694
    78  H    0.064654
    79  H    0.056913
    80  H    0.022662
    81  H    0.055851
    82  H    0.067661
    83  H    0.050703
    84  H    0.077969
    85  H    0.050411
    86  H    0.044098
    87  H    0.042893
    88  H    0.046962
    89  H    0.060749
    90  H    0.048254
    91  H    0.034878
    92  H    0.053441
    93  H    0.036577
    94  H    0.039046
    95  H    0.052530
    96  H    0.055977
    97  H    0.069624
    98  H    0.077427
    99  H    0.056283
   100  H    0.075493
   101  H    0.042436
   102  H    0.045440
   103  H    0.077451
   104  H    0.031851
   105  H    0.034369
   106  H    0.056485
   107  H    0.053016
   108  H    0.023500
   109  H    0.016147
   110  H    0.029053
   111  H    0.024226
   112  H    0.021794
   113  H    0.031326
   114  H    0.034778
   115  H    0.053074
   116  H    0.020122
   117  H    0.028591
   118  H    0.022862
   119  H    0.022774
   120  H    0.021975
   121  H    0.026521
   122  H    0.035296
   123  H    0.038486
   124  H    0.038928
   125  H    0.021811
   126  H    0.028246
   127  H    0.038566
   128  H    0.029031
   129  H    0.031594
   130  H    0.026420
   131  H    0.027295
   132  H    0.031053
   133  H    0.038072
   134  H    0.035277
   135  H    0.039975
   136  H    0.040277
   137  H    0.039445
   138  H    0.040898
   139  H    0.036535
   140  H    0.019008
 Sum of Mulliken charges =  -0.00000

 Dipole moment (field-independent basis, Debye):
    X=             -2.2192    Y=              2.9684    Z=              1.4147  Tot=              3.9670
 Quadrupole moment (field-independent basis, Debye-Ang):
   XX=           -408.7416   YY=           -421.0734   ZZ=           -375.2032
   XY=             58.5166   XZ=              8.1887   YZ=             29.5886

 Normal termination of Gaussian 16 at Tue May  3 15:43:10 2022.
