 Gaussian 16, Revision A.03,
 Gaussian 16:  ES64L-G16RevA.03 25-Dec-2016

 --------------------------------
 #p wB97XD/Def2SVP td=(nstates=5)
 --------------------------------

 -----------------------------------------------------
 step_1001_chromophore_17 TDDFT with wB97XD functional
 -----------------------------------------------------
 Symbolic Z-matrix:
 Charge =  0 Multiplicity = 1

                         Standard orientation:
 ---------------------------------------------------------------------
 Center     Atomic      Atomic             Coordinates (Angstroms)
 Number     Number       Type             X           Y           Z
 ---------------------------------------------------------------------
      1         12           0        3.702793    1.417612   -0.669012
      2          6           0        3.974551   -2.052445   -0.854273
      3          6           0        0.867282    1.314774   -2.527807
      4          6           0        2.869128    4.499205    0.603829
      5          6           0        6.329288    1.410615    1.738649
      6          7           0        2.583729   -0.193545   -1.457123
      7          6           0        2.910483   -1.554162   -1.542873
      8          6           0        1.791095   -2.313466   -2.214376
      9          6           0        1.084390   -1.185467   -3.060110
     10          6           0        1.530135    0.097474   -2.310138
     11          6           0        1.401731   -1.258940   -4.604520
     12          6           0        0.855320   -3.036159   -1.142106
     13          6           0        0.460878   -4.511041   -1.317634
     14          6           0        0.058404   -5.268604   -0.013127
     15          8           0        0.520462   -6.299162    0.482190
     16          8           0       -0.985828   -4.521253    0.578950
     17          7           0        2.248436    2.802571   -1.150472
     18          6           0        1.174022    2.562530   -1.993767
     19          6           0        0.486468    3.831354   -2.099328
     20          6           0        1.055641    4.776897   -1.237423
     21          6           0        2.107991    4.058099   -0.545343
     22          6           0       -0.823311    3.982231   -2.972810
     23          6           0        0.669328    6.264944   -1.216019
     24          8           0       -0.119128    6.660442   -2.027566
     25          6           0        1.470749    7.219503   -0.434625
     26          7           0        4.595874    2.854048    0.942932
     27          6           0        4.050453    4.065444    1.120693
     28          6           0        4.807215    4.873528    2.178070
     29          6           0        5.917091    3.841799    2.626628
     30          6           0        5.713056    2.657143    1.707048
     31          6           0        5.396347    6.235328    1.565558
     32          6           0        5.845740    3.403119    4.097306
     33          6           0        7.253716    3.556540    4.823351
     34          7           0        4.962040    0.020754    0.209429
     35          6           0        5.998601    0.148631    1.149427
     36          6           0        6.580402   -1.209701    1.383395
     37          6           0        5.871700   -2.086177    0.648823
     38          6           0        4.867960   -1.267496   -0.068124
     39          6           0        7.732401   -1.428499    2.367032
     40          6           0        5.687406   -3.482518    0.258431
     41          8           0        6.355360   -4.449848    0.545548
     42          6           0        4.510011   -3.457839   -0.644128
     43          6           0        5.058306   -3.991443   -2.011832
     44          8           0        6.098734   -3.579114   -2.558690
     45          8           0        4.317628   -5.101481   -2.483283
     46          6           0        4.641939   -5.646978   -3.777217
     47          6           0       -1.655742   -5.121426    1.715251
     48          6           0       -3.086306   -5.271759    1.354229
     49          6           0       -4.054497   -5.666245    2.266876
     50          6           0       -3.953358   -5.839971    3.794271
     51          6           0       -5.425944   -6.059881    1.750880
     52          6           0       -6.477259   -5.042611    2.013764
     53          6           0       -6.640362   -4.048188    0.790089
     54          6           0       -7.007815   -2.732928    1.416913
     55          6           0       -5.723079   -2.199791    2.120752
     56          6           0       -7.597838   -1.673174    0.371277
     57          6           0       -8.744510   -0.819647    0.893485
     58          6           0       -9.673083   -0.433748   -0.313622
     59          6           0      -10.204351    1.026840   -0.138061
     60          6           0      -11.685669    1.011706   -0.679976
     61          6           0       -9.253905    1.999512   -0.904692
     62          6           0       -9.127304    3.398095   -0.168220
     63          6           0       -7.667560    4.033824    0.146503
     64          6           0       -7.618476    5.582637   -0.149833
     65          6           0       -6.391668    5.983848   -1.033280
     66          6           0       -7.700032    6.413101    1.160183
     67          1           0        0.048379    1.085886   -3.212598
     68          1           0        2.377499    5.346087    1.086615
     69          1           0        7.187822    1.471836    2.410057
     70          1           0        2.150484   -3.147279   -2.817241
     71          1           0        0.010694   -1.343035   -2.949821
     72          1           0        2.186534   -0.573013   -4.924756
     73          1           0        0.517497   -0.987210   -5.181293
     74          1           0        1.688005   -2.279351   -4.858078
     75          1           0       -0.095518   -2.508289   -1.065547
     76          1           0        1.257178   -2.898522   -0.137595
     77          1           0        1.303636   -5.050956   -1.750618
     78          1           0       -0.344489   -4.584036   -2.047460
     79          1           0       -1.584006    4.429086   -2.332154
     80          1           0       -1.170653    3.030279   -3.374279
     81          1           0       -0.741938    4.609319   -3.861361
     82          1           0        1.149729    7.204859    0.606871
     83          1           0        1.217997    8.213839   -0.804899
     84          1           0        2.539575    7.045528   -0.565323
     85          1           0        4.138064    4.973379    3.032306
     86          1           0        6.885018    4.321697    2.480997
     87          1           0        6.474794    6.275667    1.721043
     88          1           0        4.974003    7.079633    2.110946
     89          1           0        5.148922    6.338892    0.509331
     90          1           0        5.466217    2.387100    4.204749
     91          1           0        5.062615    3.911384    4.659484
     92          1           0        7.680187    2.609758    5.153983
     93          1           0        7.236190    4.156430    5.733899
     94          1           0        7.950777    4.146822    4.228662
     95          1           0        7.493536   -0.953297    3.318015
     96          1           0        8.504259   -0.835799    1.877403
     97          1           0        8.002473   -2.480952    2.461262
     98          1           0        3.752327   -4.147234   -0.273588
     99          1           0        4.182500   -6.633347   -3.721061
    100          1           0        5.714619   -5.633589   -3.970092
    101          1           0        4.124051   -5.210810   -4.631055
    102          1           0       -1.687871   -4.361094    2.494923
    103          1           0       -1.225898   -5.978879    2.234878
    104          1           0       -3.325953   -5.284534    0.291314
    105          1           0       -3.016967   -5.398832    4.134636
    106          1           0       -3.892592   -6.911349    3.985640
    107          1           0       -4.838139   -5.451135    4.299846
    108          1           0       -5.888551   -7.009580    2.017158
    109          1           0       -5.379552   -6.162139    0.666627
    110          1           0       -6.279810   -4.521309    2.951100
    111          1           0       -7.383062   -5.625282    2.182094
    112          1           0       -7.454784   -4.315666    0.117617
    113          1           0       -5.747052   -3.958648    0.171535
    114          1           0       -7.746662   -2.951989    2.187979
    115          1           0       -4.787434   -2.680268    1.836366
    116          1           0       -5.839531   -2.396459    3.186443
    117          1           0       -5.658603   -1.111518    2.112511
    118          1           0       -7.876364   -2.189845   -0.546821
    119          1           0       -6.706142   -1.093640    0.131357
    120          1           0       -8.363132    0.097818    1.345018
    121          1           0       -9.122520   -1.303476    1.793691
    122          1           0      -10.483825   -1.153844   -0.207324
    123          1           0       -9.322536   -0.488720   -1.344546
    124          1           0      -10.173751    1.247637    0.928283
    125          1           0      -11.976036    0.015361   -1.014753
    126          1           0      -11.959423    1.562274   -1.579296
    127          1           0      -12.344216    1.275906    0.147689
    128          1           0       -9.613555    2.067866   -1.932009
    129          1           0       -8.274341    1.530483   -0.995622
    130          1           0       -9.647388    3.359972    0.788194
    131          1           0       -9.764534    4.109336   -0.692478
    132          1           0       -7.014294    3.495244   -0.539392
    133          1           0       -7.363692    3.931061    1.188360
    134          1           0       -8.496491    5.863954   -0.732120
    135          1           0       -6.212250    7.043671   -1.214105
    136          1           0       -6.727779    5.481750   -1.940222
    137          1           0       -5.427543    5.603593   -0.694119
    138          1           0       -8.370318    7.258593    1.001717
    139          1           0       -6.697815    6.587850    1.550725
    140          1           0       -8.163420    5.839773    1.963200
 ---------------------------------------------------------------------

 SCF Done:  E(RwB97XD) =  -3007.84954990     A.U. after   20 cycles

 Excitation energies and oscillator strengths:

 Excited State   1:      Singlet-A      1.6252 eV  762.87 nm  f=0.3550  <S**2>=0.000
     245 -> 248       -0.18700
     246 -> 247        0.68423
     245 <- 248       -0.11976
 This state for optimization and/or second-order correction.
 Total Energy, E(TD-HF/TD-DFT) =  -3007.78982362
 Copying the excited state density for this state as the 1-particle RhoCI density.

 Excited State   2:      Singlet-A      2.2278 eV  556.54 nm  f=0.0689  <S**2>=0.000
     245 -> 247        0.61704
     246 -> 248        0.33418

 Excited State   3:      Singlet-A      3.3483 eV  370.29 nm  f=0.0456  <S**2>=0.000
     243 -> 247        0.64113
     246 -> 248       -0.24955

 Excited State   4:      Singlet-A      3.5498 eV  349.27 nm  f=0.8367  <S**2>=0.000
     241 -> 247       -0.15129
     243 -> 247        0.24074
     245 -> 247       -0.32582
     246 -> 248        0.55891
     245 <- 247        0.11269

 Excited State   5:      Singlet-A      3.7396 eV  331.54 nm  f=0.0102  <S**2>=0.000
     240 -> 247        0.52506
     240 -> 249       -0.39120
     240 -> 250       -0.17627

 The electronic state is 1-A.
 Alpha  occ. eigenvalues --  -46.95320 -19.30646 -19.30349 -19.25954 -19.25521
 Alpha  occ. eigenvalues --  -19.24141 -19.23913 -14.46802 -14.46253 -14.44653
 Alpha  occ. eigenvalues --  -14.44225 -10.44420 -10.44393 -10.38794 -10.38780
 Alpha  occ. eigenvalues --  -10.35415 -10.35401 -10.35307 -10.35220 -10.34855
 Alpha  occ. eigenvalues --  -10.34615 -10.34604 -10.34294 -10.33990 -10.33284
 Alpha  occ. eigenvalues --  -10.32999 -10.32790 -10.32702 -10.32460 -10.32444
 Alpha  occ. eigenvalues --  -10.32250 -10.32058 -10.31989 -10.31858 -10.31517
 Alpha  occ. eigenvalues --  -10.31484 -10.31432 -10.31078 -10.31074 -10.30917
 Alpha  occ. eigenvalues --  -10.30911 -10.30638 -10.30510 -10.30334 -10.30061
 Alpha  occ. eigenvalues --  -10.30050 -10.30026 -10.29910 -10.29607 -10.29552
 Alpha  occ. eigenvalues --  -10.29352 -10.29213 -10.29048 -10.29045 -10.29041
 Alpha  occ. eigenvalues --  -10.28875 -10.28680 -10.28652 -10.28611 -10.28496
 Alpha  occ. eigenvalues --  -10.28350 -10.27976 -10.27966 -10.27913 -10.27756
 Alpha  occ. eigenvalues --  -10.27584  -3.21278  -1.94851  -1.94396  -1.94253
 Alpha  occ. eigenvalues --   -1.17645  -1.17259  -1.13805  -1.12907  -1.10080
 Alpha  occ. eigenvalues --   -1.09498  -1.06211  -1.05530  -1.04635  -1.03717
 Alpha  occ. eigenvalues --   -0.95015  -0.92451  -0.91196  -0.91103  -0.90634
 Alpha  occ. eigenvalues --   -0.90262  -0.89641  -0.89588  -0.88724  -0.88587
 Alpha  occ. eigenvalues --   -0.87572  -0.86966  -0.86155  -0.85488  -0.84988
 Alpha  occ. eigenvalues --   -0.84136  -0.83904  -0.83147  -0.82735  -0.82065
 Alpha  occ. eigenvalues --   -0.81117  -0.80213  -0.79699  -0.79038  -0.78375
 Alpha  occ. eigenvalues --   -0.76992  -0.76922  -0.76820  -0.76127  -0.75567
 Alpha  occ. eigenvalues --   -0.75109  -0.74645  -0.73921  -0.72562  -0.71906
 Alpha  occ. eigenvalues --   -0.70828  -0.69724  -0.69177  -0.68281  -0.68192
 Alpha  occ. eigenvalues --   -0.67507  -0.67088  -0.67008  -0.66282  -0.65721
 Alpha  occ. eigenvalues --   -0.65538  -0.64811  -0.64545  -0.64347  -0.62213
 Alpha  occ. eigenvalues --   -0.62029  -0.61721  -0.61329  -0.60797  -0.60505
 Alpha  occ. eigenvalues --   -0.59518  -0.58850  -0.58318  -0.57603  -0.57508
 Alpha  occ. eigenvalues --   -0.57264  -0.56312  -0.56190  -0.55832  -0.55639
 Alpha  occ. eigenvalues --   -0.55524  -0.54991  -0.54907  -0.54696  -0.54406
 Alpha  occ. eigenvalues --   -0.54228  -0.54054  -0.53965  -0.53852  -0.53668
 Alpha  occ. eigenvalues --   -0.53256  -0.52963  -0.52898  -0.52505  -0.52205
 Alpha  occ. eigenvalues --   -0.52152  -0.52070  -0.51895  -0.51633  -0.51600
 Alpha  occ. eigenvalues --   -0.51465  -0.51096  -0.50647  -0.50503  -0.50260
 Alpha  occ. eigenvalues --   -0.50080  -0.50001  -0.49913  -0.49805  -0.49329
 Alpha  occ. eigenvalues --   -0.49187  -0.48803  -0.48582  -0.48406  -0.48346
 Alpha  occ. eigenvalues --   -0.48277  -0.47977  -0.47799  -0.47721  -0.47627
 Alpha  occ. eigenvalues --   -0.47543  -0.47382  -0.47106  -0.47027  -0.46932
 Alpha  occ. eigenvalues --   -0.46642  -0.46215  -0.46019  -0.45978  -0.45726
 Alpha  occ. eigenvalues --   -0.45540  -0.45268  -0.45111  -0.44929  -0.44846
 Alpha  occ. eigenvalues --   -0.44682  -0.44564  -0.44403  -0.44152  -0.44072
 Alpha  occ. eigenvalues --   -0.43963  -0.43885  -0.43548  -0.43502  -0.43427
 Alpha  occ. eigenvalues --   -0.43021  -0.42835  -0.42358  -0.41966  -0.41775
 Alpha  occ. eigenvalues --   -0.41722  -0.41648  -0.41247  -0.40891  -0.40769
 Alpha  occ. eigenvalues --   -0.40511  -0.39732  -0.39703  -0.39417  -0.39354
 Alpha  occ. eigenvalues --   -0.39144  -0.38849  -0.38805  -0.38602  -0.38382
 Alpha  occ. eigenvalues --   -0.38175  -0.36929  -0.36762  -0.36650  -0.36472
 Alpha  occ. eigenvalues --   -0.36431  -0.35197  -0.34857  -0.33857  -0.33379
 Alpha  occ. eigenvalues --   -0.33160  -0.33148  -0.31827  -0.30913  -0.26373
 Alpha  occ. eigenvalues --   -0.22773
 Alpha virt. eigenvalues --   -0.06881  -0.00012   0.02675   0.04591   0.05253
 Alpha virt. eigenvalues --    0.06279   0.06534   0.07054   0.07389   0.09172
 Alpha virt. eigenvalues --    0.10707   0.11106   0.11872   0.12440   0.12644

 Mulliken charges:
               1
     1  Mg   0.964003
     2  C   -0.027224
     3  C   -0.077264
     4  C   -0.078811
     5  C   -0.081994
     6  N   -0.420983
     7  C    0.017213
     8  C   -0.064239
     9  C   -0.111533
    10  C    0.057434
    11  C    0.028361
    12  C   -0.000975
    13  C   -0.001825
    14  C    0.230125
    15  O   -0.244767
    16  O   -0.388585
    17  N   -0.506704
    18  C    0.226758
    19  C   -0.153679
    20  C   -0.092759
    21  C    0.135704
    22  C    0.079966
    23  C    0.048514
    24  O   -0.206664
    25  C   -0.025579
    26  N   -0.298750
    27  C    0.055538
    28  C   -0.093179
    29  C   -0.045961
    30  C    0.015098
    31  C    0.019564
    32  C   -0.011134
    33  C   -0.072121
    34  N   -0.411695
    35  C    0.132872
    36  C   -0.219900
    37  C   -0.042244
    38  C    0.135162
    39  C    0.087861
    40  C    0.152913
    41  O   -0.179232
    42  C   -0.041977
    43  C    0.283136
    44  O   -0.257436
    45  O   -0.375425
    46  C    0.135453
    47  C    0.252180
    48  C   -0.136373
    49  C   -0.200494
    50  C    0.048908
    51  C    0.035872
    52  C   -0.046794
    53  C    0.030492
    54  C   -0.237512
    55  C    0.000739
    56  C    0.021293
    57  C   -0.004004
    58  C   -0.007037
    59  C   -0.213214
    60  C    0.000736
    61  C    0.031155
    62  C   -0.047949
    63  C    0.005810
    64  C   -0.211760
    65  C   -0.028397
    66  C   -0.004132
    67  H   -0.001781
    68  H    0.000189
    69  H   -0.005089
    70  H    0.018817
    71  H    0.034498
    72  H    0.045829
    73  H    0.039270
    74  H    0.036800
    75  H    0.038983
    76  H    0.044610
    77  H    0.052338
    78  H    0.059337
    79  H    0.051724
    80  H    0.017040
    81  H    0.052115
    82  H    0.064174
    83  H    0.049351
    84  H    0.071329
    85  H    0.040208
    86  H    0.028793
    87  H    0.037572
    88  H    0.041312
    89  H    0.053800
    90  H    0.039581
    91  H    0.027364
    92  H    0.047882
    93  H    0.030879
    94  H    0.032096
    95  H    0.047326
    96  H    0.049714
    97  H    0.067624
    98  H    0.071529
    99  H    0.052698
   100  H    0.072182
   101  H    0.037950
   102  H    0.038482
   103  H    0.074360
   104  H    0.028061
   105  H    0.028286
   106  H    0.050701
   107  H    0.048259
   108  H    0.017994
   109  H    0.005779
   110  H    0.011547
   111  H    0.017938
   112  H    0.013799
   113  H    0.019724
   114  H    0.019372
   115  H    0.041034
   116  H    0.013441
   117  H    0.022667
   118  H    0.012834
   119  H    0.012865
   120  H    0.010598
   121  H    0.019271
   122  H    0.025367
   123  H    0.029690
   124  H    0.025456
   125  H    0.014851
   126  H    0.023197
   127  H    0.033376
   128  H    0.021422
   129  H    0.019723
   130  H    0.016811
   131  H    0.018693
   132  H    0.021232
   133  H    0.030292
   134  H    0.023135
   135  H    0.035240
   136  H    0.032445
   137  H    0.033294
   138  H    0.036155
   139  H    0.030466
   140  H    0.011542
 Sum of Mulliken charges =  -0.00000

 Dipole moment (field-independent basis, Debye):
    X=             -2.2377    Y=              3.0474    Z=              1.3569  Tot=              4.0169
 Quadrupole moment (field-independent basis, Debye-Ang):
   XX=           -408.7787   YY=           -419.8421   ZZ=           -375.0293
   XY=             58.2096   XZ=              7.8488   YZ=             29.4643

 Normal termination of Gaussian 16 at Tue May  3 16:34:19 2022.
