 Gaussian 16, Revision A.03,
 Gaussian 16:  ES64L-G16RevA.03 25-Dec-2016

 --------------------
 #p ZINDO=(nstates=5)
 --------------------

 ------------------------------
 step_1001_chromophore_17 ZINDO
 ------------------------------
 Symbolic Z-matrix:
 Charge =  0 Multiplicity = 1

                         Standard orientation:
 ---------------------------------------------------------------------
 Center     Atomic      Atomic             Coordinates (Angstroms)
 Number     Number       Type             X           Y           Z
 ---------------------------------------------------------------------
      1         12           0        3.702793    1.417612   -0.669012
      2          6           0        3.974551   -2.052445   -0.854273
      3          6           0        0.867282    1.314774   -2.527807
      4          6           0        2.869128    4.499205    0.603829
      5          6           0        6.329288    1.410615    1.738649
      6          7           0        2.583729   -0.193545   -1.457123
      7          6           0        2.910483   -1.554162   -1.542873
      8          6           0        1.791095   -2.313466   -2.214376
      9          6           0        1.084390   -1.185467   -3.060110
     10          6           0        1.530135    0.097474   -2.310138
     11          6           0        1.401731   -1.258940   -4.604520
     12          6           0        0.855320   -3.036159   -1.142106
     13          6           0        0.460878   -4.511041   -1.317634
     14          6           0        0.058404   -5.268604   -0.013127
     15          8           0        0.520462   -6.299162    0.482190
     16          8           0       -0.985828   -4.521253    0.578950
     17          7           0        2.248436    2.802571   -1.150472
     18          6           0        1.174022    2.562530   -1.993767
     19          6           0        0.486468    3.831354   -2.099328
     20          6           0        1.055641    4.776897   -1.237423
     21          6           0        2.107991    4.058099   -0.545343
     22          6           0       -0.823311    3.982231   -2.972810
     23          6           0        0.669328    6.264944   -1.216019
     24          8           0       -0.119128    6.660442   -2.027566
     25          6           0        1.470749    7.219503   -0.434625
     26          7           0        4.595874    2.854048    0.942932
     27          6           0        4.050453    4.065444    1.120693
     28          6           0        4.807215    4.873528    2.178070
     29          6           0        5.917091    3.841799    2.626628
     30          6           0        5.713056    2.657143    1.707048
     31          6           0        5.396347    6.235328    1.565558
     32          6           0        5.845740    3.403119    4.097306
     33          6           0        7.253716    3.556540    4.823351
     34          7           0        4.962040    0.020754    0.209429
     35          6           0        5.998601    0.148631    1.149427
     36          6           0        6.580402   -1.209701    1.383395
     37          6           0        5.871700   -2.086177    0.648823
     38          6           0        4.867960   -1.267496   -0.068124
     39          6           0        7.732401   -1.428499    2.367032
     40          6           0        5.687406   -3.482518    0.258431
     41          8           0        6.355360   -4.449848    0.545548
     42          6           0        4.510011   -3.457839   -0.644128
     43          6           0        5.058306   -3.991443   -2.011832
     44          8           0        6.098734   -3.579114   -2.558690
     45          8           0        4.317628   -5.101481   -2.483283
     46          6           0        4.641939   -5.646978   -3.777217
     47          6           0       -1.655742   -5.121426    1.715251
     48          6           0       -3.086306   -5.271759    1.354229
     49          6           0       -4.054497   -5.666245    2.266876
     50          6           0       -3.953358   -5.839971    3.794271
     51          6           0       -5.425944   -6.059881    1.750880
     52          6           0       -6.477259   -5.042611    2.013764
     53          6           0       -6.640362   -4.048188    0.790089
     54          6           0       -7.007815   -2.732928    1.416913
     55          6           0       -5.723079   -2.199791    2.120752
     56          6           0       -7.597838   -1.673174    0.371277
     57          6           0       -8.744510   -0.819647    0.893485
     58          6           0       -9.673083   -0.433748   -0.313622
     59          6           0      -10.204351    1.026840   -0.138061
     60          6           0      -11.685669    1.011706   -0.679976
     61          6           0       -9.253905    1.999512   -0.904692
     62          6           0       -9.127304    3.398095   -0.168220
     63          6           0       -7.667560    4.033824    0.146503
     64          6           0       -7.618476    5.582637   -0.149833
     65          6           0       -6.391668    5.983848   -1.033280
     66          6           0       -7.700032    6.413101    1.160183
     67          1           0        0.048379    1.085886   -3.212598
     68          1           0        2.377499    5.346087    1.086615
     69          1           0        7.187822    1.471836    2.410057
     70          1           0        2.150484   -3.147279   -2.817241
     71          1           0        0.010694   -1.343035   -2.949821
     72          1           0        2.186534   -0.573013   -4.924756
     73          1           0        0.517497   -0.987210   -5.181293
     74          1           0        1.688005   -2.279351   -4.858078
     75          1           0       -0.095518   -2.508289   -1.065547
     76          1           0        1.257178   -2.898522   -0.137595
     77          1           0        1.303636   -5.050956   -1.750618
     78          1           0       -0.344489   -4.584036   -2.047460
     79          1           0       -1.584006    4.429086   -2.332154
     80          1           0       -1.170653    3.030279   -3.374279
     81          1           0       -0.741938    4.609319   -3.861361
     82          1           0        1.149729    7.204859    0.606871
     83          1           0        1.217997    8.213839   -0.804899
     84          1           0        2.539575    7.045528   -0.565323
     85          1           0        4.138064    4.973379    3.032306
     86          1           0        6.885018    4.321697    2.480997
     87          1           0        6.474794    6.275667    1.721043
     88          1           0        4.974003    7.079633    2.110946
     89          1           0        5.148922    6.338892    0.509331
     90          1           0        5.466217    2.387100    4.204749
     91          1           0        5.062615    3.911384    4.659484
     92          1           0        7.680187    2.609758    5.153983
     93          1           0        7.236190    4.156430    5.733899
     94          1           0        7.950777    4.146822    4.228662
     95          1           0        7.493536   -0.953297    3.318015
     96          1           0        8.504259   -0.835799    1.877403
     97          1           0        8.002473   -2.480952    2.461262
     98          1           0        3.752327   -4.147234   -0.273588
     99          1           0        4.182500   -6.633347   -3.721061
    100          1           0        5.714619   -5.633589   -3.970092
    101          1           0        4.124051   -5.210810   -4.631055
    102          1           0       -1.687871   -4.361094    2.494923
    103          1           0       -1.225898   -5.978879    2.234878
    104          1           0       -3.325953   -5.284534    0.291314
    105          1           0       -3.016967   -5.398832    4.134636
    106          1           0       -3.892592   -6.911349    3.985640
    107          1           0       -4.838139   -5.451135    4.299846
    108          1           0       -5.888551   -7.009580    2.017158
    109          1           0       -5.379552   -6.162139    0.666627
    110          1           0       -6.279810   -4.521309    2.951100
    111          1           0       -7.383062   -5.625282    2.182094
    112          1           0       -7.454784   -4.315666    0.117617
    113          1           0       -5.747052   -3.958648    0.171535
    114          1           0       -7.746662   -2.951989    2.187979
    115          1           0       -4.787434   -2.680268    1.836366
    116          1           0       -5.839531   -2.396459    3.186443
    117          1           0       -5.658603   -1.111518    2.112511
    118          1           0       -7.876364   -2.189845   -0.546821
    119          1           0       -6.706142   -1.093640    0.131357
    120          1           0       -8.363132    0.097818    1.345018
    121          1           0       -9.122520   -1.303476    1.793691
    122          1           0      -10.483825   -1.153844   -0.207324
    123          1           0       -9.322536   -0.488720   -1.344546
    124          1           0      -10.173751    1.247637    0.928283
    125          1           0      -11.976036    0.015361   -1.014753
    126          1           0      -11.959423    1.562274   -1.579296
    127          1           0      -12.344216    1.275906    0.147689
    128          1           0       -9.613555    2.067866   -1.932009
    129          1           0       -8.274341    1.530483   -0.995622
    130          1           0       -9.647388    3.359972    0.788194
    131          1           0       -9.764534    4.109336   -0.692478
    132          1           0       -7.014294    3.495244   -0.539392
    133          1           0       -7.363692    3.931061    1.188360
    134          1           0       -8.496491    5.863954   -0.732120
    135          1           0       -6.212250    7.043671   -1.214105
    136          1           0       -6.727779    5.481750   -1.940222
    137          1           0       -5.427543    5.603593   -0.694119
    138          1           0       -8.370318    7.258593    1.001717
    139          1           0       -6.697815    6.587850    1.550725
    140          1           0       -8.163420    5.839773    1.963200
 ---------------------------------------------------------------------

 SCF Done:  E(RZINDO/S) =  -473.958329510     A.U. after   21 cycles

 Excitation energies and oscillator strengths:

 Excited State   1:      Singlet-A      1.2278 eV 1009.79 nm  f=0.5844  <S**2>=0.000
     175 ->178        -0.19499
     176 ->177         0.66273
 This state for optimization and/or second-order correction.
 Total Energy, E(CIS/TDA) =  -473.913208054
 Copying the excited state density for this state as the 1-particle RhoCI density.

 Excited State   2:      Singlet-A      1.9318 eV  641.82 nm  f=0.0032  <S**2>=0.000
     175 ->177         0.49955
     176 ->178         0.48041

 Excited State   3:      Singlet-A      2.9699 eV  417.47 nm  f=0.3223  <S**2>=0.000
     175 ->177        -0.25642
     176 ->178         0.30271
     176 ->179         0.49370
     176 ->180         0.13480
     176 ->183        -0.12665

 Excited State   4:      Singlet-A      3.0041 eV  412.71 nm  f=0.3834  <S**2>=0.000
     175 ->177         0.23706
     176 ->178        -0.25237
     176 ->179         0.19479
     176 ->180         0.41254
     176 ->181        -0.13236
     176 ->182         0.27234

 Excited State   5:      Singlet-A      3.0090 eV  412.04 nm  f=0.1098  <S**2>=0.000
     168 ->177         0.18178
     168 ->179        -0.15419
     168 ->180        -0.19384
     168 ->182         0.24382
     168 ->183        -0.10303
     168 ->186        -0.13830
     169 ->177         0.14783
     169 ->179        -0.18323
     169 ->180        -0.17289
     169 ->182         0.21955
     169 ->186        -0.14636
     175 ->177        -0.13904
     176 ->178         0.14810
     176 ->180        -0.12961

 The electronic state is 1-A.
 Alpha  occ. eigenvalues --   -1.83794  -1.80071  -1.79180  -1.71585  -1.70449
 Alpha  occ. eigenvalues --   -1.69385  -1.65581  -1.61665  -1.60107  -1.60065
 Alpha  occ. eigenvalues --   -1.54020  -1.50395  -1.48130  -1.46875  -1.46187
 Alpha  occ. eigenvalues --   -1.44613  -1.43271  -1.39546  -1.37426  -1.37107
 Alpha  occ. eigenvalues --   -1.35027  -1.33757  -1.31700  -1.30489  -1.27009
 Alpha  occ. eigenvalues --   -1.26641  -1.26432  -1.22846  -1.20248  -1.18915
 Alpha  occ. eigenvalues --   -1.16805  -1.15898  -1.14738  -1.13249  -1.12665
 Alpha  occ. eigenvalues --   -1.12179  -1.10329  -1.09985  -1.05623  -1.04417
 Alpha  occ. eigenvalues --   -1.04006  -1.01636  -0.99254  -0.97593  -0.97337
 Alpha  occ. eigenvalues --   -0.97054  -0.94368  -0.93330  -0.92917  -0.91968
 Alpha  occ. eigenvalues --   -0.91778  -0.89653  -0.88292  -0.88160  -0.87952
 Alpha  occ. eigenvalues --   -0.85816  -0.84966  -0.83796  -0.82845  -0.81485
 Alpha  occ. eigenvalues --   -0.80458  -0.79863  -0.77159  -0.76697  -0.75915
 Alpha  occ. eigenvalues --   -0.75704  -0.74617  -0.74208  -0.73766  -0.72936
 Alpha  occ. eigenvalues --   -0.72375  -0.72118  -0.71645  -0.71159  -0.70940
 Alpha  occ. eigenvalues --   -0.70555  -0.70367  -0.69063  -0.68744  -0.67375
 Alpha  occ. eigenvalues --   -0.66998  -0.66705  -0.66107  -0.65572  -0.65290
 Alpha  occ. eigenvalues --   -0.65062  -0.64671  -0.64212  -0.64061  -0.63361
 Alpha  occ. eigenvalues --   -0.62977  -0.62866  -0.62648  -0.62365  -0.61492
 Alpha  occ. eigenvalues --   -0.61218  -0.61059  -0.60389  -0.60321  -0.60092
 Alpha  occ. eigenvalues --   -0.59681  -0.59417  -0.59277  -0.58938  -0.58342
 Alpha  occ. eigenvalues --   -0.58091  -0.57893  -0.57197  -0.56626  -0.56327
 Alpha  occ. eigenvalues --   -0.56265  -0.55857  -0.55630  -0.55212  -0.54940
 Alpha  occ. eigenvalues --   -0.54452  -0.54333  -0.53936  -0.53421  -0.52772
 Alpha  occ. eigenvalues --   -0.52518  -0.52334  -0.52104  -0.51910  -0.51527
 Alpha  occ. eigenvalues --   -0.51323  -0.51083  -0.50907  -0.50741  -0.50669
 Alpha  occ. eigenvalues --   -0.50403  -0.49894  -0.49744  -0.49568  -0.49021
 Alpha  occ. eigenvalues --   -0.48902  -0.48415  -0.48274  -0.47848  -0.47834
 Alpha  occ. eigenvalues --   -0.47652  -0.47201  -0.46952  -0.46851  -0.46279
 Alpha  occ. eigenvalues --   -0.46219  -0.46100  -0.46052  -0.45899  -0.45857
 Alpha  occ. eigenvalues --   -0.45552  -0.45528  -0.45319  -0.44846  -0.44375
 Alpha  occ. eigenvalues --   -0.44232  -0.43192  -0.43008  -0.42240  -0.42202
 Alpha  occ. eigenvalues --   -0.41823  -0.41553  -0.40746  -0.39790  -0.39349
 Alpha  occ. eigenvalues --   -0.38497  -0.37603  -0.35454  -0.35343  -0.34625
 Alpha  occ. eigenvalues --   -0.34222  -0.32965  -0.32846  -0.31120  -0.27171
 Alpha  occ. eigenvalues --   -0.21529
 Alpha virt. eigenvalues --   -0.08369  -0.02361  -0.00462   0.01070   0.01152
 Alpha virt. eigenvalues --    0.01432   0.02283   0.02374   0.03985   0.04634
 Alpha virt. eigenvalues --    0.05999   0.06564   0.07301   0.07705   0.07761

 Mulliken charges:
               1
     1  Mg   0.431067
     2  C   -0.046915
     3  C   -0.072218
     4  C   -0.077386
     5  C   -0.051533
     6  N   -0.302586
     7  C    0.129914
     8  C    0.004826
     9  C    0.000656
    10  C    0.124984
    11  C   -0.048406
    12  C   -0.024927
    13  C    0.012326
    14  C    0.461549
    15  O   -0.496453
    16  O   -0.278863
    17  N   -0.331359
    18  C    0.116364
    19  C    0.021793
    20  C   -0.042631
    21  C    0.109006
    22  C   -0.046323
    23  C    0.334350
    24  O   -0.505902
    25  C   -0.027234
    26  N   -0.280746
    27  C    0.134623
    28  C   -0.011158
    29  C    0.011940
    30  C    0.116043
    31  C   -0.051273
    32  C   -0.028952
    33  C   -0.065101
    34  N   -0.295714
    35  C    0.072639
    36  C    0.053606
    37  C   -0.053794
    38  C    0.121109
    39  C   -0.042352
    40  C    0.357504
    41  O   -0.507174
    42  C    0.071226
    43  C    0.472664
    44  O   -0.512629
    45  O   -0.276354
    46  C    0.077800
    47  C    0.106885
    48  C   -0.091871
    49  C   -0.013923
    50  C   -0.041078
    51  C   -0.025667
    52  C   -0.032144
    53  C   -0.030058
    54  C   -0.020118
    55  C   -0.061198
    56  C   -0.044450
    57  C   -0.037205
    58  C   -0.037526
    59  C   -0.016127
    60  C   -0.065209
    61  C   -0.030476
    62  C   -0.049482
    63  C   -0.035687
    64  C   -0.014547
    65  C   -0.061740
    66  C   -0.061838
    67  H    0.031375
    68  H    0.021795
    69  H    0.017306
    70  H    0.027744
    71  H    0.025546
    72  H    0.028491
    73  H    0.019500
    74  H    0.022329
    75  H    0.020461
    76  H    0.026046
    77  H    0.031442
    78  H    0.042870
    79  H    0.033243
    80  H    0.014810
    81  H    0.037354
    82  H    0.039621
    83  H    0.030967
    84  H    0.040003
    85  H    0.037844
    86  H    0.033178
    87  H    0.024712
    88  H    0.018329
    89  H    0.030558
    90  H    0.023459
    91  H    0.019141
    92  H    0.025273
    93  H    0.013890
    94  H    0.021328
    95  H    0.031281
    96  H    0.033319
    97  H    0.041791
    98  H    0.054936
    99  H    0.029717
   100  H    0.058184
   101  H    0.033490
   102  H    0.030349
   103  H    0.068529
   104  H    0.039602
   105  H    0.021959
   106  H    0.030768
   107  H    0.034204
   108  H    0.024378
   109  H    0.006354
   110  H    0.026836
   111  H    0.012144
   112  H    0.013314
   113  H    0.025486
   114  H    0.020591
   115  H    0.028929
   116  H    0.005732
   117  H    0.014640
   118  H    0.017562
   119  H    0.016639
   120  H    0.011396
   121  H    0.030896
   122  H    0.011589
   123  H    0.033599
   124  H    0.028678
   125  H    0.013162
   126  H    0.023218
   127  H    0.015904
   128  H    0.023034
   129  H    0.017212
   130  H    0.013610
   131  H    0.018682
   132  H    0.020440
   133  H    0.030567
   134  H    0.018654
   135  H    0.022214
   136  H    0.015031
   137  H    0.021897
   138  H    0.023874
   139  H    0.025033
   140  H    0.007411
 Sum of Mulliken charges =   0.00000

 Dipole moment (field-independent basis, Debye):
    X=             -3.1074    Y=              3.4632    Z=              2.5791  Tot=              5.3199
 N-N= 4.452303381534D+03 E-N= 0.000000000000D+00  KE=-9.578332247307D+03
 Leave Link  601 at Tue May  3 16:55:13 2022, MaxMem=  6710886400 cpu:               1.0 elap:               0.1
 (Enter /sw/apps/gaussian-16.0/g16/l9999.exe)
 1\1\GINC-BP1-COMPUTE183\SP\RZINDO CIS\STO-3G\C55H74Mg1N4O6\OF15641\03-
 May-2022\0\\#p ZINDO=(nstates=5)\\step_1001_chromophore_17 ZINDO\\0,1\
 Mg,0,29.399,58.784,41.172\C,0,26.452,57.139,40.301\C,0,31.227,56.237,3
 9.877\C,0,32.054,60.95,40.906\C,0,27.456,61.659,41.981\N,0,28.843,57.0
 16,40.155\C,0,27.577,56.436,39.993\C,0,27.693,55.153,39.205\C,0,29.189
 ,54.732,39.473\C,0,29.832,56.087,39.87\C,0,29.338,53.541,40.498\C,0,27
 .323,55.38,37.669\C,0,26.357,54.426,36.949\C,0,25.627,55.011,35.699\O,

 Normal termination of Gaussian 16 at Tue May  3 16:55:13 2022.
