 Gaussian 16, Revision A.03,
 Gaussian 16:  ES64L-G16RevA.03 25-Dec-2016

 ------------------------------
 #p blyp/Def2SVP td=(nstates=5)
 ------------------------------

 --------------------------------------------------
 step_351_chromophore_20 TDDFT with blyp functional
 --------------------------------------------------
 Symbolic Z-matrix:
 Charge =  0 Multiplicity = 1

                         Standard orientation:
 ---------------------------------------------------------------------
 Center     Atomic      Atomic             Coordinates (Angstroms)
 Number     Number       Type             X           Y           Z
 ---------------------------------------------------------------------
      1         12           0        4.167875    1.286223   -0.661725
      2          6           0        3.758499   -2.243119   -0.854343
      3          6           0        1.902882    1.628809   -3.130317
      4          6           0        3.942123    4.359860    0.215720
      5          6           0        6.240005    0.615334    2.214493
      6          7           0        2.747005   -0.168303   -1.628997
      7          6           0        2.889485   -1.470977   -1.721522
      8          6           0        1.931872   -2.091142   -2.734805
      9          6           0        1.476730   -0.892503   -3.561174
     10          6           0        2.113772    0.295048   -2.754424
     11          6           0        1.954383   -1.124216   -5.022723
     12          6           0        0.744244   -2.617937   -1.847942
     13          6           0        0.383052   -4.022267   -2.211838
     14          6           0       -1.069342   -4.173959   -2.709641
     15          8           0       -1.473050   -4.052455   -3.885542
     16          8           0       -1.839169   -4.534953   -1.643030
     17          7           0        3.032117    2.767448   -1.381482
     18          6           0        2.246663    2.810776   -2.475385
     19          6           0        1.926818    4.140906   -2.850088
     20          6           0        2.399389    4.954773   -1.790564
     21          6           0        3.203921    4.049368   -0.955836
     22          6           0        1.044379    4.587180   -4.015386
     23          6           0        2.199486    6.477973   -1.688676
     24          8           0        1.478288    7.066377   -2.434597
     25          6           0        2.865200    7.368343   -0.687989
     26          7           0        4.822416    2.311519    1.073514
     27          6           0        4.778889    3.606086    1.032533
     28          6           0        5.523531    4.251914    2.242886
     29          6           0        6.172502    3.010400    2.945931
     30          6           0        5.789779    1.917332    1.990269
     31          6           0        6.451179    5.467273    1.938788
     32          6           0        5.730852    2.720075    4.417702
     33          6           0        6.867236    2.615519    5.442378
     34          7           0        4.950668   -0.391805    0.282942
     35          6           0        5.791160   -0.488422    1.417355
     36          6           0        6.166430   -1.886777    1.683856
     37          6           0        5.381600   -2.545944    0.763884
     38          6           0        4.667231   -1.640229   -0.044872
     39          6           0        7.091948   -2.482210    2.705542
     40          6           0        5.093337   -3.898919    0.395390
     41          8           0        5.548248   -4.935588    0.792624
     42          6           0        4.062594   -3.815356   -0.741037
     43          6           0        2.944397   -4.669988   -0.434061
     44          8           0        2.185914   -4.437404    0.490911
     45          8           0        2.923450   -5.848642   -1.156403
     46          6           0        2.129614   -6.922527   -0.602598
     47          6           0       -3.246430   -4.729282   -1.859836
     48          6           0       -4.035159   -4.478157   -0.555473
     49          6           0       -4.072371   -5.166569    0.617662
     50          6           0       -3.296482   -6.382332    0.888185
     51          6           0       -5.078290   -4.687326    1.670208
     52          6           0       -5.238513   -3.168372    1.864489
     53          6           0       -6.576153   -2.904554    2.543153
     54          6           0       -6.554628   -1.755625    3.540991
     55          6           0       -6.478090   -2.218823    5.094164
     56          6           0       -7.791479   -0.704480    3.343267
     57          6           0       -7.528728    0.310037    2.218018
     58          6           0       -7.698463    1.762485    2.645023
     59          6           0       -6.960062    2.743808    1.648539
     60          6           0       -5.640864    3.190564    2.187388
     61          6           0       -7.951110    3.791109    1.070127
     62          6           0       -8.259901    3.495204   -0.392960
     63          6           0       -9.619306    2.816861   -0.790467
     64          6           0      -10.760409    3.644386   -1.404478
     65          6           0      -12.193628    3.352658   -0.886309
     66          6           0      -10.729042    3.568188   -2.922998
     67          1           0        1.217400    1.715228   -3.975683
     68          1           0        3.962294    5.417708    0.486855
     69          1           0        6.921530    0.453191    3.052169
     70          1           0        2.326403   -2.925179   -3.314277
     71          1           0        0.395498   -0.773236   -3.481002
     72          1           0        2.448385   -2.081960   -5.187525
     73          1           0        2.459238   -0.250903   -5.435854
     74          1           0        1.002169   -1.100374   -5.552488
     75          1           0       -0.153253   -2.032328   -2.049635
     76          1           0        1.017970   -2.483783   -0.801322
     77          1           0        0.461066   -4.606729   -1.294804
     78          1           0        1.088781   -4.482443   -2.904295
     79          1           0        0.079888    4.890566   -3.610042
     80          1           0        0.689475    3.781252   -4.656440
     81          1           0        1.447745    5.407926   -4.608836
     82          1           0        3.922224    7.352332   -0.952570
     83          1           0        2.701406    7.014822    0.329949
     84          1           0        2.488310    8.390329   -0.708508
     85          1           0        4.699822    4.593212    2.869663
     86          1           0        7.252377    3.141575    3.012408
     87          1           0        6.064253    6.258477    2.580466
     88          1           0        6.513131    5.672752    0.869801
     89          1           0        7.476384    5.336193    2.284125
     90          1           0        4.999447    1.912347    4.380810
     91          1           0        5.187208    3.571208    4.827805
     92          1           0        6.742359    1.821562    6.177994
     93          1           0        7.046066    3.588871    5.900059
     94          1           0        7.819735    2.347434    4.984678
     95          1           0        7.615883   -1.705014    3.261520
     96          1           0        7.717920   -3.131988    2.095014
     97          1           0        6.460997   -2.970716    3.448262
     98          1           0        4.534358   -4.196400   -1.647321
     99          1           0        1.699060   -7.462543   -1.445161
    100          1           0        1.277921   -6.593449   -0.006360
    101          1           0        2.792233   -7.628674   -0.101940
    102          1           0       -3.494632   -5.782522   -1.992952
    103          1           0       -3.661712   -4.143910   -2.680274
    104          1           0       -4.713637   -3.664017   -0.809847
    105          1           0       -3.865538   -6.837821    1.698640
    106          1           0       -2.259457   -6.175068    1.150722
    107          1           0       -3.386919   -7.028854    0.016245
    108          1           0       -4.796304   -5.070408    2.650348
    109          1           0       -6.041369   -5.130782    1.417139
    110          1           0       -5.207462   -2.596883    0.936762
    111          1           0       -4.395646   -2.754291    2.418721
    112          1           0       -6.773044   -3.805154    3.123829
    113          1           0       -7.270744   -2.673457    1.735537
    114          1           0       -5.638130   -1.176401    3.431963
    115          1           0       -5.504671   -2.074940    5.563867
    116          1           0       -6.549732   -3.305250    5.164853
    117          1           0       -7.266299   -1.730149    5.666403
    118          1           0       -7.964622   -0.245700    4.316598
    119          1           0       -8.740896   -1.194782    3.126651
    120          1           0       -8.066661    0.185990    1.277919
    121          1           0       -6.456474    0.205641    2.050397
    122          1           0       -7.196080    1.966613    3.590530
    123          1           0       -8.767764    1.952758    2.739224
    124          1           0       -6.647018    2.122636    0.809062
    125          1           0       -5.081174    2.360498    2.618615
    126          1           0       -5.772963    4.053577    2.840606
    127          1           0       -5.124318    3.478253    1.271524
    128          1           0       -7.514253    4.786313    1.151502
    129          1           0       -8.842679    3.735037    1.695499
    130          1           0       -7.386781    3.024455   -0.845355
    131          1           0       -8.329830    4.497744   -0.814398
    132          1           0       -9.911994    2.374073    0.161910
    133          1           0       -9.324433    1.983938   -1.428188
    134          1           0      -10.527967    4.663752   -1.093421
    135          1           0      -12.548171    4.116082   -0.193078
    136          1           0      -12.061385    2.355272   -0.468105
    137          1           0      -12.996500    3.254922   -1.616654
    138          1           0      -11.432116    2.826164   -3.301293
    139          1           0       -9.704848    3.358697   -3.231780
    140          1           0      -11.141229    4.499806   -3.311286
 ---------------------------------------------------------------------

 SCF Done:  E(RB-LYP) =  -3007.34430066     A.U. after   20 cycles

 Excitation energies and oscillator strengths:

 Excited State   1:      Singlet-A      1.8327 eV  676.50 nm  f=0.2869  <S**2>=0.000
     244 -> 247        0.23540
     245 -> 248       -0.18337
     246 -> 247        0.65347
     246 <- 247       -0.14353
 This state for optimization and/or second-order correction.
 Total Energy, E(TD-HF/TD-DFT) =  -3007.27694863
 Copying the excited state density for this state as the 1-particle RhoCI density.

 Excited State   2:      Singlet-A      1.8701 eV  662.97 nm  f=0.0434  <S**2>=0.000
     244 -> 247        0.66438
     246 -> 247       -0.22791

 Excited State   3:      Singlet-A      2.0779 eV  596.69 nm  f=0.0509  <S**2>=0.000
     243 -> 247        0.24465
     245 -> 247        0.60472
     246 -> 248        0.25302

 Excited State   4:      Singlet-A      2.2209 eV  558.26 nm  f=0.0076  <S**2>=0.000
     243 -> 247        0.65884
     245 -> 247       -0.19489
     246 -> 248       -0.14728

 Excited State   5:      Singlet-A      2.2709 eV  545.98 nm  f=0.0005  <S**2>=0.000
     242 -> 247        0.70411

 The electronic state is 1-A.
 Alpha  occ. eigenvalues --  -46.27329 -18.82250 -18.82236 -18.76517 -18.76364
 Alpha  occ. eigenvalues --  -18.76037 -18.75085 -14.03278 -14.03101 -14.01196
 Alpha  occ. eigenvalues --  -14.00896 -10.03797 -10.03666  -9.99481  -9.99379
 Alpha  occ. eigenvalues --   -9.97412  -9.97366  -9.96905  -9.96287  -9.96226
 Alpha  occ. eigenvalues --   -9.96194  -9.96154  -9.96035  -9.94948  -9.94129
 Alpha  occ. eigenvalues --   -9.94115  -9.93972  -9.93890  -9.93635  -9.93615
 Alpha  occ. eigenvalues --   -9.93455  -9.93389  -9.93124  -9.93054  -9.93014
 Alpha  occ. eigenvalues --   -9.92950  -9.92834  -9.92727  -9.92543  -9.92476
 Alpha  occ. eigenvalues --   -9.92441  -9.92227  -9.92198  -9.92160  -9.92100
 Alpha  occ. eigenvalues --   -9.91999  -9.91972  -9.91965  -9.91824  -9.91728
 Alpha  occ. eigenvalues --   -9.91638  -9.91060  -9.91024  -9.90930  -9.90918
 Alpha  occ. eigenvalues --   -9.90905  -9.90776  -9.90776  -9.90722  -9.90699
 Alpha  occ. eigenvalues --   -9.90627  -9.90586  -9.90523  -9.90468  -9.90448
 Alpha  occ. eigenvalues --   -9.90227  -2.92138  -1.72496  -1.72083  -1.71830
 Alpha  occ. eigenvalues --   -0.97957  -0.97583  -0.93047  -0.92964  -0.90079
 Alpha  occ. eigenvalues --   -0.88704  -0.87686  -0.87238  -0.86455  -0.85895
 Alpha  occ. eigenvalues --   -0.75377  -0.73573  -0.73147  -0.73016  -0.72846
 Alpha  occ. eigenvalues --   -0.71787  -0.71543  -0.70956  -0.70814  -0.70605
 Alpha  occ. eigenvalues --   -0.69580  -0.69204  -0.68115  -0.67891  -0.67506
 Alpha  occ. eigenvalues --   -0.66463  -0.66005  -0.65492  -0.65095  -0.64569
 Alpha  occ. eigenvalues --   -0.64203  -0.62770  -0.62141  -0.61585  -0.61244
 Alpha  occ. eigenvalues --   -0.60195  -0.60001  -0.59908  -0.59511  -0.58621
 Alpha  occ. eigenvalues --   -0.57846  -0.57377  -0.56989  -0.55154  -0.54570
 Alpha  occ. eigenvalues --   -0.54015  -0.53270  -0.52933  -0.52277  -0.51942
 Alpha  occ. eigenvalues --   -0.51619  -0.51011  -0.50521  -0.50361  -0.50329
 Alpha  occ. eigenvalues --   -0.49331  -0.48964  -0.48642  -0.48104  -0.46700
 Alpha  occ. eigenvalues --   -0.46440  -0.45954  -0.45213  -0.45040  -0.44736
 Alpha  occ. eigenvalues --   -0.44423  -0.44012  -0.43368  -0.43005  -0.42562
 Alpha  occ. eigenvalues --   -0.42084  -0.41804  -0.41611  -0.41357  -0.40984
 Alpha  occ. eigenvalues --   -0.40866  -0.40530  -0.40372  -0.40100  -0.39908
 Alpha  occ. eigenvalues --   -0.39838  -0.39514  -0.39452  -0.39116  -0.38980
 Alpha  occ. eigenvalues --   -0.38807  -0.38541  -0.38444  -0.38336  -0.38267
 Alpha  occ. eigenvalues --   -0.38047  -0.37840  -0.37646  -0.37438  -0.37371
 Alpha  occ. eigenvalues --   -0.37171  -0.36989  -0.36703  -0.36676  -0.36369
 Alpha  occ. eigenvalues --   -0.36331  -0.36110  -0.36042  -0.36009  -0.35719
 Alpha  occ. eigenvalues --   -0.35445  -0.35234  -0.35067  -0.34974  -0.34883
 Alpha  occ. eigenvalues --   -0.34775  -0.34373  -0.34195  -0.33919  -0.33807
 Alpha  occ. eigenvalues --   -0.33373  -0.33357  -0.33277  -0.33204  -0.33176
 Alpha  occ. eigenvalues --   -0.33080  -0.32753  -0.32595  -0.32556  -0.32455
 Alpha  occ. eigenvalues --   -0.32355  -0.32039  -0.31758  -0.31461  -0.31343
 Alpha  occ. eigenvalues --   -0.31174  -0.30986  -0.30838  -0.30780  -0.30628
 Alpha  occ. eigenvalues --   -0.30476  -0.30409  -0.29987  -0.29865  -0.29813
 Alpha  occ. eigenvalues --   -0.29684  -0.29621  -0.29365  -0.29127  -0.28910
 Alpha  occ. eigenvalues --   -0.28418  -0.28183  -0.27739  -0.27681  -0.27306
 Alpha  occ. eigenvalues --   -0.27077  -0.27011  -0.26830  -0.26641  -0.26607
 Alpha  occ. eigenvalues --   -0.26162  -0.25930  -0.25614  -0.25425  -0.25195
 Alpha  occ. eigenvalues --   -0.24990  -0.24838  -0.24324  -0.24001  -0.23740
 Alpha  occ. eigenvalues --   -0.22856  -0.22098  -0.21904  -0.21214  -0.21054
 Alpha  occ. eigenvalues --   -0.20716  -0.19676  -0.19301  -0.18126  -0.17489
 Alpha  occ. eigenvalues --   -0.15646
 Alpha virt. eigenvalues --   -0.11337  -0.06716  -0.05761  -0.04283  -0.03881
 Alpha virt. eigenvalues --   -0.03511  -0.02710  -0.02425  -0.01536   0.00343
 Alpha virt. eigenvalues --    0.01053   0.02342   0.02800   0.03099   0.03168

 Mulliken charges:
               1
     1  Mg   0.708853
     2  C   -0.016185
     3  C   -0.080579
     4  C   -0.054197
     5  C   -0.097656
     6  N   -0.161093
     7  C   -0.091857
     8  C   -0.054901
     9  C    0.034737
    10  C    0.005870
    11  C    0.141026
    12  C    0.114332
    13  C    0.123474
    14  C    0.070283
    15  O   -0.218575
    16  O   -0.242418
    17  N   -0.299207
    18  C    0.139673
    19  C   -0.137354
    20  C    0.036801
    21  C    0.129323
    22  C    0.190968
    23  C   -0.105875
    24  O   -0.140589
    25  C    0.152226
    26  N   -0.220842
    27  C    0.012939
    28  C    0.009190
    29  C    0.029282
    30  C    0.029067
    31  C    0.135530
    32  C    0.099470
    33  C    0.049492
    34  N   -0.245315
    35  C    0.123195
    36  C   -0.206275
    37  C    0.067938
    38  C    0.112152
    39  C    0.201734
    40  C   -0.079827
    41  O   -0.106316
    42  C    0.132406
    43  C    0.078558
    44  O   -0.188550
    45  O   -0.273426
    46  C    0.207742
    47  C    0.318800
    48  C   -0.152683
    49  C   -0.156452
    50  C    0.189250
    51  C    0.120000
    52  C    0.048928
    53  C    0.155857
    54  C   -0.104164
    55  C    0.080558
    56  C    0.108717
    57  C    0.048755
    58  C    0.089267
    59  C   -0.115972
    60  C    0.135893
    61  C    0.136344
    62  C    0.044073
    63  C    0.100265
    64  C   -0.067498
    65  C    0.099194
    66  C    0.114011
    67  H   -0.062735
    68  H   -0.095980
    69  H   -0.059003
    70  H   -0.021938
    71  H   -0.013059
    72  H    0.006203
    73  H   -0.015836
    74  H   -0.009722
    75  H   -0.016029
    76  H    0.019654
    77  H   -0.003777
    78  H   -0.006643
    79  H    0.000364
    80  H   -0.035236
    81  H    0.011786
    82  H    0.006682
    83  H    0.015426
    84  H   -0.013539
    85  H   -0.017800
    86  H   -0.036456
    87  H   -0.006432
    88  H    0.004386
    89  H   -0.017812
    90  H   -0.010251
    91  H   -0.026628
    92  H   -0.002606
    93  H   -0.002106
    94  H   -0.016280
    95  H   -0.023668
    96  H    0.028543
    97  H    0.017150
    98  H   -0.011698
    99  H    0.001634
   100  H    0.034093
   101  H    0.022884
   102  H   -0.014159
   103  H   -0.006288
   104  H   -0.035150
   105  H   -0.022342
   106  H    0.027834
   107  H   -0.010175
   108  H   -0.028911
   109  H   -0.006616
   110  H   -0.026216
   111  H   -0.029987
   112  H   -0.029264
   113  H   -0.023551
   114  H   -0.026992
   115  H   -0.015933
   116  H   -0.028973
   117  H   -0.006714
   118  H   -0.039992
   119  H   -0.034780
   120  H   -0.019039
   121  H   -0.030946
   122  H   -0.045579
   123  H   -0.032457
   124  H   -0.042320
   125  H   -0.014796
   126  H   -0.012226
   127  H   -0.022429
   128  H   -0.046221
   129  H   -0.035912
   130  H   -0.030357
   131  H   -0.043737
   132  H   -0.042454
   133  H   -0.037025
   134  H   -0.039801
   135  H   -0.009668
   136  H   -0.017573
   137  H   -0.022053
   138  H   -0.018591
   139  H   -0.010769
   140  H   -0.019774
 Sum of Mulliken charges =  -0.00000

 Dipole moment (field-independent basis, Debye):
    X=              2.2587    Y=              0.8263    Z=              2.4432  Tot=              3.4284
 Quadrupole moment (field-independent basis, Debye-Ang):
   XX=           -375.2603   YY=           -416.2458   ZZ=           -405.5272
   XY=             30.7593   XZ=              4.7240   YZ=             15.6015

 Normal termination of Gaussian 16 at Wed May  4 21:51:55 2022.
