 Gaussian 16, Revision A.03,
 Gaussian 16:  ES64L-G16RevA.03 25-Dec-2016

 -----------------------------------
 #p cam-b3lyp/Def2SVP td=(nstates=5)
 -----------------------------------

 -------------------------------------------------------
 step_351_chromophore_20 TDDFT with cam-b3lyp functional
 -------------------------------------------------------
 Symbolic Z-matrix:
 Charge =  0 Multiplicity = 1

                         Standard orientation:
 ---------------------------------------------------------------------
 Center     Atomic      Atomic             Coordinates (Angstroms)
 Number     Number       Type             X           Y           Z
 ---------------------------------------------------------------------
      1         12           0        4.167875    1.286223   -0.661725
      2          6           0        3.758499   -2.243119   -0.854343
      3          6           0        1.902882    1.628809   -3.130317
      4          6           0        3.942123    4.359860    0.215720
      5          6           0        6.240005    0.615334    2.214493
      6          7           0        2.747005   -0.168303   -1.628997
      7          6           0        2.889485   -1.470977   -1.721522
      8          6           0        1.931872   -2.091142   -2.734805
      9          6           0        1.476730   -0.892503   -3.561174
     10          6           0        2.113772    0.295048   -2.754424
     11          6           0        1.954383   -1.124216   -5.022723
     12          6           0        0.744244   -2.617937   -1.847942
     13          6           0        0.383052   -4.022267   -2.211838
     14          6           0       -1.069342   -4.173959   -2.709641
     15          8           0       -1.473050   -4.052455   -3.885542
     16          8           0       -1.839169   -4.534953   -1.643030
     17          7           0        3.032117    2.767448   -1.381482
     18          6           0        2.246663    2.810776   -2.475385
     19          6           0        1.926818    4.140906   -2.850088
     20          6           0        2.399389    4.954773   -1.790564
     21          6           0        3.203921    4.049368   -0.955836
     22          6           0        1.044379    4.587180   -4.015386
     23          6           0        2.199486    6.477973   -1.688676
     24          8           0        1.478288    7.066377   -2.434597
     25          6           0        2.865200    7.368343   -0.687989
     26          7           0        4.822416    2.311519    1.073514
     27          6           0        4.778889    3.606086    1.032533
     28          6           0        5.523531    4.251914    2.242886
     29          6           0        6.172502    3.010400    2.945931
     30          6           0        5.789779    1.917332    1.990269
     31          6           0        6.451179    5.467273    1.938788
     32          6           0        5.730852    2.720075    4.417702
     33          6           0        6.867236    2.615519    5.442378
     34          7           0        4.950668   -0.391805    0.282942
     35          6           0        5.791160   -0.488422    1.417355
     36          6           0        6.166430   -1.886777    1.683856
     37          6           0        5.381600   -2.545944    0.763884
     38          6           0        4.667231   -1.640229   -0.044872
     39          6           0        7.091948   -2.482210    2.705542
     40          6           0        5.093337   -3.898919    0.395390
     41          8           0        5.548248   -4.935588    0.792624
     42          6           0        4.062594   -3.815356   -0.741037
     43          6           0        2.944397   -4.669988   -0.434061
     44          8           0        2.185914   -4.437404    0.490911
     45          8           0        2.923450   -5.848642   -1.156403
     46          6           0        2.129614   -6.922527   -0.602598
     47          6           0       -3.246430   -4.729282   -1.859836
     48          6           0       -4.035159   -4.478157   -0.555473
     49          6           0       -4.072371   -5.166569    0.617662
     50          6           0       -3.296482   -6.382332    0.888185
     51          6           0       -5.078290   -4.687326    1.670208
     52          6           0       -5.238513   -3.168372    1.864489
     53          6           0       -6.576153   -2.904554    2.543153
     54          6           0       -6.554628   -1.755625    3.540991
     55          6           0       -6.478090   -2.218823    5.094164
     56          6           0       -7.791479   -0.704480    3.343267
     57          6           0       -7.528728    0.310037    2.218018
     58          6           0       -7.698463    1.762485    2.645023
     59          6           0       -6.960062    2.743808    1.648539
     60          6           0       -5.640864    3.190564    2.187388
     61          6           0       -7.951110    3.791109    1.070127
     62          6           0       -8.259901    3.495204   -0.392960
     63          6           0       -9.619306    2.816861   -0.790467
     64          6           0      -10.760409    3.644386   -1.404478
     65          6           0      -12.193628    3.352658   -0.886309
     66          6           0      -10.729042    3.568188   -2.922998
     67          1           0        1.217400    1.715228   -3.975683
     68          1           0        3.962294    5.417708    0.486855
     69          1           0        6.921530    0.453191    3.052169
     70          1           0        2.326403   -2.925179   -3.314277
     71          1           0        0.395498   -0.773236   -3.481002
     72          1           0        2.448385   -2.081960   -5.187525
     73          1           0        2.459238   -0.250903   -5.435854
     74          1           0        1.002169   -1.100374   -5.552488
     75          1           0       -0.153253   -2.032328   -2.049635
     76          1           0        1.017970   -2.483783   -0.801322
     77          1           0        0.461066   -4.606729   -1.294804
     78          1           0        1.088781   -4.482443   -2.904295
     79          1           0        0.079888    4.890566   -3.610042
     80          1           0        0.689475    3.781252   -4.656440
     81          1           0        1.447745    5.407926   -4.608836
     82          1           0        3.922224    7.352332   -0.952570
     83          1           0        2.701406    7.014822    0.329949
     84          1           0        2.488310    8.390329   -0.708508
     85          1           0        4.699822    4.593212    2.869663
     86          1           0        7.252377    3.141575    3.012408
     87          1           0        6.064253    6.258477    2.580466
     88          1           0        6.513131    5.672752    0.869801
     89          1           0        7.476384    5.336193    2.284125
     90          1           0        4.999447    1.912347    4.380810
     91          1           0        5.187208    3.571208    4.827805
     92          1           0        6.742359    1.821562    6.177994
     93          1           0        7.046066    3.588871    5.900059
     94          1           0        7.819735    2.347434    4.984678
     95          1           0        7.615883   -1.705014    3.261520
     96          1           0        7.717920   -3.131988    2.095014
     97          1           0        6.460997   -2.970716    3.448262
     98          1           0        4.534358   -4.196400   -1.647321
     99          1           0        1.699060   -7.462543   -1.445161
    100          1           0        1.277921   -6.593449   -0.006360
    101          1           0        2.792233   -7.628674   -0.101940
    102          1           0       -3.494632   -5.782522   -1.992952
    103          1           0       -3.661712   -4.143910   -2.680274
    104          1           0       -4.713637   -3.664017   -0.809847
    105          1           0       -3.865538   -6.837821    1.698640
    106          1           0       -2.259457   -6.175068    1.150722
    107          1           0       -3.386919   -7.028854    0.016245
    108          1           0       -4.796304   -5.070408    2.650348
    109          1           0       -6.041369   -5.130782    1.417139
    110          1           0       -5.207462   -2.596883    0.936762
    111          1           0       -4.395646   -2.754291    2.418721
    112          1           0       -6.773044   -3.805154    3.123829
    113          1           0       -7.270744   -2.673457    1.735537
    114          1           0       -5.638130   -1.176401    3.431963
    115          1           0       -5.504671   -2.074940    5.563867
    116          1           0       -6.549732   -3.305250    5.164853
    117          1           0       -7.266299   -1.730149    5.666403
    118          1           0       -7.964622   -0.245700    4.316598
    119          1           0       -8.740896   -1.194782    3.126651
    120          1           0       -8.066661    0.185990    1.277919
    121          1           0       -6.456474    0.205641    2.050397
    122          1           0       -7.196080    1.966613    3.590530
    123          1           0       -8.767764    1.952758    2.739224
    124          1           0       -6.647018    2.122636    0.809062
    125          1           0       -5.081174    2.360498    2.618615
    126          1           0       -5.772963    4.053577    2.840606
    127          1           0       -5.124318    3.478253    1.271524
    128          1           0       -7.514253    4.786313    1.151502
    129          1           0       -8.842679    3.735037    1.695499
    130          1           0       -7.386781    3.024455   -0.845355
    131          1           0       -8.329830    4.497744   -0.814398
    132          1           0       -9.911994    2.374073    0.161910
    133          1           0       -9.324433    1.983938   -1.428188
    134          1           0      -10.527967    4.663752   -1.093421
    135          1           0      -12.548171    4.116082   -0.193078
    136          1           0      -12.061385    2.355272   -0.468105
    137          1           0      -12.996500    3.254922   -1.616654
    138          1           0      -11.432116    2.826164   -3.301293
    139          1           0       -9.704848    3.358697   -3.231780
    140          1           0      -11.141229    4.499806   -3.311286
 ---------------------------------------------------------------------

 SCF Done:  E(RCAM-B3LYP) =  -3007.15264856     A.U. after   16 cycles

 Excitation energies and oscillator strengths:

 Excited State   1:      Singlet-A      1.7232 eV  719.52 nm  f=0.3931  <S**2>=0.000
     245 -> 248       -0.18014
     246 -> 247        0.68548
     245 <- 248       -0.10945
 This state for optimization and/or second-order correction.
 Total Energy, E(TD-HF/TD-DFT) =  -3007.08932348
 Copying the excited state density for this state as the 1-particle RhoCI density.

 Excited State   2:      Singlet-A      2.3137 eV  535.87 nm  f=0.0746  <S**2>=0.000
     245 -> 247        0.61637
     246 -> 248        0.33506

 Excited State   3:      Singlet-A      3.5045 eV  353.79 nm  f=0.4493  <S**2>=0.000
     239 -> 247       -0.12312
     241 -> 247       -0.18016
     245 -> 247       -0.25115
     246 -> 248        0.50793
     246 -> 249       -0.22974
     246 -> 250       -0.24905

 Excited State   4:      Singlet-A      3.5799 eV  346.34 nm  f=0.0833  <S**2>=0.000
     239 -> 247       -0.15982
     241 -> 247       -0.28381
     243 -> 247        0.27685
     246 -> 248        0.18126
     246 -> 249        0.36961
     246 -> 250        0.33248

 Excited State   5:      Singlet-A      3.6086 eV  343.58 nm  f=0.0387  <S**2>=0.000
     241 -> 247       -0.11457
     242 -> 247       -0.12378
     243 -> 247        0.55087
     246 -> 248       -0.14155
     246 -> 249       -0.24622
     246 -> 250       -0.24368

 The electronic state is 1-A.
 Alpha  occ. eigenvalues --  -46.88880 -19.25360 -19.25156 -19.19884 -19.19433
 Alpha  occ. eigenvalues --  -19.19377 -19.18114 -14.42198 -14.41870 -14.39720
 Alpha  occ. eigenvalues --  -14.39260 -10.39369 -10.39222 -10.34827 -10.34387
 Alpha  occ. eigenvalues --  -10.31531 -10.31479 -10.31431 -10.30766 -10.30744
 Alpha  occ. eigenvalues --  -10.30597 -10.30473 -10.30322 -10.28923 -10.28630
 Alpha  occ. eigenvalues --  -10.28522 -10.28348 -10.28292 -10.27926 -10.27705
 Alpha  occ. eigenvalues --  -10.27560 -10.27410 -10.27186 -10.27173 -10.26880
 Alpha  occ. eigenvalues --  -10.26862 -10.26717 -10.26672 -10.26559 -10.26533
 Alpha  occ. eigenvalues --  -10.26170 -10.26166 -10.26091 -10.26067 -10.26023
 Alpha  occ. eigenvalues --  -10.25691 -10.25631 -10.25555 -10.25510 -10.25484
 Alpha  occ. eigenvalues --  -10.25380 -10.25009 -10.24736 -10.24693 -10.24579
 Alpha  occ. eigenvalues --  -10.24562 -10.24558 -10.24417 -10.24397 -10.24321
 Alpha  occ. eigenvalues --  -10.24287 -10.24286 -10.24259 -10.24051 -10.24008
 Alpha  occ. eigenvalues --  -10.23878  -3.17595  -1.92427  -1.92097  -1.91888
 Alpha  occ. eigenvalues --   -1.16733  -1.16026  -1.11624  -1.11361  -1.08255
 Alpha  occ. eigenvalues --   -1.06628  -1.05481  -1.04975  -1.04060  -1.03466
 Alpha  occ. eigenvalues --   -0.92646  -0.90449  -0.90002  -0.89758  -0.89648
 Alpha  occ. eigenvalues --   -0.88443  -0.88202  -0.87664  -0.87390  -0.87133
 Alpha  occ. eigenvalues --   -0.86033  -0.85620  -0.84414  -0.84158  -0.83651
 Alpha  occ. eigenvalues --   -0.82518  -0.82073  -0.81420  -0.81029  -0.80496
 Alpha  occ. eigenvalues --   -0.80030  -0.78443  -0.77762  -0.77128  -0.76744
 Alpha  occ. eigenvalues --   -0.75501  -0.75304  -0.75226  -0.74793  -0.73851
 Alpha  occ. eigenvalues --   -0.72921  -0.72337  -0.71906  -0.69764  -0.69354
 Alpha  occ. eigenvalues --   -0.68738  -0.67811  -0.67364  -0.66677  -0.66025
 Alpha  occ. eigenvalues --   -0.65806  -0.65116  -0.64723  -0.64353  -0.64213
 Alpha  occ. eigenvalues --   -0.63343  -0.62915  -0.62476  -0.61961  -0.60509
 Alpha  occ. eigenvalues --   -0.60066  -0.59536  -0.58958  -0.58497  -0.58201
 Alpha  occ. eigenvalues --   -0.57892  -0.57479  -0.56668  -0.56182  -0.55821
 Alpha  occ. eigenvalues --   -0.55303  -0.54655  -0.54536  -0.54405  -0.54012
 Alpha  occ. eigenvalues --   -0.53717  -0.53493  -0.53174  -0.52987  -0.52741
 Alpha  occ. eigenvalues --   -0.52451  -0.52013  -0.51980  -0.51915  -0.51596
 Alpha  occ. eigenvalues --   -0.51541  -0.51027  -0.50916  -0.50812  -0.50629
 Alpha  occ. eigenvalues --   -0.50418  -0.50286  -0.50146  -0.50075  -0.49694
 Alpha  occ. eigenvalues --   -0.49491  -0.49421  -0.49135  -0.49076  -0.48909
 Alpha  occ. eigenvalues --   -0.48744  -0.48469  -0.48222  -0.48091  -0.47938
 Alpha  occ. eigenvalues --   -0.47552  -0.47230  -0.46997  -0.46914  -0.46837
 Alpha  occ. eigenvalues --   -0.46767  -0.46360  -0.46039  -0.45794  -0.45663
 Alpha  occ. eigenvalues --   -0.45270  -0.45062  -0.44965  -0.44944  -0.44872
 Alpha  occ. eigenvalues --   -0.44825  -0.44645  -0.44420  -0.44285  -0.44085
 Alpha  occ. eigenvalues --   -0.44059  -0.43707  -0.43428  -0.43091  -0.42830
 Alpha  occ. eigenvalues --   -0.42527  -0.42498  -0.42381  -0.42293  -0.42196
 Alpha  occ. eigenvalues --   -0.42051  -0.41761  -0.41538  -0.41332  -0.41090
 Alpha  occ. eigenvalues --   -0.40870  -0.40810  -0.40615  -0.40417  -0.40031
 Alpha  occ. eigenvalues --   -0.39607  -0.39404  -0.38756  -0.38698  -0.38249
 Alpha  occ. eigenvalues --   -0.38097  -0.37900  -0.37825  -0.37434  -0.37352
 Alpha  occ. eigenvalues --   -0.36890  -0.36776  -0.36602  -0.36443  -0.36051
 Alpha  occ. eigenvalues --   -0.35837  -0.35479  -0.35056  -0.34703  -0.34631
 Alpha  occ. eigenvalues --   -0.33728  -0.33223  -0.33148  -0.31450  -0.31184
 Alpha  occ. eigenvalues --   -0.30653  -0.30263  -0.29993  -0.29346  -0.24361
 Alpha  occ. eigenvalues --   -0.20848
 Alpha virt. eigenvalues --   -0.08348  -0.01633   0.00718   0.01131   0.02925
 Alpha virt. eigenvalues --    0.03788   0.04850   0.05029   0.05750   0.07190
 Alpha virt. eigenvalues --    0.08109   0.08853   0.09251   0.09272   0.09359

 Mulliken charges:
               1
     1  Mg   0.841316
     2  C   -0.033696
     3  C   -0.084330
     4  C   -0.072091
     5  C   -0.101741
     6  N   -0.224656
     7  C   -0.050065
     8  C   -0.103329
     9  C   -0.016744
    10  C    0.016526
    11  C    0.080802
    12  C    0.063043
    13  C    0.048342
    14  C    0.155522
    15  O   -0.260468
    16  O   -0.306088
    17  N   -0.389164
    18  C    0.138626
    19  C   -0.141156
    20  C   -0.032534
    21  C    0.155021
    22  C    0.136404
    23  C   -0.029891
    24  O   -0.180575
    25  C    0.068919
    26  N   -0.291947
    27  C    0.032754
    28  C   -0.044466
    29  C   -0.023998
    30  C    0.043879
    31  C    0.074122
    32  C    0.039603
    33  C   -0.011693
    34  N   -0.336014
    35  C    0.126928
    36  C   -0.198660
    37  C   -0.012868
    38  C    0.143555
    39  C    0.152889
    40  C    0.021365
    41  O   -0.143990
    42  C    0.051238
    43  C    0.166119
    44  O   -0.222359
    45  O   -0.335858
    46  C    0.167335
    47  C    0.285717
    48  C   -0.173784
    49  C   -0.172591
    50  C    0.122422
    51  C    0.060874
    52  C   -0.000426
    53  C    0.096887
    54  C   -0.160032
    55  C    0.027750
    56  C    0.057259
    57  C   -0.000689
    58  C    0.037330
    59  C   -0.170737
    60  C    0.078213
    61  C    0.078507
    62  C   -0.008683
    63  C    0.044082
    64  C   -0.127213
    65  C    0.038989
    66  C    0.054179
    67  H   -0.028719
    68  H   -0.061752
    69  H   -0.024117
    70  H    0.010871
    71  H    0.021496
    72  H    0.029432
    73  H    0.010727
    74  H    0.015514
    75  H    0.014872
    76  H    0.053394
    77  H    0.030138
    78  H    0.025499
    79  H    0.027592
    80  H   -0.008937
    81  H    0.038268
    82  H    0.032342
    83  H    0.040168
    84  H    0.022404
    85  H    0.017357
    86  H   -0.000766
    87  H    0.017416
    88  H    0.028911
    89  H    0.007775
    90  H    0.021116
    91  H    0.003100
    92  H    0.022264
    93  H    0.021239
    94  H    0.004562
    95  H    0.002080
    96  H    0.053735
    97  H    0.044371
    98  H    0.033979
    99  H    0.024508
   100  H    0.057706
   101  H    0.046461
   102  H    0.011520
   103  H    0.026747
   104  H   -0.003525
   105  H    0.003465
   106  H    0.051939
   107  H    0.013741
   108  H   -0.000214
   109  H    0.022531
   110  H    0.000334
   111  H   -0.000537
   112  H   -0.001360
   113  H    0.005009
   114  H    0.003569
   115  H    0.007988
   116  H   -0.006125
   117  H    0.015963
   118  H   -0.010399
   119  H   -0.005794
   120  H    0.006133
   121  H   -0.007071
   122  H   -0.015607
   123  H   -0.005761
   124  H   -0.011373
   125  H    0.009260
   126  H    0.010909
   127  H    0.001566
   128  H   -0.014119
   129  H   -0.006646
   130  H   -0.001432
   131  H   -0.014201
   132  H   -0.016516
   133  H   -0.007527
   134  H   -0.007775
   135  H    0.014221
   136  H    0.006250
   137  H    0.003363
   138  H    0.004919
   139  H    0.012311
   140  H    0.005258
 Sum of Mulliken charges =  -0.00000

 Dipole moment (field-independent basis, Debye):
    X=              2.5051    Y=              0.6588    Z=              2.5989  Tot=              3.6693
 Quadrupole moment (field-independent basis, Debye-Ang):
   XX=           -372.9447   YY=           -413.4951   ZZ=           -404.4787
   XY=             31.0337   XZ=              5.8843   YZ=             16.7036

 Normal termination of Gaussian 16 at Wed May  4 19:22:51 2022.
