 Gaussian 16, Revision A.03,
 Gaussian 16:  ES64L-G16RevA.03 25-Dec-2016

 ---------------------------------
 #p PBE1PBE/Def2SVP td=(nstates=5)
 ---------------------------------

 -----------------------------------------------------
 step_351_chromophore_20 TDDFT with PBE1PBE functional
 -----------------------------------------------------
 Symbolic Z-matrix:
 Charge =  0 Multiplicity = 1

                         Standard orientation:
 ---------------------------------------------------------------------
 Center     Atomic      Atomic             Coordinates (Angstroms)
 Number     Number       Type             X           Y           Z
 ---------------------------------------------------------------------
      1         12           0        4.167875    1.286223   -0.661725
      2          6           0        3.758499   -2.243119   -0.854343
      3          6           0        1.902882    1.628809   -3.130317
      4          6           0        3.942123    4.359860    0.215720
      5          6           0        6.240005    0.615334    2.214493
      6          7           0        2.747005   -0.168303   -1.628997
      7          6           0        2.889485   -1.470977   -1.721522
      8          6           0        1.931872   -2.091142   -2.734805
      9          6           0        1.476730   -0.892503   -3.561174
     10          6           0        2.113772    0.295048   -2.754424
     11          6           0        1.954383   -1.124216   -5.022723
     12          6           0        0.744244   -2.617937   -1.847942
     13          6           0        0.383052   -4.022267   -2.211838
     14          6           0       -1.069342   -4.173959   -2.709641
     15          8           0       -1.473050   -4.052455   -3.885542
     16          8           0       -1.839169   -4.534953   -1.643030
     17          7           0        3.032117    2.767448   -1.381482
     18          6           0        2.246663    2.810776   -2.475385
     19          6           0        1.926818    4.140906   -2.850088
     20          6           0        2.399389    4.954773   -1.790564
     21          6           0        3.203921    4.049368   -0.955836
     22          6           0        1.044379    4.587180   -4.015386
     23          6           0        2.199486    6.477973   -1.688676
     24          8           0        1.478288    7.066377   -2.434597
     25          6           0        2.865200    7.368343   -0.687989
     26          7           0        4.822416    2.311519    1.073514
     27          6           0        4.778889    3.606086    1.032533
     28          6           0        5.523531    4.251914    2.242886
     29          6           0        6.172502    3.010400    2.945931
     30          6           0        5.789779    1.917332    1.990269
     31          6           0        6.451179    5.467273    1.938788
     32          6           0        5.730852    2.720075    4.417702
     33          6           0        6.867236    2.615519    5.442378
     34          7           0        4.950668   -0.391805    0.282942
     35          6           0        5.791160   -0.488422    1.417355
     36          6           0        6.166430   -1.886777    1.683856
     37          6           0        5.381600   -2.545944    0.763884
     38          6           0        4.667231   -1.640229   -0.044872
     39          6           0        7.091948   -2.482210    2.705542
     40          6           0        5.093337   -3.898919    0.395390
     41          8           0        5.548248   -4.935588    0.792624
     42          6           0        4.062594   -3.815356   -0.741037
     43          6           0        2.944397   -4.669988   -0.434061
     44          8           0        2.185914   -4.437404    0.490911
     45          8           0        2.923450   -5.848642   -1.156403
     46          6           0        2.129614   -6.922527   -0.602598
     47          6           0       -3.246430   -4.729282   -1.859836
     48          6           0       -4.035159   -4.478157   -0.555473
     49          6           0       -4.072371   -5.166569    0.617662
     50          6           0       -3.296482   -6.382332    0.888185
     51          6           0       -5.078290   -4.687326    1.670208
     52          6           0       -5.238513   -3.168372    1.864489
     53          6           0       -6.576153   -2.904554    2.543153
     54          6           0       -6.554628   -1.755625    3.540991
     55          6           0       -6.478090   -2.218823    5.094164
     56          6           0       -7.791479   -0.704480    3.343267
     57          6           0       -7.528728    0.310037    2.218018
     58          6           0       -7.698463    1.762485    2.645023
     59          6           0       -6.960062    2.743808    1.648539
     60          6           0       -5.640864    3.190564    2.187388
     61          6           0       -7.951110    3.791109    1.070127
     62          6           0       -8.259901    3.495204   -0.392960
     63          6           0       -9.619306    2.816861   -0.790467
     64          6           0      -10.760409    3.644386   -1.404478
     65          6           0      -12.193628    3.352658   -0.886309
     66          6           0      -10.729042    3.568188   -2.922998
     67          1           0        1.217400    1.715228   -3.975683
     68          1           0        3.962294    5.417708    0.486855
     69          1           0        6.921530    0.453191    3.052169
     70          1           0        2.326403   -2.925179   -3.314277
     71          1           0        0.395498   -0.773236   -3.481002
     72          1           0        2.448385   -2.081960   -5.187525
     73          1           0        2.459238   -0.250903   -5.435854
     74          1           0        1.002169   -1.100374   -5.552488
     75          1           0       -0.153253   -2.032328   -2.049635
     76          1           0        1.017970   -2.483783   -0.801322
     77          1           0        0.461066   -4.606729   -1.294804
     78          1           0        1.088781   -4.482443   -2.904295
     79          1           0        0.079888    4.890566   -3.610042
     80          1           0        0.689475    3.781252   -4.656440
     81          1           0        1.447745    5.407926   -4.608836
     82          1           0        3.922224    7.352332   -0.952570
     83          1           0        2.701406    7.014822    0.329949
     84          1           0        2.488310    8.390329   -0.708508
     85          1           0        4.699822    4.593212    2.869663
     86          1           0        7.252377    3.141575    3.012408
     87          1           0        6.064253    6.258477    2.580466
     88          1           0        6.513131    5.672752    0.869801
     89          1           0        7.476384    5.336193    2.284125
     90          1           0        4.999447    1.912347    4.380810
     91          1           0        5.187208    3.571208    4.827805
     92          1           0        6.742359    1.821562    6.177994
     93          1           0        7.046066    3.588871    5.900059
     94          1           0        7.819735    2.347434    4.984678
     95          1           0        7.615883   -1.705014    3.261520
     96          1           0        7.717920   -3.131988    2.095014
     97          1           0        6.460997   -2.970716    3.448262
     98          1           0        4.534358   -4.196400   -1.647321
     99          1           0        1.699060   -7.462543   -1.445161
    100          1           0        1.277921   -6.593449   -0.006360
    101          1           0        2.792233   -7.628674   -0.101940
    102          1           0       -3.494632   -5.782522   -1.992952
    103          1           0       -3.661712   -4.143910   -2.680274
    104          1           0       -4.713637   -3.664017   -0.809847
    105          1           0       -3.865538   -6.837821    1.698640
    106          1           0       -2.259457   -6.175068    1.150722
    107          1           0       -3.386919   -7.028854    0.016245
    108          1           0       -4.796304   -5.070408    2.650348
    109          1           0       -6.041369   -5.130782    1.417139
    110          1           0       -5.207462   -2.596883    0.936762
    111          1           0       -4.395646   -2.754291    2.418721
    112          1           0       -6.773044   -3.805154    3.123829
    113          1           0       -7.270744   -2.673457    1.735537
    114          1           0       -5.638130   -1.176401    3.431963
    115          1           0       -5.504671   -2.074940    5.563867
    116          1           0       -6.549732   -3.305250    5.164853
    117          1           0       -7.266299   -1.730149    5.666403
    118          1           0       -7.964622   -0.245700    4.316598
    119          1           0       -8.740896   -1.194782    3.126651
    120          1           0       -8.066661    0.185990    1.277919
    121          1           0       -6.456474    0.205641    2.050397
    122          1           0       -7.196080    1.966613    3.590530
    123          1           0       -8.767764    1.952758    2.739224
    124          1           0       -6.647018    2.122636    0.809062
    125          1           0       -5.081174    2.360498    2.618615
    126          1           0       -5.772963    4.053577    2.840606
    127          1           0       -5.124318    3.478253    1.271524
    128          1           0       -7.514253    4.786313    1.151502
    129          1           0       -8.842679    3.735037    1.695499
    130          1           0       -7.386781    3.024455   -0.845355
    131          1           0       -8.329830    4.497744   -0.814398
    132          1           0       -9.911994    2.374073    0.161910
    133          1           0       -9.324433    1.983938   -1.428188
    134          1           0      -10.527967    4.663752   -1.093421
    135          1           0      -12.548171    4.116082   -0.193078
    136          1           0      -12.061385    2.355272   -0.468105
    137          1           0      -12.996500    3.254922   -1.616654
    138          1           0      -11.432116    2.826164   -3.301293
    139          1           0       -9.704848    3.358697   -3.231780
    140          1           0      -11.141229    4.499806   -3.311286
 ---------------------------------------------------------------------

 SCF Done:  E(RPBE1PBE) =  -3005.34136741     A.U. after   15 cycles

 Excitation energies and oscillator strengths:

 Excited State   1:      Singlet-A      1.8807 eV  659.26 nm  f=0.3837  <S**2>=0.000
     245 -> 248       -0.17495
     246 -> 247        0.69329
     246 <- 247       -0.10985
 This state for optimization and/or second-order correction.
 Total Energy, E(TD-HF/TD-DFT) =  -3005.27225424
 Copying the excited state density for this state as the 1-particle RhoCI density.

 Excited State   2:      Singlet-A      2.3245 eV  533.37 nm  f=0.0763  <S**2>=0.000
     245 -> 247        0.63180
     246 -> 248        0.30755

 Excited State   3:      Singlet-A      3.0526 eV  406.16 nm  f=0.0001  <S**2>=0.000
     243 -> 247        0.68011
     243 -> 249        0.12633
     243 -> 251       -0.10731

 Excited State   4:      Singlet-A      3.1811 eV  389.75 nm  f=0.0120  <S**2>=0.000
     240 -> 247        0.26458
     241 -> 247        0.59487
     241 -> 249       -0.14879
     242 -> 247       -0.11919
     246 -> 248       -0.12951

 Excited State   5:      Singlet-A      3.2574 eV  380.63 nm  f=0.0032  <S**2>=0.000
     240 -> 247        0.10580
     242 -> 247        0.68219
     246 -> 248       -0.10175

 The electronic state is 1-A.
 Alpha  occ. eigenvalues --  -46.92280 -19.25912 -19.25833 -19.19984 -19.19674
 Alpha  occ. eigenvalues --  -19.19501 -19.18405 -14.41644 -14.41394 -14.39315
 Alpha  occ. eigenvalues --  -14.38948 -10.36265 -10.36239 -10.31814 -10.31624
 Alpha  occ. eigenvalues --  -10.29195 -10.28826 -10.28642 -10.28448 -10.28413
 Alpha  occ. eigenvalues --  -10.28381 -10.28211 -10.28098 -10.26735 -10.26143
 Alpha  occ. eigenvalues --  -10.26120 -10.26025 -10.25832 -10.25768 -10.25500
 Alpha  occ. eigenvalues --  -10.25382 -10.25235 -10.24976 -10.24812 -10.24580
 Alpha  occ. eigenvalues --  -10.24509 -10.24309 -10.24209 -10.24189 -10.24029
 Alpha  occ. eigenvalues --  -10.23910 -10.23783 -10.23700 -10.23637 -10.23524
 Alpha  occ. eigenvalues --  -10.23254 -10.23129 -10.23027 -10.23004 -10.22922
 Alpha  occ. eigenvalues --  -10.22891 -10.22606 -10.22329 -10.22269 -10.22115
 Alpha  occ. eigenvalues --  -10.22105 -10.22017 -10.21995 -10.21975 -10.21944
 Alpha  occ. eigenvalues --  -10.21849 -10.21814 -10.21680 -10.21446 -10.21426
 Alpha  occ. eigenvalues --  -10.21374  -3.14568  -1.87340  -1.86990  -1.86785
 Alpha  occ. eigenvalues --   -1.11378  -1.10842  -1.06247  -1.06217  -1.02960
 Alpha  occ. eigenvalues --   -1.01467  -1.00098  -0.99604  -0.98759  -0.98157
 Alpha  occ. eigenvalues --   -0.86904  -0.84604  -0.84204  -0.84058  -0.83746
 Alpha  occ. eigenvalues --   -0.82766  -0.82306  -0.81931  -0.81536  -0.81453
 Alpha  occ. eigenvalues --   -0.80453  -0.79871  -0.78624  -0.78352  -0.77912
 Alpha  occ. eigenvalues --   -0.76749  -0.76259  -0.75628  -0.75346  -0.74795
 Alpha  occ. eigenvalues --   -0.74182  -0.72732  -0.72019  -0.71429  -0.71029
 Alpha  occ. eigenvalues --   -0.69824  -0.69532  -0.69327  -0.68943  -0.68016
 Alpha  occ. eigenvalues --   -0.67342  -0.66690  -0.66365  -0.64112  -0.63675
 Alpha  occ. eigenvalues --   -0.63129  -0.62047  -0.61838  -0.60889  -0.60431
 Alpha  occ. eigenvalues --   -0.60249  -0.59650  -0.58919  -0.58903  -0.58705
 Alpha  occ. eigenvalues --   -0.57475  -0.57082  -0.56970  -0.56140  -0.54982
 Alpha  occ. eigenvalues --   -0.54653  -0.54095  -0.53305  -0.53117  -0.52610
 Alpha  occ. eigenvalues --   -0.52474  -0.51840  -0.51216  -0.50649  -0.50329
 Alpha  occ. eigenvalues --   -0.49898  -0.49095  -0.48992  -0.48880  -0.48523
 Alpha  occ. eigenvalues --   -0.48240  -0.47935  -0.47686  -0.47472  -0.47337
 Alpha  occ. eigenvalues --   -0.46911  -0.46536  -0.46463  -0.46320  -0.46167
 Alpha  occ. eigenvalues --   -0.46076  -0.45647  -0.45451  -0.45389  -0.45143
 Alpha  occ. eigenvalues --   -0.45021  -0.44843  -0.44680  -0.44637  -0.44250
 Alpha  occ. eigenvalues --   -0.44057  -0.44023  -0.43706  -0.43669  -0.43568
 Alpha  occ. eigenvalues --   -0.43345  -0.43169  -0.42833  -0.42646  -0.42539
 Alpha  occ. eigenvalues --   -0.42198  -0.41909  -0.41704  -0.41644  -0.41548
 Alpha  occ. eigenvalues --   -0.41386  -0.41052  -0.40720  -0.40458  -0.40420
 Alpha  occ. eigenvalues --   -0.39941  -0.39798  -0.39739  -0.39660  -0.39533
 Alpha  occ. eigenvalues --   -0.39384  -0.39341  -0.39161  -0.39041  -0.38868
 Alpha  occ. eigenvalues --   -0.38768  -0.38536  -0.38252  -0.37840  -0.37705
 Alpha  occ. eigenvalues --   -0.37358  -0.37270  -0.37231  -0.37047  -0.36891
 Alpha  occ. eigenvalues --   -0.36837  -0.36532  -0.36421  -0.36150  -0.35870
 Alpha  occ. eigenvalues --   -0.35719  -0.35637  -0.35392  -0.35300  -0.34796
 Alpha  occ. eigenvalues --   -0.34451  -0.34301  -0.33700  -0.33510  -0.33209
 Alpha  occ. eigenvalues --   -0.32936  -0.32865  -0.32610  -0.32235  -0.32158
 Alpha  occ. eigenvalues --   -0.31948  -0.31678  -0.31460  -0.31442  -0.30918
 Alpha  occ. eigenvalues --   -0.30657  -0.30349  -0.29992  -0.29861  -0.29562
 Alpha  occ. eigenvalues --   -0.29058  -0.28149  -0.28020  -0.26854  -0.26270
 Alpha  occ. eigenvalues --   -0.26125  -0.25707  -0.25035  -0.24629  -0.21246
 Alpha  occ. eigenvalues --   -0.18527
 Alpha virt. eigenvalues --   -0.10866  -0.05101  -0.03397  -0.01705  -0.01509
 Alpha virt. eigenvalues --   -0.00685   0.00344   0.00570   0.01440   0.03279
 Alpha virt. eigenvalues --    0.04090   0.05326   0.05615   0.06064   0.06157

 Mulliken charges:
               1
     1  Mg   0.987490
     2  C   -0.012619
     3  C   -0.075878
     4  C   -0.065387
     5  C   -0.080670
     6  N   -0.322447
     7  C    0.012064
     8  C   -0.177885
     9  C   -0.088880
    10  C    0.051286
    11  C    0.023749
    12  C    0.023112
    13  C   -0.034483
    14  C    0.223513
    15  O   -0.294131
    16  O   -0.335637
    17  N   -0.510063
    18  C    0.157600
    19  C   -0.159866
    20  C   -0.081156
    21  C    0.181968
    22  C    0.079329
    23  C    0.022312
    24  O   -0.214647
    25  C   -0.009471
    26  N   -0.392594
    27  C    0.069973
    28  C   -0.120087
    29  C   -0.094880
    30  C    0.067374
    31  C    0.014282
    32  C   -0.019152
    33  C   -0.083244
    34  N   -0.466663
    35  C    0.133577
    36  C   -0.201788
    37  C   -0.064439
    38  C    0.181935
    39  C    0.094833
    40  C    0.118856
    41  O   -0.193836
    42  C   -0.063145
    43  C    0.260761
    44  O   -0.257354
    45  O   -0.370948
    46  C    0.113174
    47  C    0.243409
    48  C   -0.181578
    49  C   -0.211431
    50  C    0.054358
    51  C   -0.007202
    52  C   -0.058123
    53  C    0.037238
    54  C   -0.244537
    55  C   -0.029884
    56  C    0.008042
    57  C   -0.073017
    58  C   -0.014236
    59  C   -0.250702
    60  C    0.012133
    61  C    0.023270
    62  C   -0.071299
    63  C   -0.013226
    64  C   -0.219384
    65  C   -0.021519
    66  C   -0.009690
    67  H    0.003142
    68  H   -0.023994
    69  H    0.008596
    70  H    0.046217
    71  H    0.056832
    72  H    0.055790
    73  H    0.038633
    74  H    0.043371
    75  H    0.047681
    76  H    0.085944
    77  H    0.067755
    78  H    0.056795
    79  H    0.055885
    80  H    0.019258
    81  H    0.065244
    82  H    0.060375
    83  H    0.065083
    84  H    0.051152
    85  H    0.054907
    86  H    0.037493
    87  H    0.044460
    88  H    0.055489
    89  H    0.035471
    90  H    0.053494
    91  H    0.036390
    92  H    0.050128
    93  H    0.048639
    94  H    0.030895
    95  H    0.029515
    96  H    0.079829
    97  H    0.071486
    98  H    0.070385
    99  H    0.046322
   100  H    0.076455
   101  H    0.068841
   102  H    0.039469
   103  H    0.051757
   104  H    0.026574
   105  H    0.031601
   106  H    0.078912
   107  H    0.041604
   108  H    0.032879
   109  H    0.056094
   110  H    0.032481
   111  H    0.032125
   112  H    0.032004
   113  H    0.038347
   114  H    0.041051
   115  H    0.035102
   116  H    0.020770
   117  H    0.042101
   118  H    0.020940
   119  H    0.027033
   120  H    0.038845
   121  H    0.028749
   122  H    0.018454
   123  H    0.025943
   124  H    0.026798
   125  H    0.037207
   126  H    0.038904
   127  H    0.031012
   128  H    0.018972
   129  H    0.025921
   130  H    0.029959
   131  H    0.019452
   132  H    0.018687
   133  H    0.024997
   134  H    0.030767
   135  H    0.041196
   136  H    0.033784
   137  H    0.030397
   138  H    0.032839
   139  H    0.040105
   140  H    0.033749
 Sum of Mulliken charges =  -0.00000

 Dipole moment (field-independent basis, Debye):
    X=              2.4043    Y=              0.9373    Z=              2.6026  Tot=              3.6651
 Quadrupole moment (field-independent basis, Debye-Ang):
   XX=           -370.2831   YY=           -409.8613   ZZ=           -400.2777
   XY=             32.3052   XZ=              6.9234   YZ=             16.7942

 Normal termination of Gaussian 16 at Wed May  4 20:10:49 2022.
