 Gaussian 16, Revision A.03,
 Gaussian 16:  ES64L-G16RevA.03 25-Dec-2016

 --------------------------------
 #p wB97XD/Def2SVP td=(nstates=5)
 --------------------------------

 ----------------------------------------------------
 step_351_chromophore_20 TDDFT with wB97XD functional
 ----------------------------------------------------
 Symbolic Z-matrix:
 Charge =  0 Multiplicity = 1

                         Standard orientation:
 ---------------------------------------------------------------------
 Center     Atomic      Atomic             Coordinates (Angstroms)
 Number     Number       Type             X           Y           Z
 ---------------------------------------------------------------------
      1         12           0        4.167875    1.286223   -0.661725
      2          6           0        3.758499   -2.243119   -0.854343
      3          6           0        1.902882    1.628809   -3.130317
      4          6           0        3.942123    4.359860    0.215720
      5          6           0        6.240005    0.615334    2.214493
      6          7           0        2.747005   -0.168303   -1.628997
      7          6           0        2.889485   -1.470977   -1.721522
      8          6           0        1.931872   -2.091142   -2.734805
      9          6           0        1.476730   -0.892503   -3.561174
     10          6           0        2.113772    0.295048   -2.754424
     11          6           0        1.954383   -1.124216   -5.022723
     12          6           0        0.744244   -2.617937   -1.847942
     13          6           0        0.383052   -4.022267   -2.211838
     14          6           0       -1.069342   -4.173959   -2.709641
     15          8           0       -1.473050   -4.052455   -3.885542
     16          8           0       -1.839169   -4.534953   -1.643030
     17          7           0        3.032117    2.767448   -1.381482
     18          6           0        2.246663    2.810776   -2.475385
     19          6           0        1.926818    4.140906   -2.850088
     20          6           0        2.399389    4.954773   -1.790564
     21          6           0        3.203921    4.049368   -0.955836
     22          6           0        1.044379    4.587180   -4.015386
     23          6           0        2.199486    6.477973   -1.688676
     24          8           0        1.478288    7.066377   -2.434597
     25          6           0        2.865200    7.368343   -0.687989
     26          7           0        4.822416    2.311519    1.073514
     27          6           0        4.778889    3.606086    1.032533
     28          6           0        5.523531    4.251914    2.242886
     29          6           0        6.172502    3.010400    2.945931
     30          6           0        5.789779    1.917332    1.990269
     31          6           0        6.451179    5.467273    1.938788
     32          6           0        5.730852    2.720075    4.417702
     33          6           0        6.867236    2.615519    5.442378
     34          7           0        4.950668   -0.391805    0.282942
     35          6           0        5.791160   -0.488422    1.417355
     36          6           0        6.166430   -1.886777    1.683856
     37          6           0        5.381600   -2.545944    0.763884
     38          6           0        4.667231   -1.640229   -0.044872
     39          6           0        7.091948   -2.482210    2.705542
     40          6           0        5.093337   -3.898919    0.395390
     41          8           0        5.548248   -4.935588    0.792624
     42          6           0        4.062594   -3.815356   -0.741037
     43          6           0        2.944397   -4.669988   -0.434061
     44          8           0        2.185914   -4.437404    0.490911
     45          8           0        2.923450   -5.848642   -1.156403
     46          6           0        2.129614   -6.922527   -0.602598
     47          6           0       -3.246430   -4.729282   -1.859836
     48          6           0       -4.035159   -4.478157   -0.555473
     49          6           0       -4.072371   -5.166569    0.617662
     50          6           0       -3.296482   -6.382332    0.888185
     51          6           0       -5.078290   -4.687326    1.670208
     52          6           0       -5.238513   -3.168372    1.864489
     53          6           0       -6.576153   -2.904554    2.543153
     54          6           0       -6.554628   -1.755625    3.540991
     55          6           0       -6.478090   -2.218823    5.094164
     56          6           0       -7.791479   -0.704480    3.343267
     57          6           0       -7.528728    0.310037    2.218018
     58          6           0       -7.698463    1.762485    2.645023
     59          6           0       -6.960062    2.743808    1.648539
     60          6           0       -5.640864    3.190564    2.187388
     61          6           0       -7.951110    3.791109    1.070127
     62          6           0       -8.259901    3.495204   -0.392960
     63          6           0       -9.619306    2.816861   -0.790467
     64          6           0      -10.760409    3.644386   -1.404478
     65          6           0      -12.193628    3.352658   -0.886309
     66          6           0      -10.729042    3.568188   -2.922998
     67          1           0        1.217400    1.715228   -3.975683
     68          1           0        3.962294    5.417708    0.486855
     69          1           0        6.921530    0.453191    3.052169
     70          1           0        2.326403   -2.925179   -3.314277
     71          1           0        0.395498   -0.773236   -3.481002
     72          1           0        2.448385   -2.081960   -5.187525
     73          1           0        2.459238   -0.250903   -5.435854
     74          1           0        1.002169   -1.100374   -5.552488
     75          1           0       -0.153253   -2.032328   -2.049635
     76          1           0        1.017970   -2.483783   -0.801322
     77          1           0        0.461066   -4.606729   -1.294804
     78          1           0        1.088781   -4.482443   -2.904295
     79          1           0        0.079888    4.890566   -3.610042
     80          1           0        0.689475    3.781252   -4.656440
     81          1           0        1.447745    5.407926   -4.608836
     82          1           0        3.922224    7.352332   -0.952570
     83          1           0        2.701406    7.014822    0.329949
     84          1           0        2.488310    8.390329   -0.708508
     85          1           0        4.699822    4.593212    2.869663
     86          1           0        7.252377    3.141575    3.012408
     87          1           0        6.064253    6.258477    2.580466
     88          1           0        6.513131    5.672752    0.869801
     89          1           0        7.476384    5.336193    2.284125
     90          1           0        4.999447    1.912347    4.380810
     91          1           0        5.187208    3.571208    4.827805
     92          1           0        6.742359    1.821562    6.177994
     93          1           0        7.046066    3.588871    5.900059
     94          1           0        7.819735    2.347434    4.984678
     95          1           0        7.615883   -1.705014    3.261520
     96          1           0        7.717920   -3.131988    2.095014
     97          1           0        6.460997   -2.970716    3.448262
     98          1           0        4.534358   -4.196400   -1.647321
     99          1           0        1.699060   -7.462543   -1.445161
    100          1           0        1.277921   -6.593449   -0.006360
    101          1           0        2.792233   -7.628674   -0.101940
    102          1           0       -3.494632   -5.782522   -1.992952
    103          1           0       -3.661712   -4.143910   -2.680274
    104          1           0       -4.713637   -3.664017   -0.809847
    105          1           0       -3.865538   -6.837821    1.698640
    106          1           0       -2.259457   -6.175068    1.150722
    107          1           0       -3.386919   -7.028854    0.016245
    108          1           0       -4.796304   -5.070408    2.650348
    109          1           0       -6.041369   -5.130782    1.417139
    110          1           0       -5.207462   -2.596883    0.936762
    111          1           0       -4.395646   -2.754291    2.418721
    112          1           0       -6.773044   -3.805154    3.123829
    113          1           0       -7.270744   -2.673457    1.735537
    114          1           0       -5.638130   -1.176401    3.431963
    115          1           0       -5.504671   -2.074940    5.563867
    116          1           0       -6.549732   -3.305250    5.164853
    117          1           0       -7.266299   -1.730149    5.666403
    118          1           0       -7.964622   -0.245700    4.316598
    119          1           0       -8.740896   -1.194782    3.126651
    120          1           0       -8.066661    0.185990    1.277919
    121          1           0       -6.456474    0.205641    2.050397
    122          1           0       -7.196080    1.966613    3.590530
    123          1           0       -8.767764    1.952758    2.739224
    124          1           0       -6.647018    2.122636    0.809062
    125          1           0       -5.081174    2.360498    2.618615
    126          1           0       -5.772963    4.053577    2.840606
    127          1           0       -5.124318    3.478253    1.271524
    128          1           0       -7.514253    4.786313    1.151502
    129          1           0       -8.842679    3.735037    1.695499
    130          1           0       -7.386781    3.024455   -0.845355
    131          1           0       -8.329830    4.497744   -0.814398
    132          1           0       -9.911994    2.374073    0.161910
    133          1           0       -9.324433    1.983938   -1.428188
    134          1           0      -10.527967    4.663752   -1.093421
    135          1           0      -12.548171    4.116082   -0.193078
    136          1           0      -12.061385    2.355272   -0.468105
    137          1           0      -12.996500    3.254922   -1.616654
    138          1           0      -11.432116    2.826164   -3.301293
    139          1           0       -9.704848    3.358697   -3.231780
    140          1           0      -11.141229    4.499806   -3.311286
 ---------------------------------------------------------------------

 SCF Done:  E(RwB97XD) =  -3007.84947457     A.U. after   18 cycles

 Excitation energies and oscillator strengths:

 Excited State   1:      Singlet-A      1.6668 eV  743.86 nm  f=0.3915  <S**2>=0.000
     245 -> 248       -0.18551
     246 -> 247        0.68335
     245 <- 248       -0.11854
 This state for optimization and/or second-order correction.
 Total Energy, E(TD-HF/TD-DFT) =  -3007.78822222
 Copying the excited state density for this state as the 1-particle RhoCI density.

 Excited State   2:      Singlet-A      2.2581 eV  549.06 nm  f=0.0725  <S**2>=0.000
     245 -> 247        0.61497
     246 -> 248        0.33647

 Excited State   3:      Singlet-A      3.5236 eV  351.87 nm  f=0.5710  <S**2>=0.000
     239 -> 247       -0.13782
     241 -> 247       -0.28189
     245 -> 247       -0.27454
     246 -> 248        0.55348
     245 <- 247        0.10526

 Excited State   4:      Singlet-A      3.6245 eV  342.07 nm  f=0.0265  <S**2>=0.000
     241 -> 247        0.28626
     242 -> 247        0.44035
     243 -> 247       -0.40242
     246 -> 248        0.11786

 Excited State   5:      Singlet-A      3.6908 eV  335.93 nm  f=0.0483  <S**2>=0.000
     239 -> 247        0.36279
     239 -> 249       -0.22464
     240 -> 247        0.42721
     240 -> 249       -0.24012
     246 -> 248        0.13422

 The electronic state is 1-A.
 Alpha  occ. eigenvalues --  -46.95247 -19.30598 -19.30408 -19.24834 -19.24510
 Alpha  occ. eigenvalues --  -19.24379 -19.23081 -14.46779 -14.46430 -14.44354
 Alpha  occ. eigenvalues --  -14.43834 -10.43224 -10.43086 -10.38854 -10.38306
 Alpha  occ. eigenvalues --  -10.35556 -10.35324 -10.35229 -10.34863 -10.34784
 Alpha  occ. eigenvalues --  -10.34605 -10.34439 -10.34329 -10.32883 -10.32690
 Alpha  occ. eigenvalues --  -10.32561 -10.32494 -10.32450 -10.31958 -10.31800
 Alpha  occ. eigenvalues --  -10.31606 -10.31443 -10.31235 -10.31218 -10.30850
 Alpha  occ. eigenvalues --  -10.30782 -10.30780 -10.30611 -10.30591 -10.30388
 Alpha  occ. eigenvalues --  -10.30204 -10.30119 -10.30047 -10.30035 -10.29916
 Alpha  occ. eigenvalues --  -10.29628 -10.29482 -10.29381 -10.29365 -10.29354
 Alpha  occ. eigenvalues --  -10.29300 -10.28971 -10.28769 -10.28678 -10.28479
 Alpha  occ. eigenvalues --  -10.28461 -10.28419 -10.28317 -10.28314 -10.28242
 Alpha  occ. eigenvalues --  -10.28217 -10.28157 -10.28087 -10.27845 -10.27803
 Alpha  occ. eigenvalues --  -10.27790  -3.21383  -1.94907  -1.94559  -1.94345
 Alpha  occ. eigenvalues --   -1.18906  -1.18244  -1.13893  -1.13539  -1.10461
 Alpha  occ. eigenvalues --   -1.08850  -1.07478  -1.06973  -1.06107  -1.05513
 Alpha  occ. eigenvalues --   -0.94657  -0.92264  -0.91836  -0.91639  -0.91391
 Alpha  occ. eigenvalues --   -0.90363  -0.89961  -0.89615  -0.89175  -0.89044
 Alpha  occ. eigenvalues --   -0.87967  -0.87506  -0.86300  -0.86011  -0.85523
 Alpha  occ. eigenvalues --   -0.84424  -0.83920  -0.83277  -0.82962  -0.82450
 Alpha  occ. eigenvalues --   -0.81844  -0.80386  -0.79681  -0.79043  -0.78676
 Alpha  occ. eigenvalues --   -0.77406  -0.77176  -0.77005  -0.76595  -0.75678
 Alpha  occ. eigenvalues --   -0.74914  -0.74278  -0.73882  -0.71669  -0.71283
 Alpha  occ. eigenvalues --   -0.70734  -0.69671  -0.69333  -0.68524  -0.67931
 Alpha  occ. eigenvalues --   -0.67755  -0.67110  -0.66556  -0.66351  -0.66187
 Alpha  occ. eigenvalues --   -0.65143  -0.64723  -0.64473  -0.63765  -0.62487
 Alpha  occ. eigenvalues --   -0.62060  -0.61511  -0.60921  -0.60485  -0.60110
 Alpha  occ. eigenvalues --   -0.59893  -0.59382  -0.58616  -0.58104  -0.57777
 Alpha  occ. eigenvalues --   -0.57294  -0.56552  -0.56419  -0.56320  -0.55946
 Alpha  occ. eigenvalues --   -0.55629  -0.55375  -0.55111  -0.54868  -0.54666
 Alpha  occ. eigenvalues --   -0.54347  -0.53914  -0.53877  -0.53842  -0.53499
 Alpha  occ. eigenvalues --   -0.53455  -0.52979  -0.52811  -0.52759  -0.52493
 Alpha  occ. eigenvalues --   -0.52338  -0.52168  -0.52058  -0.51985  -0.51651
 Alpha  occ. eigenvalues --   -0.51357  -0.51336  -0.51023  -0.50982  -0.50813
 Alpha  occ. eigenvalues --   -0.50635  -0.50394  -0.50115  -0.49940  -0.49873
 Alpha  occ. eigenvalues --   -0.49464  -0.49152  -0.48904  -0.48829  -0.48733
 Alpha  occ. eigenvalues --   -0.48659  -0.48308  -0.47927  -0.47710  -0.47587
 Alpha  occ. eigenvalues --   -0.47212  -0.47003  -0.46883  -0.46822  -0.46804
 Alpha  occ. eigenvalues --   -0.46643  -0.46545  -0.46335  -0.46200  -0.46024
 Alpha  occ. eigenvalues --   -0.45915  -0.45660  -0.45333  -0.45001  -0.44740
 Alpha  occ. eigenvalues --   -0.44440  -0.44382  -0.44337  -0.44219  -0.44127
 Alpha  occ. eigenvalues --   -0.43943  -0.43645  -0.43421  -0.43237  -0.42968
 Alpha  occ. eigenvalues --   -0.42742  -0.42726  -0.42463  -0.42315  -0.41870
 Alpha  occ. eigenvalues --   -0.41489  -0.41308  -0.40642  -0.40562  -0.40166
 Alpha  occ. eigenvalues --   -0.39930  -0.39898  -0.39663  -0.39264  -0.39168
 Alpha  occ. eigenvalues --   -0.38909  -0.38790  -0.38449  -0.38401  -0.37896
 Alpha  occ. eigenvalues --   -0.37658  -0.37354  -0.36976  -0.36696  -0.36604
 Alpha  occ. eigenvalues --   -0.35965  -0.35154  -0.34981  -0.33506  -0.33376
 Alpha  occ. eigenvalues --   -0.32842  -0.32273  -0.32042  -0.31392  -0.26292
 Alpha  occ. eigenvalues --   -0.22654
 Alpha virt. eigenvalues --   -0.06688   0.00269   0.02899   0.04208   0.05054
 Alpha virt. eigenvalues --    0.05917   0.07090   0.07331   0.08233   0.09877
 Alpha virt. eigenvalues --    0.10858   0.12028   0.12297   0.12775   0.12976

 Mulliken charges:
               1
     1  Mg   0.979333
     2  C   -0.034464
     3  C   -0.090684
     4  C   -0.075546
     5  C   -0.105976
     6  N   -0.289126
     7  C   -0.009425
     8  C   -0.151392
     9  C   -0.063543
    10  C    0.033817
    11  C    0.033585
    12  C    0.032184
    13  C   -0.010036
    14  C    0.213520
    15  O   -0.290716
    16  O   -0.334894
    17  N   -0.476612
    18  C    0.151381
    19  C   -0.155404
    20  C   -0.077187
    21  C    0.176850
    22  C    0.089760
    23  C    0.018478
    24  O   -0.211432
    25  C    0.004011
    26  N   -0.361669
    27  C    0.055778
    28  C   -0.094075
    29  C   -0.069926
    30  C    0.062936
    31  C    0.025122
    32  C   -0.007426
    33  C   -0.066742
    34  N   -0.427912
    35  C    0.135505
    36  C   -0.203013
    37  C   -0.060009
    38  C    0.173215
    39  C    0.108223
    40  C    0.099580
    41  O   -0.181953
    42  C   -0.020689
    43  C    0.232218
    44  O   -0.250103
    45  O   -0.367416
    46  C    0.126382
    47  C    0.258142
    48  C   -0.190981
    49  C   -0.199924
    50  C    0.068909
    51  C    0.014470
    52  C   -0.043525
    53  C    0.054664
    54  C   -0.214775
    55  C   -0.015727
    56  C    0.018932
    57  C   -0.043746
    58  C   -0.002509
    59  C   -0.218575
    60  C    0.025327
    61  C    0.035930
    62  C   -0.053300
    63  C    0.003665
    64  C   -0.189911
    65  C   -0.009781
    66  C    0.003375
    67  H   -0.003666
    68  H   -0.041403
    69  H    0.001679
    70  H    0.031477
    71  H    0.046789
    72  H    0.050704
    73  H    0.032539
    74  H    0.037746
    75  H    0.039137
    76  H    0.076938
    77  H    0.054058
    78  H    0.050417
    79  H    0.050733
    80  H    0.013589
    81  H    0.061697
    82  H    0.054076
    83  H    0.060362
    84  H    0.049851
    85  H    0.043522
    86  H    0.023760
    87  H    0.039161
    88  H    0.049542
    89  H    0.029944
    90  H    0.045757
    91  H    0.028184
    92  H    0.045061
    93  H    0.043341
    94  H    0.023153
    95  H    0.024665
    96  H    0.076083
    97  H    0.067634
    98  H    0.065491
    99  H    0.042798
   100  H    0.073201
   101  H    0.066118
   102  H    0.032306
   103  H    0.049146
   104  H    0.021487
   105  H    0.025736
   106  H    0.075061
   107  H    0.034989
   108  H    0.023506
   109  H    0.047063
   110  H    0.022380
   111  H    0.024036
   112  H    0.018562
   113  H    0.030235
   114  H    0.026444
   115  H    0.029783
   116  H    0.013675
   117  H    0.036125
   118  H    0.011320
   119  H    0.019596
   120  H    0.030384
   121  H    0.010783
   122  H    0.008397
   123  H    0.017022
   124  H    0.008781
   125  H    0.031253
   126  H    0.033077
   127  H    0.024269
   128  H    0.012407
   129  H    0.015609
   130  H    0.022375
   131  H    0.009425
   132  H    0.004088
   133  H    0.016925
   134  H    0.018504
   135  H    0.036626
   136  H    0.026509
   137  H    0.025007
   138  H    0.026043
   139  H    0.033656
   140  H    0.028103
 Sum of Mulliken charges =  -0.00000

 Dipole moment (field-independent basis, Debye):
    X=              2.5584    Y=              0.6312    Z=              2.6599  Tot=              3.7442
 Quadrupole moment (field-independent basis, Debye-Ang):
   XX=           -368.9291   YY=           -409.0455   ZZ=           -400.4461
   XY=             31.0169   XZ=              6.8292   YZ=             16.7295

 Normal termination of Gaussian 16 at Wed May  4 21:17:57 2022.
