 Gaussian 16, Revision A.03,
 Gaussian 16:  ES64L-G16RevA.03 25-Dec-2016

 --------------------
 #p ZINDO=(nstates=5)
 --------------------

 -----------------------------
 step_351_chromophore_20 ZINDO
 -----------------------------
 Symbolic Z-matrix:
 Charge =  0 Multiplicity = 1

                         Standard orientation:
 ---------------------------------------------------------------------
 Center     Atomic      Atomic             Coordinates (Angstroms)
 Number     Number       Type             X           Y           Z
 ---------------------------------------------------------------------
      1         12           0        4.167875    1.286223   -0.661725
      2          6           0        3.758499   -2.243119   -0.854343
      3          6           0        1.902882    1.628809   -3.130317
      4          6           0        3.942123    4.359860    0.215720
      5          6           0        6.240005    0.615334    2.214493
      6          7           0        2.747005   -0.168303   -1.628997
      7          6           0        2.889485   -1.470977   -1.721522
      8          6           0        1.931872   -2.091142   -2.734805
      9          6           0        1.476730   -0.892503   -3.561174
     10          6           0        2.113772    0.295048   -2.754424
     11          6           0        1.954383   -1.124216   -5.022723
     12          6           0        0.744244   -2.617937   -1.847942
     13          6           0        0.383052   -4.022267   -2.211838
     14          6           0       -1.069342   -4.173959   -2.709641
     15          8           0       -1.473050   -4.052455   -3.885542
     16          8           0       -1.839169   -4.534953   -1.643030
     17          7           0        3.032117    2.767448   -1.381482
     18          6           0        2.246663    2.810776   -2.475385
     19          6           0        1.926818    4.140906   -2.850088
     20          6           0        2.399389    4.954773   -1.790564
     21          6           0        3.203921    4.049368   -0.955836
     22          6           0        1.044379    4.587180   -4.015386
     23          6           0        2.199486    6.477973   -1.688676
     24          8           0        1.478288    7.066377   -2.434597
     25          6           0        2.865200    7.368343   -0.687989
     26          7           0        4.822416    2.311519    1.073514
     27          6           0        4.778889    3.606086    1.032533
     28          6           0        5.523531    4.251914    2.242886
     29          6           0        6.172502    3.010400    2.945931
     30          6           0        5.789779    1.917332    1.990269
     31          6           0        6.451179    5.467273    1.938788
     32          6           0        5.730852    2.720075    4.417702
     33          6           0        6.867236    2.615519    5.442378
     34          7           0        4.950668   -0.391805    0.282942
     35          6           0        5.791160   -0.488422    1.417355
     36          6           0        6.166430   -1.886777    1.683856
     37          6           0        5.381600   -2.545944    0.763884
     38          6           0        4.667231   -1.640229   -0.044872
     39          6           0        7.091948   -2.482210    2.705542
     40          6           0        5.093337   -3.898919    0.395390
     41          8           0        5.548248   -4.935588    0.792624
     42          6           0        4.062594   -3.815356   -0.741037
     43          6           0        2.944397   -4.669988   -0.434061
     44          8           0        2.185914   -4.437404    0.490911
     45          8           0        2.923450   -5.848642   -1.156403
     46          6           0        2.129614   -6.922527   -0.602598
     47          6           0       -3.246430   -4.729282   -1.859836
     48          6           0       -4.035159   -4.478157   -0.555473
     49          6           0       -4.072371   -5.166569    0.617662
     50          6           0       -3.296482   -6.382332    0.888185
     51          6           0       -5.078290   -4.687326    1.670208
     52          6           0       -5.238513   -3.168372    1.864489
     53          6           0       -6.576153   -2.904554    2.543153
     54          6           0       -6.554628   -1.755625    3.540991
     55          6           0       -6.478090   -2.218823    5.094164
     56          6           0       -7.791479   -0.704480    3.343267
     57          6           0       -7.528728    0.310037    2.218018
     58          6           0       -7.698463    1.762485    2.645023
     59          6           0       -6.960062    2.743808    1.648539
     60          6           0       -5.640864    3.190564    2.187388
     61          6           0       -7.951110    3.791109    1.070127
     62          6           0       -8.259901    3.495204   -0.392960
     63          6           0       -9.619306    2.816861   -0.790467
     64          6           0      -10.760409    3.644386   -1.404478
     65          6           0      -12.193628    3.352658   -0.886309
     66          6           0      -10.729042    3.568188   -2.922998
     67          1           0        1.217400    1.715228   -3.975683
     68          1           0        3.962294    5.417708    0.486855
     69          1           0        6.921530    0.453191    3.052169
     70          1           0        2.326403   -2.925179   -3.314277
     71          1           0        0.395498   -0.773236   -3.481002
     72          1           0        2.448385   -2.081960   -5.187525
     73          1           0        2.459238   -0.250903   -5.435854
     74          1           0        1.002169   -1.100374   -5.552488
     75          1           0       -0.153253   -2.032328   -2.049635
     76          1           0        1.017970   -2.483783   -0.801322
     77          1           0        0.461066   -4.606729   -1.294804
     78          1           0        1.088781   -4.482443   -2.904295
     79          1           0        0.079888    4.890566   -3.610042
     80          1           0        0.689475    3.781252   -4.656440
     81          1           0        1.447745    5.407926   -4.608836
     82          1           0        3.922224    7.352332   -0.952570
     83          1           0        2.701406    7.014822    0.329949
     84          1           0        2.488310    8.390329   -0.708508
     85          1           0        4.699822    4.593212    2.869663
     86          1           0        7.252377    3.141575    3.012408
     87          1           0        6.064253    6.258477    2.580466
     88          1           0        6.513131    5.672752    0.869801
     89          1           0        7.476384    5.336193    2.284125
     90          1           0        4.999447    1.912347    4.380810
     91          1           0        5.187208    3.571208    4.827805
     92          1           0        6.742359    1.821562    6.177994
     93          1           0        7.046066    3.588871    5.900059
     94          1           0        7.819735    2.347434    4.984678
     95          1           0        7.615883   -1.705014    3.261520
     96          1           0        7.717920   -3.131988    2.095014
     97          1           0        6.460997   -2.970716    3.448262
     98          1           0        4.534358   -4.196400   -1.647321
     99          1           0        1.699060   -7.462543   -1.445161
    100          1           0        1.277921   -6.593449   -0.006360
    101          1           0        2.792233   -7.628674   -0.101940
    102          1           0       -3.494632   -5.782522   -1.992952
    103          1           0       -3.661712   -4.143910   -2.680274
    104          1           0       -4.713637   -3.664017   -0.809847
    105          1           0       -3.865538   -6.837821    1.698640
    106          1           0       -2.259457   -6.175068    1.150722
    107          1           0       -3.386919   -7.028854    0.016245
    108          1           0       -4.796304   -5.070408    2.650348
    109          1           0       -6.041369   -5.130782    1.417139
    110          1           0       -5.207462   -2.596883    0.936762
    111          1           0       -4.395646   -2.754291    2.418721
    112          1           0       -6.773044   -3.805154    3.123829
    113          1           0       -7.270744   -2.673457    1.735537
    114          1           0       -5.638130   -1.176401    3.431963
    115          1           0       -5.504671   -2.074940    5.563867
    116          1           0       -6.549732   -3.305250    5.164853
    117          1           0       -7.266299   -1.730149    5.666403
    118          1           0       -7.964622   -0.245700    4.316598
    119          1           0       -8.740896   -1.194782    3.126651
    120          1           0       -8.066661    0.185990    1.277919
    121          1           0       -6.456474    0.205641    2.050397
    122          1           0       -7.196080    1.966613    3.590530
    123          1           0       -8.767764    1.952758    2.739224
    124          1           0       -6.647018    2.122636    0.809062
    125          1           0       -5.081174    2.360498    2.618615
    126          1           0       -5.772963    4.053577    2.840606
    127          1           0       -5.124318    3.478253    1.271524
    128          1           0       -7.514253    4.786313    1.151502
    129          1           0       -8.842679    3.735037    1.695499
    130          1           0       -7.386781    3.024455   -0.845355
    131          1           0       -8.329830    4.497744   -0.814398
    132          1           0       -9.911994    2.374073    0.161910
    133          1           0       -9.324433    1.983938   -1.428188
    134          1           0      -10.527967    4.663752   -1.093421
    135          1           0      -12.548171    4.116082   -0.193078
    136          1           0      -12.061385    2.355272   -0.468105
    137          1           0      -12.996500    3.254922   -1.616654
    138          1           0      -11.432116    2.826164   -3.301293
    139          1           0       -9.704848    3.358697   -3.231780
    140          1           0      -11.141229    4.499806   -3.311286
 ---------------------------------------------------------------------

 SCF Done:  E(RZINDO/S) =  -474.706316308     A.U. after   19 cycles

 Excitation energies and oscillator strengths:

 Excited State   1:      Singlet-A      1.2421 eV  998.20 nm  f=0.5804  <S**2>=0.000
     175 ->178        -0.19720
     176 ->177         0.66203
 This state for optimization and/or second-order correction.
 Total Energy, E(CIS/TDA) =  -474.660670982
 Copying the excited state density for this state as the 1-particle RhoCI density.

 Excited State   2:      Singlet-A      1.8962 eV  653.85 nm  f=0.0148  <S**2>=0.000
     175 ->177         0.51832
     176 ->178         0.45909

 Excited State   3:      Singlet-A      2.8780 eV  430.80 nm  f=0.0414  <S**2>=0.000
     176 ->178        -0.10905
     176 ->179        -0.13763
     176 ->180         0.67213

 Excited State   4:      Singlet-A      2.9524 eV  419.95 nm  f=0.1455  <S**2>=0.000
     168 ->179         0.11804
     169 ->177         0.35681
     169 ->179         0.39342
     169 ->183        -0.15496
     169 ->186        -0.16233
     169 ->195         0.10917
     175 ->177         0.13665
     176 ->178        -0.16950

 Excited State   5:      Singlet-A      2.9757 eV  416.65 nm  f=0.1123  <S**2>=0.000
     170 ->177         0.22016
     170 ->179        -0.19951
     170 ->181         0.25789
     170 ->182         0.18554
     170 ->183        -0.22323
     170 ->184        -0.11776
     170 ->186         0.19046
     170 ->188        -0.18593
     175 ->177        -0.12870
     176 ->178         0.15969
     176 ->179        -0.18799

 The electronic state is 1-A.
 Alpha  occ. eigenvalues --   -1.86556  -1.83362  -1.82592  -1.74890  -1.74092
 Alpha  occ. eigenvalues --   -1.71466  -1.65174  -1.61557  -1.60684  -1.60472
 Alpha  occ. eigenvalues --   -1.55518  -1.51536  -1.49830  -1.49042  -1.47880
 Alpha  occ. eigenvalues --   -1.44573  -1.43280  -1.39991  -1.39304  -1.38328
 Alpha  occ. eigenvalues --   -1.36162  -1.35058  -1.33025  -1.32100  -1.28705
 Alpha  occ. eigenvalues --   -1.27539  -1.26316  -1.22857  -1.22003  -1.19591
 Alpha  occ. eigenvalues --   -1.18426  -1.15005  -1.14956  -1.13551  -1.13154
 Alpha  occ. eigenvalues --   -1.12302  -1.10762  -1.09544  -1.05318  -1.04854
 Alpha  occ. eigenvalues --   -1.01422  -1.00161  -0.98244  -0.97385  -0.97244
 Alpha  occ. eigenvalues --   -0.95919  -0.95551  -0.94263  -0.93432  -0.91183
 Alpha  occ. eigenvalues --   -0.90839  -0.90060  -0.89692  -0.89076  -0.87238
 Alpha  occ. eigenvalues --   -0.86078  -0.85532  -0.82915  -0.82381  -0.80845
 Alpha  occ. eigenvalues --   -0.79228  -0.77882  -0.76914  -0.76646  -0.76081
 Alpha  occ. eigenvalues --   -0.75630  -0.75057  -0.74822  -0.74488  -0.73704
 Alpha  occ. eigenvalues --   -0.73094  -0.72243  -0.71855  -0.71513  -0.71084
 Alpha  occ. eigenvalues --   -0.70119  -0.69190  -0.68879  -0.68299  -0.67702
 Alpha  occ. eigenvalues --   -0.67483  -0.66414  -0.66329  -0.65825  -0.65306
 Alpha  occ. eigenvalues --   -0.64988  -0.64939  -0.64624  -0.64423  -0.63990
 Alpha  occ. eigenvalues --   -0.63149  -0.62779  -0.62623  -0.62414  -0.62294
 Alpha  occ. eigenvalues --   -0.61972  -0.61095  -0.60863  -0.60607  -0.60231
 Alpha  occ. eigenvalues --   -0.59926  -0.58295  -0.58129  -0.57857  -0.57527
 Alpha  occ. eigenvalues --   -0.57287  -0.56983  -0.56765  -0.56566  -0.56210
 Alpha  occ. eigenvalues --   -0.55738  -0.55668  -0.55522  -0.55418  -0.54954
 Alpha  occ. eigenvalues --   -0.53912  -0.53637  -0.53454  -0.53195  -0.52931
 Alpha  occ. eigenvalues --   -0.52276  -0.52130  -0.51961  -0.51432  -0.51227
 Alpha  occ. eigenvalues --   -0.50881  -0.50792  -0.50640  -0.50495  -0.50390
 Alpha  occ. eigenvalues --   -0.50112  -0.49860  -0.49554  -0.48997  -0.48604
 Alpha  occ. eigenvalues --   -0.48510  -0.48323  -0.47568  -0.47405  -0.47302
 Alpha  occ. eigenvalues --   -0.47083  -0.46926  -0.46693  -0.46581  -0.46381
 Alpha  occ. eigenvalues --   -0.46076  -0.45781  -0.45552  -0.45259  -0.45164
 Alpha  occ. eigenvalues --   -0.44906  -0.44494  -0.44248  -0.43790  -0.43673
 Alpha  occ. eigenvalues --   -0.43212  -0.43131  -0.42745  -0.42604  -0.42112
 Alpha  occ. eigenvalues --   -0.41599  -0.40763  -0.40469  -0.39214  -0.38800
 Alpha  occ. eigenvalues --   -0.38387  -0.37729  -0.35452  -0.35323  -0.34089
 Alpha  occ. eigenvalues --   -0.33946  -0.32553  -0.32288  -0.31602  -0.26776
 Alpha  occ. eigenvalues --   -0.21485
 Alpha virt. eigenvalues --   -0.08220  -0.02178  -0.00271   0.00849   0.01467
 Alpha virt. eigenvalues --    0.01944   0.02299   0.02995   0.05002   0.05059
 Alpha virt. eigenvalues --    0.06346   0.06549   0.07591   0.07970   0.08552

 Mulliken charges:
               1
     1  Mg   0.437831
     2  C   -0.083038
     3  C   -0.065778
     4  C   -0.095413
     5  C   -0.080622
     6  N   -0.266249
     7  C    0.175354
     8  C   -0.003166
     9  C   -0.000702
    10  C    0.091303
    11  C   -0.057517
    12  C   -0.019108
    13  C    0.004608
    14  C    0.467908
    15  O   -0.535219
    16  O   -0.252314
    17  N   -0.314264
    18  C    0.104969
    19  C    0.021647
    20  C   -0.061072
    21  C    0.110721
    22  C   -0.039928
    23  C    0.326951
    24  O   -0.515153
    25  C   -0.023840
    26  N   -0.260063
    27  C    0.131675
    28  C   -0.006873
    29  C    0.001161
    30  C    0.127013
    31  C   -0.053503
    32  C   -0.028332
    33  C   -0.054228
    34  N   -0.333244
    35  C    0.101099
    36  C    0.039582
    37  C   -0.049102
    38  C    0.142009
    39  C   -0.033100
    40  C    0.342263
    41  O   -0.514268
    42  C    0.057212
    43  C    0.497304
    44  O   -0.534257
    45  O   -0.274254
    46  C    0.078121
    47  C    0.095087
    48  C   -0.104631
    49  C    0.002422
    50  C   -0.037364
    51  C   -0.019059
    52  C   -0.033471
    53  C   -0.029974
    54  C   -0.022924
    55  C   -0.070854
    56  C   -0.041047
    57  C   -0.036373
    58  C   -0.041222
    59  C   -0.023481
    60  C   -0.050305
    61  C   -0.028418
    62  C   -0.039591
    63  C   -0.032169
    64  C   -0.002850
    65  C   -0.061051
    66  C   -0.053626
    67  H    0.022246
    68  H    0.015277
    69  H    0.038015
    70  H    0.037977
    71  H    0.042508
    72  H    0.033872
    73  H    0.025152
    74  H    0.017236
    75  H    0.030438
    76  H    0.044046
    77  H    0.039326
    78  H    0.038751
    79  H    0.032363
    80  H    0.015013
    81  H    0.042342
    82  H    0.035254
    83  H    0.029672
    84  H    0.036641
    85  H    0.030008
    86  H    0.028968
    87  H    0.022818
    88  H    0.031223
    89  H    0.017344
    90  H    0.030634
    91  H    0.013985
    92  H    0.022845
    93  H    0.022898
    94  H    0.010790
    95  H    0.023350
    96  H    0.049852
    97  H    0.044125
    98  H    0.048716
    99  H    0.022915
   100  H    0.053835
   101  H    0.046297
   102  H    0.039442
   103  H    0.054475
   104  H    0.022544
   105  H    0.019969
   106  H    0.043922
   107  H    0.027363
   108  H    0.017430
   109  H    0.028062
   110  H    0.019389
   111  H    0.019718
   112  H    0.025076
   113  H    0.025770
   114  H    0.021466
   115  H    0.019070
   116  H    0.013976
   117  H    0.025204
   118  H    0.018807
   119  H    0.015000
   120  H    0.028137
   121  H    0.014466
   122  H    0.016285
   123  H    0.018468
   124  H    0.010939
   125  H    0.023235
   126  H    0.022669
   127  H    0.010992
   128  H    0.017144
   129  H    0.021816
   130  H    0.025663
   131  H    0.004729
   132  H    0.011222
   133  H    0.015675
   134  H    0.015441
   135  H    0.021070
   136  H    0.019653
   137  H    0.019099
   138  H    0.018816
   139  H    0.023157
   140  H    0.014688
 Sum of Mulliken charges =  -0.00000

 Dipole moment (field-independent basis, Debye):
    X=              4.7088    Y=             -0.6852    Z=              2.9388  Tot=              5.5927
 N-N= 4.477660956954D+03 E-N= 0.000000000000D+00  KE=-9.630276249557D+03
 Leave Link  601 at Wed May  4 21:52:03 2022, MaxMem=  6710886400 cpu:               0.8 elap:               0.1
 (Enter /sw/apps/gaussian-16.0/g16/l9999.exe)
 1\1\GINC-BP1-COMPUTE141\SP\RZINDO CIS\STO-3G\C55H74Mg1N4O6\OF15641\04-
 May-2022\0\\#p ZINDO=(nstates=5)\\step_351_chromophore_20 ZINDO\\0,1\M
 g,0,6.73,56.882,41.733\C,0,5.547,53.579,41.14\C,0,9.715,55.983,40.459\
 C,0,7.357,60.013,41.465\C,0,3.328,57.641,42.664\N,0,7.411,55.053,40.61
 \C,0,6.894,53.847,40.674\C,0,7.809,52.788,40.066\C,0,9.162,53.49,40.00
 8\C,0,8.767,54.951,40.428\C,0,10.137,52.702,40.928\C,0,7.238,52.595,38
 .613\C,0,7.076,51.145,38.287\C,0,7.919,50.689,37.078\O,0,9.097,50.274,

 Normal termination of Gaussian 16 at Wed May  4 21:52:03 2022.
