 Gaussian 16, Revision A.03,
 Gaussian 16:  ES64L-G16RevA.03 25-Dec-2016

 ------------------------------
 #p blyp/Def2SVP td=(nstates=5)
 ------------------------------

 ---------------------------------------------------
 step_1751_chromophore_20 TDDFT with blyp functional
 ---------------------------------------------------
 Symbolic Z-matrix:
 Charge =  0 Multiplicity = 1

                         Standard orientation:
 ---------------------------------------------------------------------
 Center     Atomic      Atomic             Coordinates (Angstroms)
 Number     Number       Type             X           Y           Z
 ---------------------------------------------------------------------
      1         12           0        4.343860    0.862716   -0.767049
      2          6           0        3.514047   -2.540921   -0.562767
      3          6           0        1.975403    1.269137   -3.065500
      4          6           0        4.656704    4.109215   -0.107332
      5          6           0        6.696549    0.226427    1.861170
      6          7           0        3.005136   -0.529234   -1.767925
      7          6           0        2.657029   -1.827180   -1.468581
      8          6           0        1.641238   -2.368193   -2.517866
      9          6           0        1.559248   -1.205123   -3.509426
     10          6           0        2.243334   -0.030704   -2.747741
     11          6           0        2.216926   -1.338954   -4.904162
     12          6           0        0.234299   -2.761429   -1.930522
     13          6           0       -0.588989   -3.774017   -2.626058
     14          6           0       -1.735655   -4.338099   -1.688673
     15          8           0       -1.534422   -4.486323   -0.520779
     16          8           0       -2.909027   -4.631846   -2.375682
     17          7           0        3.481646    2.490070   -1.536190
     18          6           0        2.529865    2.476274   -2.510815
     19          6           0        2.180181    3.823779   -2.871383
     20          6           0        2.887883    4.674075   -1.951307
     21          6           0        3.708873    3.776755   -1.076388
     22          6           0        1.299246    4.213686   -3.963930
     23          6           0        2.728822    6.135271   -1.960428
     24          8           0        2.233125    6.763879   -2.894252
     25          6           0        3.121630    6.912881   -0.647408
     26          7           0        5.379106    2.027316    0.846514
     27          6           0        5.417846    3.355422    0.779681
     28          6           0        6.356744    3.998501    1.845248
     29          6           0        6.985884    2.658277    2.560666
     30          6           0        6.293320    1.602710    1.731192
     31          6           0        7.354823    5.134075    1.351769
     32          6           0        6.789439    2.586959    4.098611
     33          6           0        8.102493    2.353846    4.943218
     34          7           0        5.070449   -0.784104    0.355387
     35          6           0        6.077891   -0.938067    1.330096
     36          6           0        6.334884   -2.341321    1.582195
     37          6           0        5.342859   -3.020888    0.875253
     38          6           0        4.566399   -1.999752    0.163551
     39          6           0        7.363781   -2.888891    2.398928
     40          6           0        4.832324   -4.325274    0.567192
     41          8           0        5.156716   -5.458259    0.955944
     42          6           0        3.575254   -4.055534   -0.417180
     43          6           0        2.322803   -4.585139    0.266927
     44          8           0        1.839849   -4.073624    1.259253
     45          8           0        1.970083   -5.767394   -0.275311
     46          6           0        1.255482   -6.614148    0.640676
     47          6           0       -3.989937   -5.058944   -1.605431
     48          6           0       -4.664844   -3.857261   -1.014554
     49          6           0       -4.974612   -3.350319    0.181272
     50          6           0       -4.490340   -4.027933    1.544363
     51          6           0       -5.759853   -2.044547    0.175617
     52          6           0       -4.842926   -0.880847    0.753213
     53          6           0       -4.842693   -0.667067    2.328993
     54          6           0       -5.585740    0.658169    2.784512
     55          6           0       -4.697242    1.853224    3.249017
     56          6           0       -6.621638    0.248886    3.870668
     57          6           0       -8.015511   -0.074079    3.312235
     58          6           0       -9.085968    1.000551    3.680439
     59          6           0       -9.353112    2.042223    2.524581
     60          6           0       -9.854601    3.430193    3.122690
     61          6           0      -10.237408    1.537213    1.365177
     62          6           0       -9.480120    1.324603    0.049854
     63          6           0      -10.205339    1.784648   -1.210822
     64          6           0       -9.492074    2.949622   -1.918376
     65          6           0      -10.502855    3.686873   -2.829206
     66          6           0       -8.288312    2.568491   -2.690697
     67          1           0        1.213800    1.429341   -3.831762
     68          1           0        4.901040    5.148818    0.120702
     69          1           0        7.514050    0.015879    2.554935
     70          1           0        2.105326   -3.179826   -3.078786
     71          1           0        0.494335   -1.035883   -3.671241
     72          1           0        2.703068   -2.306148   -5.035391
     73          1           0        2.976123   -0.557395   -4.889475
     74          1           0        1.457492   -1.144734   -5.661034
     75          1           0       -0.392461   -1.874191   -2.017730
     76          1           0        0.414146   -3.060093   -0.897042
     77          1           0        0.183385   -4.501555   -2.872443
     78          1           0       -0.891256   -3.431900   -3.615822
     79          1           0        0.407747    4.585325   -3.458450
     80          1           0        1.143333    3.363942   -4.628832
     81          1           0        1.741339    4.996658   -4.579500
     82          1           0        2.827291    6.296445    0.202186
     83          1           0        2.563273    7.848238   -0.640073
     84          1           0        4.178895    7.180611   -0.653813
     85          1           0        5.783498    4.516107    2.613693
     86          1           0        8.044322    2.650576    2.300761
     87          1           0        7.238149    6.105096    1.832115
     88          1           0        7.381700    5.126446    0.262006
     89          1           0        8.275743    4.675817    1.711544
     90          1           0        6.157140    1.715358    4.267484
     91          1           0        6.275110    3.508253    4.370153
     92          1           0        8.955492    2.288618    4.267399
     93          1           0        8.068636    1.452965    5.556247
     94          1           0        8.252000    3.326096    5.412988
     95          1           0        7.093499   -2.955113    3.452511
     96          1           0        8.217369   -2.217723    2.308533
     97          1           0        7.621425   -3.861191    1.977969
     98          1           0        3.699046   -4.614421   -1.344686
     99          1           0        0.556667   -6.066164    1.272597
    100          1           0        1.908722   -7.281507    1.204461
    101          1           0        0.620806   -7.242235    0.015896
    102          1           0       -3.783445   -5.855541   -0.890150
    103          1           0       -4.670619   -5.504233   -2.330567
    104          1           0       -5.053797   -3.276940   -1.851577
    105          1           0       -5.319893   -4.564774    2.002758
    106          1           0       -4.155211   -3.206766    2.178624
    107          1           0       -3.620755   -4.647112    1.322913
    108          1           0       -6.641501   -2.136652    0.810020
    109          1           0       -6.004552   -1.681109   -0.822469
    110          1           0       -5.047760    0.052078    0.228137
    111          1           0       -3.816544   -1.144557    0.500559
    112          1           0       -3.800792   -0.648828    2.646459
    113          1           0       -5.429841   -1.509861    2.695110
    114          1           0       -6.072414    1.076447    1.903093
    115          1           0       -4.891396    2.790858    2.729017
    116          1           0       -3.645226    1.647434    3.053993
    117          1           0       -4.950055    2.191180    4.254396
    118          1           0       -6.692447    1.116404    4.526657
    119          1           0       -6.300614   -0.636679    4.418413
    120          1           0       -8.379812   -1.034753    3.675197
    121          1           0       -7.904585   -0.082359    2.229052
    122          1           0       -8.974351    1.493410    4.646099
    123          1           0       -9.939719    0.331184    3.785858
    124          1           0       -8.300708    2.208902    2.295486
    125          1           0       -9.869043    3.333826    4.208682
    126          1           0      -10.843821    3.820702    2.883981
    127          1           0       -9.035931    4.111468    2.888735
    128          1           0      -10.975557    2.286208    1.079483
    129          1           0      -10.623538    0.553202    1.631995
    130          1           0       -9.437589    0.250333   -0.128253
    131          1           0       -8.488084    1.756834    0.178035
    132          1           0      -11.263190    1.881749   -0.964159
    133          1           0      -10.108089    0.921574   -1.868256
    134          1           0       -9.142127    3.679554   -1.189085
    135          1           0      -10.247436    4.743366   -2.749906
    136          1           0      -11.518793    3.536337   -2.463075
    137          1           0      -10.660898    3.319115   -3.842983
    138          1           0       -7.427224    2.990862   -2.174380
    139          1           0       -8.242940    3.035773   -3.674596
    140          1           0       -8.223613    1.484323   -2.779386
 ---------------------------------------------------------------------

 SCF Done:  E(RB-LYP) =  -3007.36080986     A.U. after   21 cycles

 Excitation energies and oscillator strengths:

 Excited State   1:      Singlet-A      1.7928 eV  691.58 nm  f=0.0098  <S**2>=0.000
     244 -> 247        0.69505
     246 -> 247       -0.10826
 This state for optimization and/or second-order correction.
 Total Energy, E(TD-HF/TD-DFT) =  -3007.29492649
 Copying the excited state density for this state as the 1-particle RhoCI density.

 Excited State   2:      Singlet-A      1.8280 eV  678.24 nm  f=0.2769  <S**2>=0.000
     244 -> 247        0.11502
     245 -> 248       -0.21669
     246 -> 247        0.66922
     246 <- 247       -0.13527

 Excited State   3:      Singlet-A      1.9918 eV  622.46 nm  f=0.0595  <S**2>=0.000
     243 -> 247       -0.15996
     245 -> 247        0.62699
     246 -> 248        0.25676

 Excited State   4:      Singlet-A      2.0468 eV  605.74 nm  f=0.0095  <S**2>=0.000
     243 -> 247        0.68515
     245 -> 247        0.13612

 Excited State   5:      Singlet-A      2.4183 eV  512.69 nm  f=0.0001  <S**2>=0.000
     241 -> 247        0.70674

 The electronic state is 1-A.
 Alpha  occ. eigenvalues --  -46.27594 -18.82573 -18.81829 -18.78216 -18.76074
 Alpha  occ. eigenvalues --  -18.75839 -18.75090 -14.03431 -14.03318 -14.01550
 Alpha  occ. eigenvalues --  -14.01108 -10.05073 -10.03018  -9.99993  -9.99226
 Alpha  occ. eigenvalues --   -9.97707  -9.97235  -9.96898  -9.96659  -9.96447
 Alpha  occ. eigenvalues --   -9.96322  -9.96092  -9.95899  -9.95648  -9.94743
 Alpha  occ. eigenvalues --   -9.94738  -9.94347  -9.94304  -9.93703  -9.93590
 Alpha  occ. eigenvalues --   -9.93516  -9.93447  -9.93406  -9.93339  -9.93264
 Alpha  occ. eigenvalues --   -9.93237  -9.93210  -9.93082  -9.92896  -9.92716
 Alpha  occ. eigenvalues --   -9.92678  -9.92523  -9.92338  -9.92320  -9.92249
 Alpha  occ. eigenvalues --   -9.92221  -9.91920  -9.91840  -9.91731  -9.91500
 Alpha  occ. eigenvalues --   -9.91493  -9.91425  -9.91375  -9.91334  -9.91303
 Alpha  occ. eigenvalues --   -9.90869  -9.90845  -9.90770  -9.90672  -9.90669
 Alpha  occ. eigenvalues --   -9.90663  -9.90589  -9.90477  -9.90410  -9.90266
 Alpha  occ. eigenvalues --   -9.90237  -2.92250  -1.72667  -1.72145  -1.71959
 Alpha  occ. eigenvalues --   -0.99336  -0.98244  -0.92599  -0.90612  -0.90479
 Alpha  occ. eigenvalues --   -0.89675  -0.87347  -0.86645  -0.85619  -0.85053
 Alpha  occ. eigenvalues --   -0.74813  -0.73244  -0.73117  -0.72570  -0.72510
 Alpha  occ. eigenvalues --   -0.71878  -0.71774  -0.71648  -0.70714  -0.70338
 Alpha  occ. eigenvalues --   -0.70070  -0.69254  -0.67771  -0.67332  -0.67243
 Alpha  occ. eigenvalues --   -0.66568  -0.65741  -0.64865  -0.64776  -0.64239
 Alpha  occ. eigenvalues --   -0.63692  -0.62696  -0.62210  -0.61342  -0.60533
 Alpha  occ. eigenvalues --   -0.60261  -0.60174  -0.60022  -0.59380  -0.58982
 Alpha  occ. eigenvalues --   -0.58072  -0.57811  -0.56736  -0.55034  -0.54763
 Alpha  occ. eigenvalues --   -0.54010  -0.53269  -0.52954  -0.52049  -0.51776
 Alpha  occ. eigenvalues --   -0.51416  -0.50876  -0.50734  -0.50344  -0.49611
 Alpha  occ. eigenvalues --   -0.49283  -0.48872  -0.48609  -0.48138  -0.46966
 Alpha  occ. eigenvalues --   -0.46604  -0.46289  -0.45879  -0.45359  -0.44567
 Alpha  occ. eigenvalues --   -0.44205  -0.43509  -0.43404  -0.42509  -0.42268
 Alpha  occ. eigenvalues --   -0.42060  -0.42019  -0.41747  -0.41510  -0.41138
 Alpha  occ. eigenvalues --   -0.41048  -0.40707  -0.40594  -0.40446  -0.40259
 Alpha  occ. eigenvalues --   -0.39893  -0.39765  -0.39621  -0.39331  -0.39216
 Alpha  occ. eigenvalues --   -0.39112  -0.38838  -0.38271  -0.38033  -0.37894
 Alpha  occ. eigenvalues --   -0.37801  -0.37721  -0.37572  -0.37477  -0.37317
 Alpha  occ. eigenvalues --   -0.37004  -0.36729  -0.36670  -0.36530  -0.36340
 Alpha  occ. eigenvalues --   -0.36264  -0.36005  -0.35580  -0.35452  -0.35395
 Alpha  occ. eigenvalues --   -0.35201  -0.35198  -0.34958  -0.34870  -0.34763
 Alpha  occ. eigenvalues --   -0.34610  -0.34254  -0.34131  -0.33995  -0.33854
 Alpha  occ. eigenvalues --   -0.33787  -0.33577  -0.33556  -0.33450  -0.33355
 Alpha  occ. eigenvalues --   -0.33089  -0.32758  -0.32622  -0.32521  -0.32410
 Alpha  occ. eigenvalues --   -0.32221  -0.31924  -0.31697  -0.31672  -0.31460
 Alpha  occ. eigenvalues --   -0.31024  -0.30925  -0.30442  -0.30381  -0.30325
 Alpha  occ. eigenvalues --   -0.30130  -0.29973  -0.29870  -0.29747  -0.29581
 Alpha  occ. eigenvalues --   -0.29157  -0.29010  -0.28842  -0.28724  -0.28618
 Alpha  occ. eigenvalues --   -0.28445  -0.28185  -0.28093  -0.27924  -0.27832
 Alpha  occ. eigenvalues --   -0.27548  -0.27507  -0.27005  -0.26863  -0.26529
 Alpha  occ. eigenvalues --   -0.26342  -0.25882  -0.25682  -0.25575  -0.25185
 Alpha  occ. eigenvalues --   -0.24554  -0.24429  -0.24058  -0.23972  -0.23614
 Alpha  occ. eigenvalues --   -0.23435  -0.23285  -0.22333  -0.21149  -0.20957
 Alpha  occ. eigenvalues --   -0.20480  -0.20298  -0.18962  -0.18119  -0.17348
 Alpha  occ. eigenvalues --   -0.16052
 Alpha virt. eigenvalues --   -0.11594  -0.07440  -0.06602  -0.04600  -0.03252
 Alpha virt. eigenvalues --   -0.02949  -0.02247  -0.01593  -0.01167   0.00296
 Alpha virt. eigenvalues --    0.00887   0.01546   0.02018   0.02365   0.02816

 Mulliken charges:
               1
     1  Mg   0.705938
     2  C   -0.018526
     3  C   -0.048806
     4  C   -0.037500
     5  C   -0.075326
     6  N   -0.224340
     7  C   -0.037256
     8  C    0.048308
     9  C   -0.067289
    10  C    0.041386
    11  C    0.156249
    12  C    0.054741
    13  C    0.139436
    14  C    0.114641
    15  O   -0.144940
    16  O   -0.245947
    17  N   -0.343098
    18  C    0.129709
    19  C   -0.159089
    20  C    0.054682
    21  C    0.195291
    22  C    0.211391
    23  C   -0.114006
    24  O   -0.173962
    25  C    0.100503
    26  N   -0.142743
    27  C   -0.052944
    28  C   -0.029969
    29  C    0.012332
    30  C   -0.011456
    31  C    0.134030
    32  C    0.101932
    33  C    0.060836
    34  N   -0.239580
    35  C    0.103187
    36  C   -0.158835
    37  C    0.099110
    38  C    0.116136
    39  C    0.173456
    40  C   -0.033524
    41  O   -0.150920
    42  C    0.023997
    43  C    0.101398
    44  O   -0.181382
    45  O   -0.242007
    46  C    0.205241
    47  C    0.368059
    48  C   -0.141607
    49  C   -0.151908
    50  C    0.126031
    51  C    0.146455
    52  C    0.006652
    53  C    0.094900
    54  C   -0.086186
    55  C    0.103279
    56  C    0.122542
    57  C    0.031121
    58  C    0.075340
    59  C   -0.093750
    60  C    0.095808
    61  C    0.173294
    62  C    0.018940
    63  C    0.116523
    64  C   -0.100014
    65  C    0.108165
    66  C    0.141526
    67  H   -0.065968
    68  H   -0.080712
    69  H   -0.068726
    70  H   -0.036566
    71  H   -0.036471
    72  H   -0.009624
    73  H   -0.006118
    74  H   -0.000883
    75  H   -0.023012
    76  H    0.027910
    77  H   -0.015025
    78  H   -0.026322
    79  H    0.010789
    80  H   -0.022629
    81  H    0.012709
    82  H    0.004673
    83  H   -0.011486
    84  H    0.019541
    85  H   -0.015751
    86  H   -0.018678
    87  H    0.003681
    88  H    0.002580
    89  H   -0.022158
    90  H   -0.010025
    91  H   -0.016737
    92  H   -0.017261
    93  H    0.015084
    94  H   -0.002717
    95  H    0.015432
    96  H   -0.013277
    97  H    0.011550
    98  H   -0.015794
    99  H    0.030134
   100  H    0.021767
   101  H   -0.005408
   102  H   -0.022636
   103  H   -0.025599
   104  H   -0.047674
   105  H    0.003326
   106  H   -0.000541
   107  H    0.009445
   108  H   -0.015476
   109  H   -0.025514
   110  H   -0.023870
   111  H   -0.025497
   112  H   -0.013487
   113  H   -0.016607
   114  H   -0.025680
   115  H   -0.029579
   116  H   -0.014145
   117  H   -0.019874
   118  H   -0.044447
   119  H   -0.026142
   120  H   -0.034672
   121  H   -0.008928
   122  H   -0.027333
   123  H   -0.048401
   124  H   -0.030874
   125  H   -0.033439
   126  H   -0.005658
   127  H   -0.014900
   128  H   -0.028325
   129  H   -0.030508
   130  H   -0.037963
   131  H   -0.024286
   132  H   -0.033357
   133  H   -0.047559
   134  H   -0.036953
   135  H   -0.013352
   136  H   -0.039367
   137  H   -0.018718
   138  H   -0.023220
   139  H   -0.021109
   140  H   -0.017234
 Sum of Mulliken charges =  -0.00000

 Dipole moment (field-independent basis, Debye):
    X=              1.2043    Y=              0.6055    Z=             -0.0326  Tot=              1.3483
 Quadrupole moment (field-independent basis, Debye-Ang):
   XX=           -369.5045   YY=           -433.6609   ZZ=           -399.6122
   XY=             31.3470   XZ=             11.0522   YZ=             31.3348

 Normal termination of Gaussian 16 at Thu Apr 28 22:53:50 2022.
