 Gaussian 16, Revision A.03,
 Gaussian 16:  ES64L-G16RevA.03 25-Dec-2016

 -----------------------------------
 #p cam-b3lyp/Def2SVP td=(nstates=5)
 -----------------------------------

 --------------------------------------------------------
 step_1751_chromophore_20 TDDFT with cam-b3lyp functional
 --------------------------------------------------------
 Symbolic Z-matrix:
 Charge =  0 Multiplicity = 1

                         Standard orientation:
 ---------------------------------------------------------------------
 Center     Atomic      Atomic             Coordinates (Angstroms)
 Number     Number       Type             X           Y           Z
 ---------------------------------------------------------------------
      1         12           0        4.343860    0.862716   -0.767049
      2          6           0        3.514047   -2.540921   -0.562767
      3          6           0        1.975403    1.269137   -3.065500
      4          6           0        4.656704    4.109215   -0.107332
      5          6           0        6.696549    0.226427    1.861170
      6          7           0        3.005136   -0.529234   -1.767925
      7          6           0        2.657029   -1.827180   -1.468581
      8          6           0        1.641238   -2.368193   -2.517866
      9          6           0        1.559248   -1.205123   -3.509426
     10          6           0        2.243334   -0.030704   -2.747741
     11          6           0        2.216926   -1.338954   -4.904162
     12          6           0        0.234299   -2.761429   -1.930522
     13          6           0       -0.588989   -3.774017   -2.626058
     14          6           0       -1.735655   -4.338099   -1.688673
     15          8           0       -1.534422   -4.486323   -0.520779
     16          8           0       -2.909027   -4.631846   -2.375682
     17          7           0        3.481646    2.490070   -1.536190
     18          6           0        2.529865    2.476274   -2.510815
     19          6           0        2.180181    3.823779   -2.871383
     20          6           0        2.887883    4.674075   -1.951307
     21          6           0        3.708873    3.776755   -1.076388
     22          6           0        1.299246    4.213686   -3.963930
     23          6           0        2.728822    6.135271   -1.960428
     24          8           0        2.233125    6.763879   -2.894252
     25          6           0        3.121630    6.912881   -0.647408
     26          7           0        5.379106    2.027316    0.846514
     27          6           0        5.417846    3.355422    0.779681
     28          6           0        6.356744    3.998501    1.845248
     29          6           0        6.985884    2.658277    2.560666
     30          6           0        6.293320    1.602710    1.731192
     31          6           0        7.354823    5.134075    1.351769
     32          6           0        6.789439    2.586959    4.098611
     33          6           0        8.102493    2.353846    4.943218
     34          7           0        5.070449   -0.784104    0.355387
     35          6           0        6.077891   -0.938067    1.330096
     36          6           0        6.334884   -2.341321    1.582195
     37          6           0        5.342859   -3.020888    0.875253
     38          6           0        4.566399   -1.999752    0.163551
     39          6           0        7.363781   -2.888891    2.398928
     40          6           0        4.832324   -4.325274    0.567192
     41          8           0        5.156716   -5.458259    0.955944
     42          6           0        3.575254   -4.055534   -0.417180
     43          6           0        2.322803   -4.585139    0.266927
     44          8           0        1.839849   -4.073624    1.259253
     45          8           0        1.970083   -5.767394   -0.275311
     46          6           0        1.255482   -6.614148    0.640676
     47          6           0       -3.989937   -5.058944   -1.605431
     48          6           0       -4.664844   -3.857261   -1.014554
     49          6           0       -4.974612   -3.350319    0.181272
     50          6           0       -4.490340   -4.027933    1.544363
     51          6           0       -5.759853   -2.044547    0.175617
     52          6           0       -4.842926   -0.880847    0.753213
     53          6           0       -4.842693   -0.667067    2.328993
     54          6           0       -5.585740    0.658169    2.784512
     55          6           0       -4.697242    1.853224    3.249017
     56          6           0       -6.621638    0.248886    3.870668
     57          6           0       -8.015511   -0.074079    3.312235
     58          6           0       -9.085968    1.000551    3.680439
     59          6           0       -9.353112    2.042223    2.524581
     60          6           0       -9.854601    3.430193    3.122690
     61          6           0      -10.237408    1.537213    1.365177
     62          6           0       -9.480120    1.324603    0.049854
     63          6           0      -10.205339    1.784648   -1.210822
     64          6           0       -9.492074    2.949622   -1.918376
     65          6           0      -10.502855    3.686873   -2.829206
     66          6           0       -8.288312    2.568491   -2.690697
     67          1           0        1.213800    1.429341   -3.831762
     68          1           0        4.901040    5.148818    0.120702
     69          1           0        7.514050    0.015879    2.554935
     70          1           0        2.105326   -3.179826   -3.078786
     71          1           0        0.494335   -1.035883   -3.671241
     72          1           0        2.703068   -2.306148   -5.035391
     73          1           0        2.976123   -0.557395   -4.889475
     74          1           0        1.457492   -1.144734   -5.661034
     75          1           0       -0.392461   -1.874191   -2.017730
     76          1           0        0.414146   -3.060093   -0.897042
     77          1           0        0.183385   -4.501555   -2.872443
     78          1           0       -0.891256   -3.431900   -3.615822
     79          1           0        0.407747    4.585325   -3.458450
     80          1           0        1.143333    3.363942   -4.628832
     81          1           0        1.741339    4.996658   -4.579500
     82          1           0        2.827291    6.296445    0.202186
     83          1           0        2.563273    7.848238   -0.640073
     84          1           0        4.178895    7.180611   -0.653813
     85          1           0        5.783498    4.516107    2.613693
     86          1           0        8.044322    2.650576    2.300761
     87          1           0        7.238149    6.105096    1.832115
     88          1           0        7.381700    5.126446    0.262006
     89          1           0        8.275743    4.675817    1.711544
     90          1           0        6.157140    1.715358    4.267484
     91          1           0        6.275110    3.508253    4.370153
     92          1           0        8.955492    2.288618    4.267399
     93          1           0        8.068636    1.452965    5.556247
     94          1           0        8.252000    3.326096    5.412988
     95          1           0        7.093499   -2.955113    3.452511
     96          1           0        8.217369   -2.217723    2.308533
     97          1           0        7.621425   -3.861191    1.977969
     98          1           0        3.699046   -4.614421   -1.344686
     99          1           0        0.556667   -6.066164    1.272597
    100          1           0        1.908722   -7.281507    1.204461
    101          1           0        0.620806   -7.242235    0.015896
    102          1           0       -3.783445   -5.855541   -0.890150
    103          1           0       -4.670619   -5.504233   -2.330567
    104          1           0       -5.053797   -3.276940   -1.851577
    105          1           0       -5.319893   -4.564774    2.002758
    106          1           0       -4.155211   -3.206766    2.178624
    107          1           0       -3.620755   -4.647112    1.322913
    108          1           0       -6.641501   -2.136652    0.810020
    109          1           0       -6.004552   -1.681109   -0.822469
    110          1           0       -5.047760    0.052078    0.228137
    111          1           0       -3.816544   -1.144557    0.500559
    112          1           0       -3.800792   -0.648828    2.646459
    113          1           0       -5.429841   -1.509861    2.695110
    114          1           0       -6.072414    1.076447    1.903093
    115          1           0       -4.891396    2.790858    2.729017
    116          1           0       -3.645226    1.647434    3.053993
    117          1           0       -4.950055    2.191180    4.254396
    118          1           0       -6.692447    1.116404    4.526657
    119          1           0       -6.300614   -0.636679    4.418413
    120          1           0       -8.379812   -1.034753    3.675197
    121          1           0       -7.904585   -0.082359    2.229052
    122          1           0       -8.974351    1.493410    4.646099
    123          1           0       -9.939719    0.331184    3.785858
    124          1           0       -8.300708    2.208902    2.295486
    125          1           0       -9.869043    3.333826    4.208682
    126          1           0      -10.843821    3.820702    2.883981
    127          1           0       -9.035931    4.111468    2.888735
    128          1           0      -10.975557    2.286208    1.079483
    129          1           0      -10.623538    0.553202    1.631995
    130          1           0       -9.437589    0.250333   -0.128253
    131          1           0       -8.488084    1.756834    0.178035
    132          1           0      -11.263190    1.881749   -0.964159
    133          1           0      -10.108089    0.921574   -1.868256
    134          1           0       -9.142127    3.679554   -1.189085
    135          1           0      -10.247436    4.743366   -2.749906
    136          1           0      -11.518793    3.536337   -2.463075
    137          1           0      -10.660898    3.319115   -3.842983
    138          1           0       -7.427224    2.990862   -2.174380
    139          1           0       -8.242940    3.035773   -3.674596
    140          1           0       -8.223613    1.484323   -2.779386
 ---------------------------------------------------------------------

 SCF Done:  E(RCAM-B3LYP) =  -3007.15484508     A.U. after   19 cycles

 Excitation energies and oscillator strengths:

 Excited State   1:      Singlet-A      1.7351 eV  714.55 nm  f=0.3606  <S**2>=0.000
     245 -> 248        0.19938
     246 -> 247        0.67965
     245 <- 248        0.10985
 This state for optimization and/or second-order correction.
 Total Energy, E(TD-HF/TD-DFT) =  -3007.09107972
 Copying the excited state density for this state as the 1-particle RhoCI density.

 Excited State   2:      Singlet-A      2.2198 eV  558.53 nm  f=0.0776  <S**2>=0.000
     245 -> 247        0.62363
     246 -> 248       -0.32373

 Excited State   3:      Singlet-A      3.3999 eV  364.67 nm  f=0.3320  <S**2>=0.000
     240 -> 247       -0.25361
     240 -> 249       -0.18212
     241 -> 247        0.34228
     245 -> 247        0.21763
     246 -> 248        0.45780

 Excited State   4:      Singlet-A      3.4267 eV  361.82 nm  f=0.2289  <S**2>=0.000
     240 -> 247        0.45154
     240 -> 249        0.28982
     240 -> 251        0.10214
     244 -> 247       -0.10524
     245 -> 247        0.18519
     246 -> 248        0.36567

 Excited State   5:      Singlet-A      3.4773 eV  356.55 nm  f=0.0027  <S**2>=0.000
     240 -> 247        0.14172
     241 -> 247        0.12077
     244 -> 247        0.65533

 The electronic state is 1-A.
 Alpha  occ. eigenvalues --  -46.89145 -19.25397 -19.24844 -19.21258 -19.19425
 Alpha  occ. eigenvalues --  -19.19043 -19.18128 -14.42261 -14.42241 -14.39973
 Alpha  occ. eigenvalues --  -14.39622 -10.40433 -10.38513 -10.35597 -10.34303
 Alpha  occ. eigenvalues --  -10.32027 -10.31631 -10.31437 -10.30927 -10.30761
 Alpha  occ. eigenvalues --  -10.30390 -10.30339 -10.30307 -10.29724 -10.29280
 Alpha  occ. eigenvalues --  -10.28795 -10.28458 -10.28452 -10.28383 -10.28068
 Alpha  occ. eigenvalues --  -10.27830 -10.27524 -10.27500 -10.27474 -10.27364
 Alpha  occ. eigenvalues --  -10.27219 -10.27134 -10.26995 -10.26845 -10.26816
 Alpha  occ. eigenvalues --  -10.26408 -10.26373 -10.26279 -10.26180 -10.26086
 Alpha  occ. eigenvalues --  -10.25914 -10.25811 -10.25672 -10.25526 -10.25457
 Alpha  occ. eigenvalues --  -10.25427 -10.25049 -10.25031 -10.25028 -10.24981
 Alpha  occ. eigenvalues --  -10.24606 -10.24517 -10.24455 -10.24353 -10.24264
 Alpha  occ. eigenvalues --  -10.24231 -10.24209 -10.24105 -10.23911 -10.23839
 Alpha  occ. eigenvalues --  -10.23823  -3.17706  -1.92599  -1.92162  -1.92015
 Alpha  occ. eigenvalues --   -1.17828  -1.16891  -1.10543  -1.08984  -1.08835
 Alpha  occ. eigenvalues --   -1.07782  -1.05128  -1.04374  -1.03282  -1.02462
 Alpha  occ. eigenvalues --   -0.92028  -0.90112  -0.89911  -0.89343  -0.89264
 Alpha  occ. eigenvalues --   -0.88647  -0.88454  -0.88309  -0.87225  -0.86850
 Alpha  occ. eigenvalues --   -0.86536  -0.85635  -0.83942  -0.83517  -0.83432
 Alpha  occ. eigenvalues --   -0.82561  -0.81831  -0.80690  -0.80638  -0.80205
 Alpha  occ. eigenvalues --   -0.79432  -0.78397  -0.77759  -0.76902  -0.75917
 Alpha  occ. eigenvalues --   -0.75674  -0.75512  -0.75358  -0.74652  -0.74194
 Alpha  occ. eigenvalues --   -0.73126  -0.72829  -0.71643  -0.69678  -0.69534
 Alpha  occ. eigenvalues --   -0.68735  -0.67770  -0.67421  -0.66160  -0.66080
 Alpha  occ. eigenvalues --   -0.65589  -0.65073  -0.64827  -0.64315  -0.63434
 Alpha  occ. eigenvalues --   -0.63224  -0.62756  -0.62478  -0.61943  -0.60751
 Alpha  occ. eigenvalues --   -0.60252  -0.59878  -0.59264  -0.58780  -0.58045
 Alpha  occ. eigenvalues --   -0.57695  -0.57200  -0.56518  -0.55887  -0.55708
 Alpha  occ. eigenvalues --   -0.55131  -0.54806  -0.54761  -0.54570  -0.54186
 Alpha  occ. eigenvalues --   -0.53792  -0.53728  -0.53220  -0.53028  -0.52938
 Alpha  occ. eigenvalues --   -0.52848  -0.52579  -0.52180  -0.52036  -0.51937
 Alpha  occ. eigenvalues --   -0.51716  -0.51223  -0.50999  -0.50492  -0.50303
 Alpha  occ. eigenvalues --   -0.50269  -0.49939  -0.49872  -0.49706  -0.49473
 Alpha  occ. eigenvalues --   -0.49429  -0.49210  -0.48959  -0.48799  -0.48730
 Alpha  occ. eigenvalues --   -0.48377  -0.48159  -0.48003  -0.47611  -0.47536
 Alpha  occ. eigenvalues --   -0.47390  -0.47113  -0.46901  -0.46789  -0.46690
 Alpha  occ. eigenvalues --   -0.46636  -0.46363  -0.46307  -0.45820  -0.45745
 Alpha  occ. eigenvalues --   -0.45615  -0.45455  -0.45304  -0.45110  -0.44977
 Alpha  occ. eigenvalues --   -0.44655  -0.44592  -0.44305  -0.44175  -0.44123
 Alpha  occ. eigenvalues --   -0.44073  -0.43545  -0.43419  -0.43360  -0.43050
 Alpha  occ. eigenvalues --   -0.42812  -0.42318  -0.41970  -0.41825  -0.41650
 Alpha  occ. eigenvalues --   -0.41523  -0.41493  -0.41323  -0.41089  -0.40825
 Alpha  occ. eigenvalues --   -0.40704  -0.40102  -0.40074  -0.39856  -0.39805
 Alpha  occ. eigenvalues --   -0.39547  -0.39269  -0.39052  -0.38915  -0.38771
 Alpha  occ. eigenvalues --   -0.38453  -0.38354  -0.37836  -0.37705  -0.37665
 Alpha  occ. eigenvalues --   -0.37049  -0.36743  -0.36589  -0.36231  -0.36185
 Alpha  occ. eigenvalues --   -0.35896  -0.35369  -0.34932  -0.34736  -0.34447
 Alpha  occ. eigenvalues --   -0.33820  -0.33723  -0.33040  -0.31450  -0.31095
 Alpha  occ. eigenvalues --   -0.30373  -0.30142  -0.30126  -0.29489  -0.24091
 Alpha  occ. eigenvalues --   -0.21310
 Alpha virt. eigenvalues --   -0.08594  -0.02488  -0.00233   0.01988   0.02409
 Alpha virt. eigenvalues --    0.04565   0.05380   0.05607   0.06360   0.06949
 Alpha virt. eigenvalues --    0.07778   0.08112   0.08229   0.08849   0.09084

 Mulliken charges:
               1
     1  Mg   0.838174
     2  C   -0.045930
     3  C   -0.056878
     4  C   -0.058452
     5  C   -0.079522
     6  N   -0.296227
     7  C    0.014595
     8  C   -0.007540
     9  C   -0.110958
    10  C    0.045638
    11  C    0.098102
    12  C    0.003195
    13  C    0.074287
    14  C    0.194279
    15  O   -0.184560
    16  O   -0.311803
    17  N   -0.432068
    18  C    0.134107
    19  C   -0.160422
    20  C   -0.019265
    21  C    0.217454
    22  C    0.149704
    23  C   -0.033505
    24  O   -0.215720
    25  C    0.021144
    26  N   -0.212902
    27  C   -0.032999
    28  C   -0.071388
    29  C   -0.043765
    30  C    0.008811
    31  C    0.071152
    32  C    0.045077
    33  C   -0.001676
    34  N   -0.327212
    35  C    0.105608
    36  C   -0.149120
    37  C    0.018833
    38  C    0.149893
    39  C    0.116456
    40  C    0.063687
    41  O   -0.189028
    42  C   -0.046679
    43  C    0.188319
    44  O   -0.216666
    45  O   -0.303643
    46  C    0.164539
    47  C    0.327336
    48  C   -0.169737
    49  C   -0.169108
    50  C    0.075009
    51  C    0.086652
    52  C   -0.043408
    53  C    0.042688
    54  C   -0.137201
    55  C    0.046982
    56  C    0.063873
    57  C   -0.016635
    58  C    0.026830
    59  C   -0.149423
    60  C    0.041251
    61  C    0.115042
    62  C   -0.029160
    63  C    0.058016
    64  C   -0.157315
    65  C    0.047374
    66  C    0.076761
    67  H   -0.029994
    68  H   -0.044438
    69  H   -0.033787
    70  H   -0.001845
    71  H   -0.001726
    72  H    0.014073
    73  H    0.021117
    74  H    0.022692
    75  H    0.006821
    76  H    0.056773
    77  H    0.016310
    78  H    0.008362
    79  H    0.036973
    80  H    0.002098
    81  H    0.042624
    82  H    0.032893
    83  H    0.022767
    84  H    0.045232
    85  H    0.017026
    86  H    0.014309
    87  H    0.028450
    88  H    0.027883
    89  H    0.001619
    90  H    0.020485
    91  H    0.011744
    92  H    0.005368
    93  H    0.037845
    94  H    0.020898
    95  H    0.044208
    96  H    0.011967
    97  H    0.039817
    98  H    0.028110
    99  H    0.056699
   100  H    0.043728
   101  H    0.017679
   102  H    0.008257
   103  H    0.006365
   104  H   -0.015598
   105  H    0.027151
   106  H    0.020956
   107  H    0.033925
   108  H    0.010286
   109  H    0.005932
   110  H    0.003049
   111  H    0.003358
   112  H    0.014929
   113  H    0.006658
   114  H    0.001928
   115  H   -0.004989
   116  H    0.010005
   117  H    0.004346
   118  H   -0.015934
   119  H    0.003562
   120  H   -0.004237
   121  H    0.011052
   122  H    0.000860
   123  H   -0.019040
   124  H   -0.003262
   125  H   -0.009127
   126  H    0.017744
   127  H    0.008392
   128  H    0.000142
   129  H   -0.001315
   130  H   -0.009333
   131  H   -0.000163
   132  H   -0.004369
   133  H   -0.017560
   134  H   -0.005607
   135  H    0.011380
   136  H   -0.014073
   137  H    0.005816
   138  H    0.000957
   139  H    0.005679
   140  H    0.006142
 Sum of Mulliken charges =  -0.00000

 Dipole moment (field-independent basis, Debye):
    X=              1.4447    Y=              0.4820    Z=              0.1019  Tot=              1.5264
 Quadrupole moment (field-independent basis, Debye-Ang):
   XX=           -366.7075   YY=           -430.8041   ZZ=           -398.7636
   XY=             31.6606   XZ=             12.7583   YZ=             33.1312

 Normal termination of Gaussian 16 at Thu Apr 28 21:43:35 2022.
