 Gaussian 16, Revision A.03,
 Gaussian 16:  ES64L-G16RevA.03 25-Dec-2016

 ---------------------------------
 #p PBE1PBE/Def2SVP td=(nstates=5)
 ---------------------------------

 ------------------------------------------------------
 step_1751_chromophore_20 TDDFT with PBE1PBE functional
 ------------------------------------------------------
 Symbolic Z-matrix:
 Charge =  0 Multiplicity = 1

                         Standard orientation:
 ---------------------------------------------------------------------
 Center     Atomic      Atomic             Coordinates (Angstroms)
 Number     Number       Type             X           Y           Z
 ---------------------------------------------------------------------
      1         12           0        4.343860    0.862716   -0.767049
      2          6           0        3.514047   -2.540921   -0.562767
      3          6           0        1.975403    1.269137   -3.065500
      4          6           0        4.656704    4.109215   -0.107332
      5          6           0        6.696549    0.226427    1.861170
      6          7           0        3.005136   -0.529234   -1.767925
      7          6           0        2.657029   -1.827180   -1.468581
      8          6           0        1.641238   -2.368193   -2.517866
      9          6           0        1.559248   -1.205123   -3.509426
     10          6           0        2.243334   -0.030704   -2.747741
     11          6           0        2.216926   -1.338954   -4.904162
     12          6           0        0.234299   -2.761429   -1.930522
     13          6           0       -0.588989   -3.774017   -2.626058
     14          6           0       -1.735655   -4.338099   -1.688673
     15          8           0       -1.534422   -4.486323   -0.520779
     16          8           0       -2.909027   -4.631846   -2.375682
     17          7           0        3.481646    2.490070   -1.536190
     18          6           0        2.529865    2.476274   -2.510815
     19          6           0        2.180181    3.823779   -2.871383
     20          6           0        2.887883    4.674075   -1.951307
     21          6           0        3.708873    3.776755   -1.076388
     22          6           0        1.299246    4.213686   -3.963930
     23          6           0        2.728822    6.135271   -1.960428
     24          8           0        2.233125    6.763879   -2.894252
     25          6           0        3.121630    6.912881   -0.647408
     26          7           0        5.379106    2.027316    0.846514
     27          6           0        5.417846    3.355422    0.779681
     28          6           0        6.356744    3.998501    1.845248
     29          6           0        6.985884    2.658277    2.560666
     30          6           0        6.293320    1.602710    1.731192
     31          6           0        7.354823    5.134075    1.351769
     32          6           0        6.789439    2.586959    4.098611
     33          6           0        8.102493    2.353846    4.943218
     34          7           0        5.070449   -0.784104    0.355387
     35          6           0        6.077891   -0.938067    1.330096
     36          6           0        6.334884   -2.341321    1.582195
     37          6           0        5.342859   -3.020888    0.875253
     38          6           0        4.566399   -1.999752    0.163551
     39          6           0        7.363781   -2.888891    2.398928
     40          6           0        4.832324   -4.325274    0.567192
     41          8           0        5.156716   -5.458259    0.955944
     42          6           0        3.575254   -4.055534   -0.417180
     43          6           0        2.322803   -4.585139    0.266927
     44          8           0        1.839849   -4.073624    1.259253
     45          8           0        1.970083   -5.767394   -0.275311
     46          6           0        1.255482   -6.614148    0.640676
     47          6           0       -3.989937   -5.058944   -1.605431
     48          6           0       -4.664844   -3.857261   -1.014554
     49          6           0       -4.974612   -3.350319    0.181272
     50          6           0       -4.490340   -4.027933    1.544363
     51          6           0       -5.759853   -2.044547    0.175617
     52          6           0       -4.842926   -0.880847    0.753213
     53          6           0       -4.842693   -0.667067    2.328993
     54          6           0       -5.585740    0.658169    2.784512
     55          6           0       -4.697242    1.853224    3.249017
     56          6           0       -6.621638    0.248886    3.870668
     57          6           0       -8.015511   -0.074079    3.312235
     58          6           0       -9.085968    1.000551    3.680439
     59          6           0       -9.353112    2.042223    2.524581
     60          6           0       -9.854601    3.430193    3.122690
     61          6           0      -10.237408    1.537213    1.365177
     62          6           0       -9.480120    1.324603    0.049854
     63          6           0      -10.205339    1.784648   -1.210822
     64          6           0       -9.492074    2.949622   -1.918376
     65          6           0      -10.502855    3.686873   -2.829206
     66          6           0       -8.288312    2.568491   -2.690697
     67          1           0        1.213800    1.429341   -3.831762
     68          1           0        4.901040    5.148818    0.120702
     69          1           0        7.514050    0.015879    2.554935
     70          1           0        2.105326   -3.179826   -3.078786
     71          1           0        0.494335   -1.035883   -3.671241
     72          1           0        2.703068   -2.306148   -5.035391
     73          1           0        2.976123   -0.557395   -4.889475
     74          1           0        1.457492   -1.144734   -5.661034
     75          1           0       -0.392461   -1.874191   -2.017730
     76          1           0        0.414146   -3.060093   -0.897042
     77          1           0        0.183385   -4.501555   -2.872443
     78          1           0       -0.891256   -3.431900   -3.615822
     79          1           0        0.407747    4.585325   -3.458450
     80          1           0        1.143333    3.363942   -4.628832
     81          1           0        1.741339    4.996658   -4.579500
     82          1           0        2.827291    6.296445    0.202186
     83          1           0        2.563273    7.848238   -0.640073
     84          1           0        4.178895    7.180611   -0.653813
     85          1           0        5.783498    4.516107    2.613693
     86          1           0        8.044322    2.650576    2.300761
     87          1           0        7.238149    6.105096    1.832115
     88          1           0        7.381700    5.126446    0.262006
     89          1           0        8.275743    4.675817    1.711544
     90          1           0        6.157140    1.715358    4.267484
     91          1           0        6.275110    3.508253    4.370153
     92          1           0        8.955492    2.288618    4.267399
     93          1           0        8.068636    1.452965    5.556247
     94          1           0        8.252000    3.326096    5.412988
     95          1           0        7.093499   -2.955113    3.452511
     96          1           0        8.217369   -2.217723    2.308533
     97          1           0        7.621425   -3.861191    1.977969
     98          1           0        3.699046   -4.614421   -1.344686
     99          1           0        0.556667   -6.066164    1.272597
    100          1           0        1.908722   -7.281507    1.204461
    101          1           0        0.620806   -7.242235    0.015896
    102          1           0       -3.783445   -5.855541   -0.890150
    103          1           0       -4.670619   -5.504233   -2.330567
    104          1           0       -5.053797   -3.276940   -1.851577
    105          1           0       -5.319893   -4.564774    2.002758
    106          1           0       -4.155211   -3.206766    2.178624
    107          1           0       -3.620755   -4.647112    1.322913
    108          1           0       -6.641501   -2.136652    0.810020
    109          1           0       -6.004552   -1.681109   -0.822469
    110          1           0       -5.047760    0.052078    0.228137
    111          1           0       -3.816544   -1.144557    0.500559
    112          1           0       -3.800792   -0.648828    2.646459
    113          1           0       -5.429841   -1.509861    2.695110
    114          1           0       -6.072414    1.076447    1.903093
    115          1           0       -4.891396    2.790858    2.729017
    116          1           0       -3.645226    1.647434    3.053993
    117          1           0       -4.950055    2.191180    4.254396
    118          1           0       -6.692447    1.116404    4.526657
    119          1           0       -6.300614   -0.636679    4.418413
    120          1           0       -8.379812   -1.034753    3.675197
    121          1           0       -7.904585   -0.082359    2.229052
    122          1           0       -8.974351    1.493410    4.646099
    123          1           0       -9.939719    0.331184    3.785858
    124          1           0       -8.300708    2.208902    2.295486
    125          1           0       -9.869043    3.333826    4.208682
    126          1           0      -10.843821    3.820702    2.883981
    127          1           0       -9.035931    4.111468    2.888735
    128          1           0      -10.975557    2.286208    1.079483
    129          1           0      -10.623538    0.553202    1.631995
    130          1           0       -9.437589    0.250333   -0.128253
    131          1           0       -8.488084    1.756834    0.178035
    132          1           0      -11.263190    1.881749   -0.964159
    133          1           0      -10.108089    0.921574   -1.868256
    134          1           0       -9.142127    3.679554   -1.189085
    135          1           0      -10.247436    4.743366   -2.749906
    136          1           0      -11.518793    3.536337   -2.463075
    137          1           0      -10.660898    3.319115   -3.842983
    138          1           0       -7.427224    2.990862   -2.174380
    139          1           0       -8.242940    3.035773   -3.674596
    140          1           0       -8.223613    1.484323   -2.779386
 ---------------------------------------------------------------------

 SCF Done:  E(RPBE1PBE) =  -3005.34431663     A.U. after   15 cycles

 Excitation energies and oscillator strengths:

 Excited State   1:      Singlet-A      1.8865 eV  657.22 nm  f=0.3517  <S**2>=0.000
     245 -> 248        0.19420
     246 -> 247        0.68593
 This state for optimization and/or second-order correction.
 Total Energy, E(TD-HF/TD-DFT) =  -3005.27498950
 Copying the excited state density for this state as the 1-particle RhoCI density.

 Excited State   2:      Singlet-A      2.2202 eV  558.45 nm  f=0.0815  <S**2>=0.000
     245 -> 247        0.63990
     246 -> 248       -0.29124

 Excited State   3:      Singlet-A      2.9595 eV  418.94 nm  f=0.0002  <S**2>=0.000
     244 -> 247        0.67131
     244 -> 248        0.10052
     244 -> 249       -0.13305
     244 -> 250        0.13133

 Excited State   4:      Singlet-A      2.9975 eV  413.62 nm  f=0.0006  <S**2>=0.000
     240 -> 247        0.27473
     240 -> 249        0.11420
     241 -> 247        0.60012
     241 -> 249        0.17441

 Excited State   5:      Singlet-A      3.0823 eV  402.25 nm  f=0.0029  <S**2>=0.000
     240 -> 247        0.10038
     243 -> 247        0.69120

 The electronic state is 1-A.
 Alpha  occ. eigenvalues --  -46.92552 -19.26070 -19.25422 -19.21433 -19.19562
 Alpha  occ. eigenvalues --  -19.19200 -19.18441 -14.41803 -14.41679 -14.39670
 Alpha  occ. eigenvalues --  -14.39237 -10.37421 -10.35467 -10.32650 -10.31527
 Alpha  occ. eigenvalues --  -10.29684 -10.29106 -10.28971 -10.28764 -10.28552
 Alpha  occ. eigenvalues --  -10.28139 -10.28010 -10.27566 -10.27475 -10.26831
 Alpha  occ. eigenvalues --  -10.26688 -10.26235 -10.26232 -10.25889 -10.25671
 Alpha  occ. eigenvalues --  -10.25628 -10.25315 -10.25187 -10.25090 -10.24911
 Alpha  occ. eigenvalues --  -10.24902 -10.24765 -10.24583 -10.24528 -10.24448
 Alpha  occ. eigenvalues --  -10.24294 -10.23841 -10.23817 -10.23686 -10.23487
 Alpha  occ. eigenvalues --  -10.23440 -10.23405 -10.23376 -10.23201 -10.22904
 Alpha  occ. eigenvalues --  -10.22775 -10.22670 -10.22636 -10.22590 -10.22582
 Alpha  occ. eigenvalues --  -10.22164 -10.22061 -10.22001 -10.21951 -10.21776
 Alpha  occ. eigenvalues --  -10.21687 -10.21686 -10.21640 -10.21370 -10.21274
 Alpha  occ. eigenvalues --  -10.21223  -3.14692  -1.87525  -1.87066  -1.86924
 Alpha  occ. eigenvalues --   -1.12609  -1.11619  -1.05379  -1.03650  -1.03618
 Alpha  occ. eigenvalues --   -1.02527  -0.99739  -0.98986  -0.97906  -0.97211
 Alpha  occ. eigenvalues --   -0.86313  -0.84308  -0.83998  -0.83562  -0.83456
 Alpha  occ. eigenvalues --   -0.82887  -0.82624  -0.82575  -0.81567  -0.80987
 Alpha  occ. eigenvalues --   -0.80945  -0.79897  -0.78177  -0.77763  -0.77676
 Alpha  occ. eigenvalues --   -0.76773  -0.76084  -0.75000  -0.74824  -0.74471
 Alpha  occ. eigenvalues --   -0.73610  -0.72665  -0.72056  -0.71223  -0.70077
 Alpha  occ. eigenvalues --   -0.69951  -0.69715  -0.69604  -0.68795  -0.68383
 Alpha  occ. eigenvalues --   -0.67525  -0.67166  -0.66106  -0.64025  -0.63833
 Alpha  occ. eigenvalues --   -0.63182  -0.62095  -0.61866  -0.60578  -0.60360
 Alpha  occ. eigenvalues --   -0.60008  -0.59363  -0.59251  -0.58870  -0.57844
 Alpha  occ. eigenvalues --   -0.57334  -0.56930  -0.56696  -0.56466  -0.55131
 Alpha  occ. eigenvalues --   -0.54725  -0.54307  -0.53934  -0.53374  -0.52587
 Alpha  occ. eigenvalues --   -0.52226  -0.51589  -0.51113  -0.50356  -0.50176
 Alpha  occ. eigenvalues --   -0.49687  -0.49307  -0.49132  -0.49027  -0.48753
 Alpha  occ. eigenvalues --   -0.48358  -0.48199  -0.47733  -0.47584  -0.47464
 Alpha  occ. eigenvalues --   -0.47388  -0.47190  -0.46662  -0.46476  -0.46349
 Alpha  occ. eigenvalues --   -0.46172  -0.45724  -0.45551  -0.45101  -0.44964
 Alpha  occ. eigenvalues --   -0.44791  -0.44494  -0.44477  -0.44265  -0.44089
 Alpha  occ. eigenvalues --   -0.43933  -0.43832  -0.43627  -0.43406  -0.43271
 Alpha  occ. eigenvalues --   -0.43003  -0.42762  -0.42651  -0.42258  -0.42195
 Alpha  occ. eigenvalues --   -0.42070  -0.41710  -0.41590  -0.41498  -0.41382
 Alpha  occ. eigenvalues --   -0.41254  -0.41077  -0.40998  -0.40564  -0.40440
 Alpha  occ. eigenvalues --   -0.40308  -0.40178  -0.39926  -0.39880  -0.39653
 Alpha  occ. eigenvalues --   -0.39337  -0.39322  -0.39049  -0.38851  -0.38822
 Alpha  occ. eigenvalues --   -0.38684  -0.38253  -0.38219  -0.38146  -0.37930
 Alpha  occ. eigenvalues --   -0.37572  -0.37046  -0.36768  -0.36621  -0.36416
 Alpha  occ. eigenvalues --   -0.36344  -0.36262  -0.36154  -0.36001  -0.35784
 Alpha  occ. eigenvalues --   -0.35601  -0.34956  -0.34864  -0.34760  -0.34619
 Alpha  occ. eigenvalues --   -0.34364  -0.34218  -0.33903  -0.33775  -0.33561
 Alpha  occ. eigenvalues --   -0.33209  -0.33174  -0.32735  -0.32647  -0.32428
 Alpha  occ. eigenvalues --   -0.32123  -0.31836  -0.31491  -0.31104  -0.31083
 Alpha  occ. eigenvalues --   -0.30749  -0.30216  -0.29925  -0.29813  -0.29330
 Alpha  occ. eigenvalues --   -0.28888  -0.28728  -0.28240  -0.27090  -0.26096
 Alpha  occ. eigenvalues --   -0.25753  -0.25427  -0.25201  -0.24989  -0.21030
 Alpha  occ. eigenvalues --   -0.18974
 Alpha virt. eigenvalues --   -0.11131  -0.05904  -0.04394  -0.02044  -0.00730
 Alpha virt. eigenvalues --    0.00041   0.00796   0.01278   0.01923   0.03298
 Alpha virt. eigenvalues --    0.03762   0.04284   0.04830   0.05229   0.05788

 Mulliken charges:
               1
     1  Mg   0.985061
     2  C   -0.042258
     3  C   -0.039484
     4  C   -0.064811
     5  C   -0.070087
     6  N   -0.398213
     7  C    0.095923
     8  C   -0.084872
     9  C   -0.174180
    10  C    0.064465
    11  C    0.041123
    12  C   -0.047711
    13  C   -0.004520
    14  C    0.263993
    15  O   -0.217027
    16  O   -0.345985
    17  N   -0.553437
    18  C    0.165143
    19  C   -0.186845
    20  C   -0.064996
    21  C    0.246548
    22  C    0.087076
    23  C    0.022911
    24  O   -0.250987
    25  C   -0.057300
    26  N   -0.318692
    27  C    0.007582
    28  C   -0.133902
    29  C   -0.118257
    30  C    0.045755
    31  C    0.005542
    32  C   -0.013834
    33  C   -0.074805
    34  N   -0.449874
    35  C    0.121634
    36  C   -0.171996
    37  C   -0.023750
    38  C    0.182035
    39  C    0.063511
    40  C    0.153377
    41  O   -0.234840
    42  C   -0.154183
    43  C    0.281710
    44  O   -0.250738
    45  O   -0.338633
    46  C    0.110469
    47  C    0.278771
    48  C   -0.182310
    49  C   -0.206038
    50  C    0.011336
    51  C    0.017482
    52  C   -0.101635
    53  C   -0.012574
    54  C   -0.219624
    55  C   -0.009668
    56  C    0.005355
    57  C   -0.084188
    58  C   -0.024059
    59  C   -0.240464
    60  C   -0.016005
    61  C    0.059569
    62  C   -0.088320
    63  C   -0.002147
    64  C   -0.251631
    65  C   -0.013605
    66  C    0.020185
    67  H    0.001919
    68  H   -0.007763
    69  H   -0.001472
    70  H    0.035455
    71  H    0.034647
    72  H    0.041895
    73  H    0.050389
    74  H    0.049490
    75  H    0.040373
    76  H    0.093142
    77  H    0.050027
    78  H    0.039526
    79  H    0.066299
    80  H    0.030039
    81  H    0.070605
    82  H    0.060427
    83  H    0.051291
    84  H    0.070912
    85  H    0.054650
    86  H    0.051142
    87  H    0.055410
    88  H    0.055790
    89  H    0.031370
    90  H    0.054273
    91  H    0.043214
    92  H    0.032714
    93  H    0.064166
    94  H    0.048776
    95  H    0.070828
    96  H    0.038867
    97  H    0.066921
    98  H    0.064055
    99  H    0.077305
   100  H    0.065615
   101  H    0.039594
   102  H    0.035075
   103  H    0.034541
   104  H    0.015193
   105  H    0.054723
   106  H    0.050963
   107  H    0.061617
   108  H    0.044658
   109  H    0.036669
   110  H    0.034346
   111  H    0.037488
   112  H    0.046043
   113  H    0.039547
   114  H    0.039432
   115  H    0.022303
   116  H    0.037145
   117  H    0.030397
   118  H    0.017487
   119  H    0.036047
   120  H    0.027987
   121  H    0.050560
   122  H    0.030819
   123  H    0.014890
   124  H    0.040223
   125  H    0.018281
   126  H    0.043604
   127  H    0.035662
   128  H    0.033158
   129  H    0.031187
   130  H    0.023176
   131  H    0.031510
   132  H    0.025770
   133  H    0.016712
   134  H    0.033047
   135  H    0.039342
   136  H    0.014218
   137  H    0.032800
   138  H    0.027778
   139  H    0.033220
   140  H    0.032418
 Sum of Mulliken charges =  -0.00000

 Dipole moment (field-independent basis, Debye):
    X=              1.3983    Y=              0.7474    Z=              0.0031  Tot=              1.5855
 Quadrupole moment (field-independent basis, Debye-Ang):
   XX=           -363.5440   YY=           -427.7389   ZZ=           -394.7652
   XY=             32.8669   XZ=             13.5706   YZ=             33.2878

 Normal termination of Gaussian 16 at Thu Apr 28 22:04:43 2022.
