 Gaussian 16, Revision A.03,
 Gaussian 16:  ES64L-G16RevA.03 25-Dec-2016

 --------------------------------
 #p wB97XD/Def2SVP td=(nstates=5)
 --------------------------------

 -----------------------------------------------------
 step_1751_chromophore_20 TDDFT with wB97XD functional
 -----------------------------------------------------
 Symbolic Z-matrix:
 Charge =  0 Multiplicity = 1

                         Standard orientation:
 ---------------------------------------------------------------------
 Center     Atomic      Atomic             Coordinates (Angstroms)
 Number     Number       Type             X           Y           Z
 ---------------------------------------------------------------------
      1         12           0        4.343860    0.862716   -0.767049
      2          6           0        3.514047   -2.540921   -0.562767
      3          6           0        1.975403    1.269137   -3.065500
      4          6           0        4.656704    4.109215   -0.107332
      5          6           0        6.696549    0.226427    1.861170
      6          7           0        3.005136   -0.529234   -1.767925
      7          6           0        2.657029   -1.827180   -1.468581
      8          6           0        1.641238   -2.368193   -2.517866
      9          6           0        1.559248   -1.205123   -3.509426
     10          6           0        2.243334   -0.030704   -2.747741
     11          6           0        2.216926   -1.338954   -4.904162
     12          6           0        0.234299   -2.761429   -1.930522
     13          6           0       -0.588989   -3.774017   -2.626058
     14          6           0       -1.735655   -4.338099   -1.688673
     15          8           0       -1.534422   -4.486323   -0.520779
     16          8           0       -2.909027   -4.631846   -2.375682
     17          7           0        3.481646    2.490070   -1.536190
     18          6           0        2.529865    2.476274   -2.510815
     19          6           0        2.180181    3.823779   -2.871383
     20          6           0        2.887883    4.674075   -1.951307
     21          6           0        3.708873    3.776755   -1.076388
     22          6           0        1.299246    4.213686   -3.963930
     23          6           0        2.728822    6.135271   -1.960428
     24          8           0        2.233125    6.763879   -2.894252
     25          6           0        3.121630    6.912881   -0.647408
     26          7           0        5.379106    2.027316    0.846514
     27          6           0        5.417846    3.355422    0.779681
     28          6           0        6.356744    3.998501    1.845248
     29          6           0        6.985884    2.658277    2.560666
     30          6           0        6.293320    1.602710    1.731192
     31          6           0        7.354823    5.134075    1.351769
     32          6           0        6.789439    2.586959    4.098611
     33          6           0        8.102493    2.353846    4.943218
     34          7           0        5.070449   -0.784104    0.355387
     35          6           0        6.077891   -0.938067    1.330096
     36          6           0        6.334884   -2.341321    1.582195
     37          6           0        5.342859   -3.020888    0.875253
     38          6           0        4.566399   -1.999752    0.163551
     39          6           0        7.363781   -2.888891    2.398928
     40          6           0        4.832324   -4.325274    0.567192
     41          8           0        5.156716   -5.458259    0.955944
     42          6           0        3.575254   -4.055534   -0.417180
     43          6           0        2.322803   -4.585139    0.266927
     44          8           0        1.839849   -4.073624    1.259253
     45          8           0        1.970083   -5.767394   -0.275311
     46          6           0        1.255482   -6.614148    0.640676
     47          6           0       -3.989937   -5.058944   -1.605431
     48          6           0       -4.664844   -3.857261   -1.014554
     49          6           0       -4.974612   -3.350319    0.181272
     50          6           0       -4.490340   -4.027933    1.544363
     51          6           0       -5.759853   -2.044547    0.175617
     52          6           0       -4.842926   -0.880847    0.753213
     53          6           0       -4.842693   -0.667067    2.328993
     54          6           0       -5.585740    0.658169    2.784512
     55          6           0       -4.697242    1.853224    3.249017
     56          6           0       -6.621638    0.248886    3.870668
     57          6           0       -8.015511   -0.074079    3.312235
     58          6           0       -9.085968    1.000551    3.680439
     59          6           0       -9.353112    2.042223    2.524581
     60          6           0       -9.854601    3.430193    3.122690
     61          6           0      -10.237408    1.537213    1.365177
     62          6           0       -9.480120    1.324603    0.049854
     63          6           0      -10.205339    1.784648   -1.210822
     64          6           0       -9.492074    2.949622   -1.918376
     65          6           0      -10.502855    3.686873   -2.829206
     66          6           0       -8.288312    2.568491   -2.690697
     67          1           0        1.213800    1.429341   -3.831762
     68          1           0        4.901040    5.148818    0.120702
     69          1           0        7.514050    0.015879    2.554935
     70          1           0        2.105326   -3.179826   -3.078786
     71          1           0        0.494335   -1.035883   -3.671241
     72          1           0        2.703068   -2.306148   -5.035391
     73          1           0        2.976123   -0.557395   -4.889475
     74          1           0        1.457492   -1.144734   -5.661034
     75          1           0       -0.392461   -1.874191   -2.017730
     76          1           0        0.414146   -3.060093   -0.897042
     77          1           0        0.183385   -4.501555   -2.872443
     78          1           0       -0.891256   -3.431900   -3.615822
     79          1           0        0.407747    4.585325   -3.458450
     80          1           0        1.143333    3.363942   -4.628832
     81          1           0        1.741339    4.996658   -4.579500
     82          1           0        2.827291    6.296445    0.202186
     83          1           0        2.563273    7.848238   -0.640073
     84          1           0        4.178895    7.180611   -0.653813
     85          1           0        5.783498    4.516107    2.613693
     86          1           0        8.044322    2.650576    2.300761
     87          1           0        7.238149    6.105096    1.832115
     88          1           0        7.381700    5.126446    0.262006
     89          1           0        8.275743    4.675817    1.711544
     90          1           0        6.157140    1.715358    4.267484
     91          1           0        6.275110    3.508253    4.370153
     92          1           0        8.955492    2.288618    4.267399
     93          1           0        8.068636    1.452965    5.556247
     94          1           0        8.252000    3.326096    5.412988
     95          1           0        7.093499   -2.955113    3.452511
     96          1           0        8.217369   -2.217723    2.308533
     97          1           0        7.621425   -3.861191    1.977969
     98          1           0        3.699046   -4.614421   -1.344686
     99          1           0        0.556667   -6.066164    1.272597
    100          1           0        1.908722   -7.281507    1.204461
    101          1           0        0.620806   -7.242235    0.015896
    102          1           0       -3.783445   -5.855541   -0.890150
    103          1           0       -4.670619   -5.504233   -2.330567
    104          1           0       -5.053797   -3.276940   -1.851577
    105          1           0       -5.319893   -4.564774    2.002758
    106          1           0       -4.155211   -3.206766    2.178624
    107          1           0       -3.620755   -4.647112    1.322913
    108          1           0       -6.641501   -2.136652    0.810020
    109          1           0       -6.004552   -1.681109   -0.822469
    110          1           0       -5.047760    0.052078    0.228137
    111          1           0       -3.816544   -1.144557    0.500559
    112          1           0       -3.800792   -0.648828    2.646459
    113          1           0       -5.429841   -1.509861    2.695110
    114          1           0       -6.072414    1.076447    1.903093
    115          1           0       -4.891396    2.790858    2.729017
    116          1           0       -3.645226    1.647434    3.053993
    117          1           0       -4.950055    2.191180    4.254396
    118          1           0       -6.692447    1.116404    4.526657
    119          1           0       -6.300614   -0.636679    4.418413
    120          1           0       -8.379812   -1.034753    3.675197
    121          1           0       -7.904585   -0.082359    2.229052
    122          1           0       -8.974351    1.493410    4.646099
    123          1           0       -9.939719    0.331184    3.785858
    124          1           0       -8.300708    2.208902    2.295486
    125          1           0       -9.869043    3.333826    4.208682
    126          1           0      -10.843821    3.820702    2.883981
    127          1           0       -9.035931    4.111468    2.888735
    128          1           0      -10.975557    2.286208    1.079483
    129          1           0      -10.623538    0.553202    1.631995
    130          1           0       -9.437589    0.250333   -0.128253
    131          1           0       -8.488084    1.756834    0.178035
    132          1           0      -11.263190    1.881749   -0.964159
    133          1           0      -10.108089    0.921574   -1.868256
    134          1           0       -9.142127    3.679554   -1.189085
    135          1           0      -10.247436    4.743366   -2.749906
    136          1           0      -11.518793    3.536337   -2.463075
    137          1           0      -10.660898    3.319115   -3.842983
    138          1           0       -7.427224    2.990862   -2.174380
    139          1           0       -8.242940    3.035773   -3.674596
    140          1           0       -8.223613    1.484323   -2.779386
 ---------------------------------------------------------------------

 SCF Done:  E(RwB97XD) =  -3007.85425909     A.U. after   19 cycles

 Excitation energies and oscillator strengths:

 Excited State   1:      Singlet-A      1.6796 eV  738.19 nm  f=0.3581  <S**2>=0.000
     245 -> 248        0.20516
     246 -> 247        0.67749
     245 <- 248        0.11957
 This state for optimization and/or second-order correction.
 Total Energy, E(TD-HF/TD-DFT) =  -3007.79253620
 Copying the excited state density for this state as the 1-particle RhoCI density.

 Excited State   2:      Singlet-A      2.1652 eV  572.62 nm  f=0.0756  <S**2>=0.000
     245 -> 247        0.62223
     246 -> 248       -0.32502

 Excited State   3:      Singlet-A      3.4093 eV  363.66 nm  f=0.3867  <S**2>=0.000
     240 -> 247       -0.14823
     240 -> 249       -0.13689
     241 -> 247        0.36959
     241 -> 249        0.10465
     245 -> 247        0.23239
     246 -> 248        0.49405

 Excited State   4:      Singlet-A      3.4462 eV  359.77 nm  f=0.1560  <S**2>=0.000
     240 -> 247        0.47222
     240 -> 249        0.32676
     240 -> 250        0.11943
     241 -> 247       -0.10659
     245 -> 247        0.15198
     246 -> 248        0.29543

 Excited State   5:      Singlet-A      3.5227 eV  351.96 nm  f=0.0097  <S**2>=0.000
     240 -> 247        0.14943
     241 -> 247        0.15521
     244 -> 247        0.63277
     244 -> 249       -0.11235

 The electronic state is 1-A.
 Alpha  occ. eigenvalues --  -46.95484 -19.30631 -19.30061 -19.26118 -19.24536
 Alpha  occ. eigenvalues --  -19.23990 -19.23112 -14.46831 -14.46829 -14.44560
 Alpha  occ. eigenvalues --  -14.44242 -10.44223 -10.42374 -10.39675 -10.38232
 Alpha  occ. eigenvalues --  -10.36107 -10.35470 -10.35463 -10.34938 -10.34735
 Alpha  occ. eigenvalues --  -10.34476 -10.34328 -10.34027 -10.33706 -10.33316
 Alpha  occ. eigenvalues --  -10.32851 -10.32606 -10.32531 -10.32444 -10.32137
 Alpha  occ. eigenvalues --  -10.31956 -10.31594 -10.31569 -10.31398 -10.31356
 Alpha  occ. eigenvalues --  -10.31222 -10.31078 -10.30876 -10.30860 -10.30852
 Alpha  occ. eigenvalues --  -10.30464 -10.30243 -10.30210 -10.30033 -10.29977
 Alpha  occ. eigenvalues --  -10.29910 -10.29830 -10.29659 -10.29455 -10.29363
 Alpha  occ. eigenvalues --  -10.29268 -10.28983 -10.28935 -10.28925 -10.28903
 Alpha  occ. eigenvalues --  -10.28522 -10.28419 -10.28359 -10.28289 -10.28118
 Alpha  occ. eigenvalues --  -10.28085 -10.28041 -10.28029 -10.27723 -10.27686
 Alpha  occ. eigenvalues --  -10.27631  -3.21485  -1.95068  -1.94609  -1.94461
 Alpha  occ. eigenvalues --   -1.19982  -1.19079  -1.12715  -1.11265  -1.11007
 Alpha  occ. eigenvalues --   -1.09979  -1.07123  -1.06376  -1.05338  -1.04479
 Alpha  occ. eigenvalues --   -0.94021  -0.91951  -0.91647  -0.91175  -0.91113
 Alpha  occ. eigenvalues --   -0.90600  -0.90227  -0.90211  -0.89140  -0.88626
 Alpha  occ. eigenvalues --   -0.88462  -0.87514  -0.85808  -0.85424  -0.85298
 Alpha  occ. eigenvalues --   -0.84405  -0.83755  -0.82638  -0.82469  -0.82139
 Alpha  occ. eigenvalues --   -0.81271  -0.80326  -0.79670  -0.78810  -0.77743
 Alpha  occ. eigenvalues --   -0.77615  -0.77301  -0.77278  -0.76458  -0.76027
 Alpha  occ. eigenvalues --   -0.75096  -0.74761  -0.73624  -0.71602  -0.71444
 Alpha  occ. eigenvalues --   -0.70754  -0.69655  -0.69381  -0.68074  -0.67950
 Alpha  occ. eigenvalues --   -0.67533  -0.66921  -0.66790  -0.66320  -0.65352
 Alpha  occ. eigenvalues --   -0.65015  -0.64564  -0.64305  -0.63935  -0.62659
 Alpha  occ. eigenvalues --   -0.62206  -0.61801  -0.61257  -0.60762  -0.60001
 Alpha  occ. eigenvalues --   -0.59648  -0.59174  -0.58483  -0.57788  -0.57654
 Alpha  occ. eigenvalues --   -0.57081  -0.56717  -0.56597  -0.56472  -0.56122
 Alpha  occ. eigenvalues --   -0.55750  -0.55602  -0.55080  -0.54938  -0.54821
 Alpha  occ. eigenvalues --   -0.54766  -0.54514  -0.54042  -0.53944  -0.53862
 Alpha  occ. eigenvalues --   -0.53614  -0.53080  -0.53005  -0.52403  -0.52222
 Alpha  occ. eigenvalues --   -0.52145  -0.51805  -0.51784  -0.51581  -0.51382
 Alpha  occ. eigenvalues --   -0.51342  -0.51149  -0.50896  -0.50678  -0.50577
 Alpha  occ. eigenvalues --   -0.50264  -0.50035  -0.49930  -0.49530  -0.49437
 Alpha  occ. eigenvalues --   -0.49312  -0.48975  -0.48862  -0.48723  -0.48554
 Alpha  occ. eigenvalues --   -0.48503  -0.48287  -0.48227  -0.47732  -0.47687
 Alpha  occ. eigenvalues --   -0.47510  -0.47365  -0.47158  -0.47033  -0.46843
 Alpha  occ. eigenvalues --   -0.46515  -0.46497  -0.46229  -0.46139  -0.46008
 Alpha  occ. eigenvalues --   -0.45912  -0.45431  -0.45353  -0.45281  -0.44977
 Alpha  occ. eigenvalues --   -0.44768  -0.44177  -0.43860  -0.43702  -0.43518
 Alpha  occ. eigenvalues --   -0.43485  -0.43409  -0.43267  -0.43016  -0.42760
 Alpha  occ. eigenvalues --   -0.42630  -0.41961  -0.41945  -0.41769  -0.41685
 Alpha  occ. eigenvalues --   -0.41429  -0.41167  -0.40914  -0.40803  -0.40617
 Alpha  occ. eigenvalues --   -0.40265  -0.40188  -0.39671  -0.39639  -0.39492
 Alpha  occ. eigenvalues --   -0.39120  -0.38739  -0.38479  -0.38236  -0.38024
 Alpha  occ. eigenvalues --   -0.37735  -0.37257  -0.36778  -0.36735  -0.36271
 Alpha  occ. eigenvalues --   -0.35739  -0.35652  -0.35224  -0.33680  -0.33132
 Alpha  occ. eigenvalues --   -0.32561  -0.32129  -0.32032  -0.31641  -0.26012
 Alpha  occ. eigenvalues --   -0.23116
 Alpha virt. eigenvalues --   -0.06935  -0.00573   0.01832   0.04496   0.05182
 Alpha virt. eigenvalues --    0.06845   0.07510   0.08050   0.08635   0.09792
 Alpha virt. eigenvalues --    0.10280   0.11043   0.11458   0.11957   0.12506

 Mulliken charges:
               1
     1  Mg   0.975927
     2  C   -0.051185
     3  C   -0.062581
     4  C   -0.070533
     5  C   -0.086675
     6  N   -0.365435
     7  C    0.060186
     8  C   -0.057136
     9  C   -0.152812
    10  C    0.059696
    11  C    0.051242
    12  C   -0.029577
    13  C    0.012116
    14  C    0.251616
    15  O   -0.213910
    16  O   -0.345051
    17  N   -0.519173
    18  C    0.151812
    19  C   -0.176005
    20  C   -0.061521
    21  C    0.239327
    22  C    0.098430
    23  C    0.014572
    24  O   -0.246577
    25  C   -0.041525
    26  N   -0.283454
    27  C   -0.008535
    28  C   -0.112854
    29  C   -0.092155
    30  C    0.034274
    31  C    0.019675
    32  C   -0.001112
    33  C   -0.057738
    34  N   -0.414190
    35  C    0.116626
    36  C   -0.161532
    37  C   -0.023922
    38  C    0.174981
    39  C    0.071304
    40  C    0.136168
    41  O   -0.224090
    42  C   -0.113281
    43  C    0.253126
    44  O   -0.244193
    45  O   -0.335881
    46  C    0.125087
    47  C    0.297075
    48  C   -0.192013
    49  C   -0.196614
    50  C    0.029303
    51  C    0.037993
    52  C   -0.083840
    53  C    0.002223
    54  C   -0.187578
    55  C    0.002484
    56  C    0.023725
    57  C   -0.057423
    58  C   -0.010547
    59  C   -0.203194
    60  C   -0.003636
    61  C    0.073571
    62  C   -0.070638
    63  C    0.016795
    64  C   -0.220466
    65  C   -0.001839
    66  C    0.027499
    67  H   -0.004429
    68  H   -0.021963
    69  H   -0.007759
    70  H    0.021748
    71  H    0.022999
    72  H    0.036172
    73  H    0.042464
    74  H    0.044984
    75  H    0.031198
    76  H    0.078938
    77  H    0.042826
    78  H    0.035126
    79  H    0.061168
    80  H    0.023953
    81  H    0.066386
    82  H    0.053781
    83  H    0.049058
    84  H    0.066648
    85  H    0.042756
    86  H    0.036976
    87  H    0.051384
    88  H    0.049453
    89  H    0.023049
    90  H    0.045268
    91  H    0.035728
    92  H    0.025275
    93  H    0.059738
    94  H    0.043008
    95  H    0.068367
    96  H    0.033289
    97  H    0.064025
    98  H    0.058873
    99  H    0.074515
   100  H    0.062218
   101  H    0.035854
   102  H    0.030103
   103  H    0.030987
   104  H    0.009602
   105  H    0.050093
   106  H    0.041950
   107  H    0.055232
   108  H    0.034670
   109  H    0.030649
   110  H    0.026796
   111  H    0.027085
   112  H    0.039604
   113  H    0.022713
   114  H    0.021137
   115  H    0.016738
   116  H    0.031442
   117  H    0.024180
   118  H    0.005206
   119  H    0.028439
   120  H    0.022132
   121  H    0.027080
   122  H    0.022504
   123  H    0.005035
   124  H    0.017923
   125  H    0.011257
   126  H    0.038853
   127  H    0.030163
   128  H    0.021648
   129  H    0.023052
   130  H    0.015565
   131  H    0.018602
   132  H    0.017177
   133  H    0.006389
   134  H    0.021330
   135  H    0.034301
   136  H    0.007123
   137  H    0.027031
   138  H    0.022740
   139  H    0.027888
   140  H    0.026093
 Sum of Mulliken charges =  -0.00000

 Dipole moment (field-independent basis, Debye):
    X=              1.5253    Y=              0.4398    Z=              0.1200  Tot=              1.5920
 Quadrupole moment (field-independent basis, Debye-Ang):
   XX=           -362.3100   YY=           -426.6165   ZZ=           -394.7610
   XY=             31.4711   XZ=             13.7714   YZ=             33.3932

 Normal termination of Gaussian 16 at Thu Apr 28 22:37:48 2022.
