 Gaussian 16, Revision A.03,
 Gaussian 16:  ES64L-G16RevA.03 25-Dec-2016

 --------------------
 #p ZINDO=(nstates=5)
 --------------------

 ------------------------------
 step_1751_chromophore_20 ZINDO
 ------------------------------
 Symbolic Z-matrix:
 Charge =  0 Multiplicity = 1

                         Standard orientation:
 ---------------------------------------------------------------------
 Center     Atomic      Atomic             Coordinates (Angstroms)
 Number     Number       Type             X           Y           Z
 ---------------------------------------------------------------------
      1         12           0        4.343860    0.862716   -0.767049
      2          6           0        3.514047   -2.540921   -0.562767
      3          6           0        1.975403    1.269137   -3.065500
      4          6           0        4.656704    4.109215   -0.107332
      5          6           0        6.696549    0.226427    1.861170
      6          7           0        3.005136   -0.529234   -1.767925
      7          6           0        2.657029   -1.827180   -1.468581
      8          6           0        1.641238   -2.368193   -2.517866
      9          6           0        1.559248   -1.205123   -3.509426
     10          6           0        2.243334   -0.030704   -2.747741
     11          6           0        2.216926   -1.338954   -4.904162
     12          6           0        0.234299   -2.761429   -1.930522
     13          6           0       -0.588989   -3.774017   -2.626058
     14          6           0       -1.735655   -4.338099   -1.688673
     15          8           0       -1.534422   -4.486323   -0.520779
     16          8           0       -2.909027   -4.631846   -2.375682
     17          7           0        3.481646    2.490070   -1.536190
     18          6           0        2.529865    2.476274   -2.510815
     19          6           0        2.180181    3.823779   -2.871383
     20          6           0        2.887883    4.674075   -1.951307
     21          6           0        3.708873    3.776755   -1.076388
     22          6           0        1.299246    4.213686   -3.963930
     23          6           0        2.728822    6.135271   -1.960428
     24          8           0        2.233125    6.763879   -2.894252
     25          6           0        3.121630    6.912881   -0.647408
     26          7           0        5.379106    2.027316    0.846514
     27          6           0        5.417846    3.355422    0.779681
     28          6           0        6.356744    3.998501    1.845248
     29          6           0        6.985884    2.658277    2.560666
     30          6           0        6.293320    1.602710    1.731192
     31          6           0        7.354823    5.134075    1.351769
     32          6           0        6.789439    2.586959    4.098611
     33          6           0        8.102493    2.353846    4.943218
     34          7           0        5.070449   -0.784104    0.355387
     35          6           0        6.077891   -0.938067    1.330096
     36          6           0        6.334884   -2.341321    1.582195
     37          6           0        5.342859   -3.020888    0.875253
     38          6           0        4.566399   -1.999752    0.163551
     39          6           0        7.363781   -2.888891    2.398928
     40          6           0        4.832324   -4.325274    0.567192
     41          8           0        5.156716   -5.458259    0.955944
     42          6           0        3.575254   -4.055534   -0.417180
     43          6           0        2.322803   -4.585139    0.266927
     44          8           0        1.839849   -4.073624    1.259253
     45          8           0        1.970083   -5.767394   -0.275311
     46          6           0        1.255482   -6.614148    0.640676
     47          6           0       -3.989937   -5.058944   -1.605431
     48          6           0       -4.664844   -3.857261   -1.014554
     49          6           0       -4.974612   -3.350319    0.181272
     50          6           0       -4.490340   -4.027933    1.544363
     51          6           0       -5.759853   -2.044547    0.175617
     52          6           0       -4.842926   -0.880847    0.753213
     53          6           0       -4.842693   -0.667067    2.328993
     54          6           0       -5.585740    0.658169    2.784512
     55          6           0       -4.697242    1.853224    3.249017
     56          6           0       -6.621638    0.248886    3.870668
     57          6           0       -8.015511   -0.074079    3.312235
     58          6           0       -9.085968    1.000551    3.680439
     59          6           0       -9.353112    2.042223    2.524581
     60          6           0       -9.854601    3.430193    3.122690
     61          6           0      -10.237408    1.537213    1.365177
     62          6           0       -9.480120    1.324603    0.049854
     63          6           0      -10.205339    1.784648   -1.210822
     64          6           0       -9.492074    2.949622   -1.918376
     65          6           0      -10.502855    3.686873   -2.829206
     66          6           0       -8.288312    2.568491   -2.690697
     67          1           0        1.213800    1.429341   -3.831762
     68          1           0        4.901040    5.148818    0.120702
     69          1           0        7.514050    0.015879    2.554935
     70          1           0        2.105326   -3.179826   -3.078786
     71          1           0        0.494335   -1.035883   -3.671241
     72          1           0        2.703068   -2.306148   -5.035391
     73          1           0        2.976123   -0.557395   -4.889475
     74          1           0        1.457492   -1.144734   -5.661034
     75          1           0       -0.392461   -1.874191   -2.017730
     76          1           0        0.414146   -3.060093   -0.897042
     77          1           0        0.183385   -4.501555   -2.872443
     78          1           0       -0.891256   -3.431900   -3.615822
     79          1           0        0.407747    4.585325   -3.458450
     80          1           0        1.143333    3.363942   -4.628832
     81          1           0        1.741339    4.996658   -4.579500
     82          1           0        2.827291    6.296445    0.202186
     83          1           0        2.563273    7.848238   -0.640073
     84          1           0        4.178895    7.180611   -0.653813
     85          1           0        5.783498    4.516107    2.613693
     86          1           0        8.044322    2.650576    2.300761
     87          1           0        7.238149    6.105096    1.832115
     88          1           0        7.381700    5.126446    0.262006
     89          1           0        8.275743    4.675817    1.711544
     90          1           0        6.157140    1.715358    4.267484
     91          1           0        6.275110    3.508253    4.370153
     92          1           0        8.955492    2.288618    4.267399
     93          1           0        8.068636    1.452965    5.556247
     94          1           0        8.252000    3.326096    5.412988
     95          1           0        7.093499   -2.955113    3.452511
     96          1           0        8.217369   -2.217723    2.308533
     97          1           0        7.621425   -3.861191    1.977969
     98          1           0        3.699046   -4.614421   -1.344686
     99          1           0        0.556667   -6.066164    1.272597
    100          1           0        1.908722   -7.281507    1.204461
    101          1           0        0.620806   -7.242235    0.015896
    102          1           0       -3.783445   -5.855541   -0.890150
    103          1           0       -4.670619   -5.504233   -2.330567
    104          1           0       -5.053797   -3.276940   -1.851577
    105          1           0       -5.319893   -4.564774    2.002758
    106          1           0       -4.155211   -3.206766    2.178624
    107          1           0       -3.620755   -4.647112    1.322913
    108          1           0       -6.641501   -2.136652    0.810020
    109          1           0       -6.004552   -1.681109   -0.822469
    110          1           0       -5.047760    0.052078    0.228137
    111          1           0       -3.816544   -1.144557    0.500559
    112          1           0       -3.800792   -0.648828    2.646459
    113          1           0       -5.429841   -1.509861    2.695110
    114          1           0       -6.072414    1.076447    1.903093
    115          1           0       -4.891396    2.790858    2.729017
    116          1           0       -3.645226    1.647434    3.053993
    117          1           0       -4.950055    2.191180    4.254396
    118          1           0       -6.692447    1.116404    4.526657
    119          1           0       -6.300614   -0.636679    4.418413
    120          1           0       -8.379812   -1.034753    3.675197
    121          1           0       -7.904585   -0.082359    2.229052
    122          1           0       -8.974351    1.493410    4.646099
    123          1           0       -9.939719    0.331184    3.785858
    124          1           0       -8.300708    2.208902    2.295486
    125          1           0       -9.869043    3.333826    4.208682
    126          1           0      -10.843821    3.820702    2.883981
    127          1           0       -9.035931    4.111468    2.888735
    128          1           0      -10.975557    2.286208    1.079483
    129          1           0      -10.623538    0.553202    1.631995
    130          1           0       -9.437589    0.250333   -0.128253
    131          1           0       -8.488084    1.756834    0.178035
    132          1           0      -11.263190    1.881749   -0.964159
    133          1           0      -10.108089    0.921574   -1.868256
    134          1           0       -9.142127    3.679554   -1.189085
    135          1           0      -10.247436    4.743366   -2.749906
    136          1           0      -11.518793    3.536337   -2.463075
    137          1           0      -10.660898    3.319115   -3.842983
    138          1           0       -7.427224    2.990862   -2.174380
    139          1           0       -8.242940    3.035773   -3.674596
    140          1           0       -8.223613    1.484323   -2.779386
 ---------------------------------------------------------------------

 SCF Done:  E(RZINDO/S) =  -474.348653619     A.U. after   19 cycles

 Excitation energies and oscillator strengths:

 Excited State   1:      Singlet-A      1.2658 eV  979.48 nm  f=0.5594  <S**2>=0.000
     175 ->178        -0.20939
     176 ->177         0.65798
 This state for optimization and/or second-order correction.
 Total Energy, E(CIS/TDA) =  -474.302135590
 Copying the excited state density for this state as the 1-particle RhoCI density.

 Excited State   2:      Singlet-A      1.8753 eV  661.14 nm  f=0.0077  <S**2>=0.000
     175 ->177         0.50416
     176 ->178         0.47438

 Excited State   3:      Singlet-A      2.8837 eV  429.95 nm  f=0.2538  <S**2>=0.000
     168 ->177        -0.11015
     168 ->179         0.12943
     175 ->177        -0.24281
     176 ->178         0.30207
     176 ->179         0.51644

 Excited State   4:      Singlet-A      2.9792 eV  416.17 nm  f=0.5196  <S**2>=0.000
     168 ->177         0.28738
     168 ->179        -0.33055
     168 ->180        -0.16386
     168 ->185         0.16298
     175 ->177        -0.27674
     176 ->178         0.29790
     176 ->179        -0.11039

 Excited State   5:      Singlet-A      3.0013 eV  413.10 nm  f=0.4650  <S**2>=0.000
     168 ->177         0.21310
     168 ->179        -0.24904
     168 ->180        -0.12116
     168 ->185         0.11582
     175 ->177         0.24968
     176 ->178        -0.24345
     176 ->179         0.39435
     176 ->180        -0.17697

 The electronic state is 1-A.
 Alpha  occ. eigenvalues --   -1.83808  -1.80741  -1.80232  -1.74740  -1.74122
 Alpha  occ. eigenvalues --   -1.70929  -1.65465  -1.60633  -1.57408  -1.57149
 Alpha  occ. eigenvalues --   -1.55375  -1.53666  -1.48769  -1.47754  -1.47431
 Alpha  occ. eigenvalues --   -1.45233  -1.43047  -1.40385  -1.37956  -1.37422
 Alpha  occ. eigenvalues --   -1.36615  -1.35302  -1.31872  -1.30670  -1.28354
 Alpha  occ. eigenvalues --   -1.27364  -1.26018  -1.22639  -1.19000  -1.18035
 Alpha  occ. eigenvalues --   -1.17492  -1.16097  -1.16016  -1.13847  -1.13357
 Alpha  occ. eigenvalues --   -1.12581  -1.10672  -1.08470  -1.04781  -1.03226
 Alpha  occ. eigenvalues --   -1.01961  -1.01142  -0.97659  -0.96914  -0.96428
 Alpha  occ. eigenvalues --   -0.94960  -0.93299  -0.92902  -0.92605  -0.91813
 Alpha  occ. eigenvalues --   -0.91110  -0.90919  -0.89197  -0.88811  -0.86597
 Alpha  occ. eigenvalues --   -0.86507  -0.84131  -0.83257  -0.82337  -0.80466
 Alpha  occ. eigenvalues --   -0.79487  -0.79177  -0.77824  -0.76939  -0.76488
 Alpha  occ. eigenvalues --   -0.75668  -0.75124  -0.74164  -0.73506  -0.73235
 Alpha  occ. eigenvalues --   -0.72759  -0.72068  -0.71536  -0.71158  -0.70908
 Alpha  occ. eigenvalues --   -0.70722  -0.68879  -0.68605  -0.68446  -0.67668
 Alpha  occ. eigenvalues --   -0.67621  -0.67220  -0.66475  -0.66344  -0.65732
 Alpha  occ. eigenvalues --   -0.64999  -0.64667  -0.64615  -0.64456  -0.63687
 Alpha  occ. eigenvalues --   -0.63603  -0.63111  -0.62681  -0.62205  -0.61961
 Alpha  occ. eigenvalues --   -0.61751  -0.61279  -0.60763  -0.60395  -0.60220
 Alpha  occ. eigenvalues --   -0.59930  -0.58708  -0.58021  -0.57475  -0.57352
 Alpha  occ. eigenvalues --   -0.57198  -0.56886  -0.56472  -0.56334  -0.55790
 Alpha  occ. eigenvalues --   -0.55671  -0.55446  -0.55408  -0.54715  -0.54659
 Alpha  occ. eigenvalues --   -0.54286  -0.54234  -0.53856  -0.52852  -0.52608
 Alpha  occ. eigenvalues --   -0.52370  -0.51995  -0.51672  -0.51386  -0.50983
 Alpha  occ. eigenvalues --   -0.50619  -0.50355  -0.50141  -0.49658  -0.49466
 Alpha  occ. eigenvalues --   -0.49225  -0.49179  -0.49161  -0.48414  -0.48061
 Alpha  occ. eigenvalues --   -0.48020  -0.47941  -0.47809  -0.47577  -0.47486
 Alpha  occ. eigenvalues --   -0.47172  -0.46732  -0.46625  -0.46431  -0.46112
 Alpha  occ. eigenvalues --   -0.45984  -0.45863  -0.45729  -0.45636  -0.45315
 Alpha  occ. eigenvalues --   -0.45151  -0.44706  -0.44563  -0.44482  -0.43768
 Alpha  occ. eigenvalues --   -0.43745  -0.42952  -0.42670  -0.41924  -0.41834
 Alpha  occ. eigenvalues --   -0.41522  -0.41134  -0.41006  -0.39158  -0.38766
 Alpha  occ. eigenvalues --   -0.37835  -0.37417  -0.35657  -0.34610  -0.34496
 Alpha  occ. eigenvalues --   -0.33421  -0.32672  -0.32085  -0.31729  -0.26567
 Alpha  occ. eigenvalues --   -0.21680
 Alpha virt. eigenvalues --   -0.08157  -0.02743  -0.00946   0.01424   0.01846
 Alpha virt. eigenvalues --    0.02265   0.02903   0.03266   0.04755   0.05892
 Alpha virt. eigenvalues --    0.06521   0.07136   0.07411   0.07830   0.08191

 Mulliken charges:
               1
     1  Mg   0.432878
     2  C   -0.046958
     3  C   -0.079793
     4  C   -0.065841
     5  C   -0.075617
     6  N   -0.281963
     7  C    0.127014
     8  C    0.004776
     9  C   -0.009463
    10  C    0.129367
    11  C   -0.053750
    12  C   -0.020233
    13  C    0.002318
    14  C    0.467594
    15  O   -0.485457
    16  O   -0.262487
    17  N   -0.308240
    18  C    0.090921
    19  C    0.032887
    20  C   -0.065950
    21  C    0.103169
    22  C   -0.032257
    23  C    0.321692
    24  O   -0.533376
    25  C   -0.038446
    26  N   -0.248931
    27  C    0.113010
    28  C   -0.019392
    29  C   -0.002101
    30  C    0.143528
    31  C   -0.060545
    32  C   -0.030066
    33  C   -0.063775
    34  N   -0.331003
    35  C    0.094448
    36  C    0.073066
    37  C   -0.057417
    38  C    0.140408
    39  C   -0.029427
    40  C    0.333396
    41  O   -0.522123
    42  C    0.046956
    43  C    0.488549
    44  O   -0.519887
    45  O   -0.260342
    46  C    0.078180
    47  C    0.121139
    48  C   -0.084481
    49  C   -0.007430
    50  C   -0.048320
    51  C   -0.016749
    52  C   -0.046918
    53  C   -0.041020
    54  C   -0.018481
    55  C   -0.064102
    56  C   -0.035643
    57  C   -0.039655
    58  C   -0.044624
    59  C   -0.020138
    60  C   -0.069963
    61  C   -0.032447
    62  C   -0.046958
    63  C   -0.034072
    64  C   -0.000548
    65  C   -0.065046
    66  C   -0.049431
    67  H    0.025089
    68  H    0.020731
    69  H    0.021155
    70  H    0.028455
    71  H    0.020034
    72  H    0.023148
    73  H    0.027836
    74  H    0.024920
    75  H    0.022189
    76  H    0.046119
    77  H    0.037176
    78  H    0.031325
    79  H    0.044125
    80  H    0.017616
    81  H    0.042498
    82  H    0.030921
    83  H    0.032645
    84  H    0.040592
    85  H    0.028151
    86  H    0.033564
    87  H    0.034847
    88  H    0.031596
    89  H    0.016092
    90  H    0.023771
    91  H    0.029440
    92  H    0.015916
    93  H    0.036252
    94  H    0.024241
    95  H    0.045478
    96  H    0.021024
    97  H    0.037618
    98  H    0.051127
    99  H    0.056480
   100  H    0.046542
   101  H    0.018991
   102  H    0.044167
   103  H    0.024415
   104  H    0.007449
   105  H    0.032254
   106  H    0.029491
   107  H    0.037694
   108  H    0.026848
   109  H    0.026260
   110  H    0.017753
   111  H    0.016477
   112  H    0.030513
   113  H    0.026964
   114  H    0.021715
   115  H    0.010594
   116  H    0.023075
   117  H    0.022374
   118  H    0.016432
   119  H    0.021441
   120  H    0.017553
   121  H    0.022492
   122  H    0.028656
   123  H    0.004009
   124  H    0.024483
   125  H    0.011556
   126  H    0.028942
   127  H    0.018360
   128  H    0.027281
   129  H    0.025925
   130  H    0.010592
   131  H    0.025166
   132  H    0.025990
   133  H    0.010907
   134  H    0.018459
   135  H    0.019712
   136  H    0.005303
   137  H    0.024696
   138  H    0.012927
   139  H    0.016661
   140  H    0.022282
 Sum of Mulliken charges =  -0.00000

 Dipole moment (field-independent basis, Debye):
    X=              2.9418    Y=             -0.0337    Z=             -0.3925  Tot=              2.9681
 N-N= 4.511328523065D+03 E-N= 0.000000000000D+00  KE=-9.697706449840D+03
 Leave Link  601 at Thu Apr 28 22:53:59 2022, MaxMem=  6710886400 cpu:               3.0 elap:               0.2
 (Enter /sw/apps/gaussian-16.0/g16/l9999.exe)
 1\1\GINC-BP1-COMPUTE150\SP\RZINDO CIS\STO-3G\C55H74Mg1N4O6\OF15641\28-
 Apr-2022\0\\#p ZINDO=(nstates=5)\\step_1751_chromophore_20 ZINDO\\0,1\
 Mg,0,7.096,57.088,41.74\C,0,6.079,53.795,41.079\C,0,10.143,56.333,40.6
 43\C,0,7.539,60.381,41.559\C,0,3.697,57.72,42.686\N,0,8.003,55.229,41.
 067\C,0,7.441,54.031,40.687\C,0,8.553,53.019,40.281\C,0,9.828,53.805,4
 0.596\C,0,9.314,55.261,40.804\C,0,10.692,53.407,41.817\C,0,8.493,52.54
 1,38.782\C,0,9.064,51.228,38.412\C,0,8.543,50.743,36.996\O,0,7.423,50.

 Normal termination of Gaussian 16 at Thu Apr 28 22:53:59 2022.
