 Gaussian 16, Revision A.03,
 Gaussian 16:  ES64L-G16RevA.03 25-Dec-2016

 ------------------------------
 #p blyp/Def2SVP td=(nstates=5)
 ------------------------------

 -------------------------------------------------
 step_301_chromophore_5 TDDFT with blyp functional
 -------------------------------------------------
 Symbolic Z-matrix:
 Charge =  0 Multiplicity = 1

                         Standard orientation:
 ---------------------------------------------------------------------
 Center     Atomic      Atomic             Coordinates (Angstroms)
 Number     Number       Type             X           Y           Z
 ---------------------------------------------------------------------
      1         12           0        5.180715    0.513169   -0.541072
      2          6           0        3.890524   -2.749550   -0.213246
      3          6           0        2.674234    1.136695   -2.796237
      4          6           0        5.730124    3.833671    0.004908
      5          6           0        7.402327   -0.248041    2.032161
      6          7           0        3.447758   -0.648541   -1.246588
      7          6           0        3.120515   -1.944618   -1.019621
      8          6           0        1.878847   -2.407763   -1.687058
      9          6           0        1.710278   -1.264505   -2.735275
     10          6           0        2.674897   -0.149329   -2.203382
     11          6           0        2.031290   -1.709509   -4.146957
     12          6           0        0.619929   -2.587762   -0.814820
     13          6           0       -0.528811   -3.415553   -1.319622
     14          6           0       -1.828590   -2.685098   -1.557939
     15          8           0       -2.333707   -2.448775   -2.612138
     16          8           0       -2.451419   -2.479348   -0.363822
     17          7           0        4.319769    2.232527   -1.351438
     18          6           0        3.465994    2.257240   -2.394668
     19          6           0        3.367962    3.636076   -2.813814
     20          6           0        4.098719    4.406075   -1.921549
     21          6           0        4.807164    3.516887   -1.075453
     22          6           0        2.444627    4.098244   -3.935989
     23          6           0        4.221399    5.917797   -2.030088
     24          8           0        3.819020    6.594130   -2.939453
     25          6           0        4.961000    6.691035   -0.945642
     26          7           0        6.257724    1.615721    0.971899
     27          6           0        6.401592    2.937211    0.842238
     28          6           0        7.522584    3.504745    1.780203
     29          6           0        8.068414    2.185312    2.420325
     30          6           0        7.231115    1.070021    1.758587
     31          6           0        8.585209    4.519597    1.118177
     32          6           0        8.033802    2.080292    4.033551
     33          6           0        9.246142    1.498882    4.782594
     34          7           0        5.713073   -1.232803    0.657176
     35          6           0        6.634237   -1.352843    1.614194
     36          6           0        6.707948   -2.752668    2.015649
     37          6           0        5.613923   -3.317917    1.335785
     38          6           0        5.064192   -2.356848    0.509715
     39          6           0        7.684971   -3.324507    3.085147
     40          6           0        4.813209   -4.540720    1.203897
     41          8           0        4.861817   -5.591647    1.781753
     42          6           0        3.722017   -4.195821    0.177628
     43          6           0        3.732840   -5.124370   -0.951435
     44          8           0        2.739671   -5.836843   -1.219508
     45          8           0        4.910847   -5.086169   -1.607579
     46          6           0        4.919057   -5.715378   -2.946017
     47          6           0       -3.724453   -1.796733   -0.356504
     48          6           0       -3.688945   -0.607186    0.553483
     49          6           0       -4.316285   -0.255116    1.735938
     50          6           0       -5.109112   -1.146479    2.596111
     51          6           0       -4.098363    1.197481    2.228123
     52          6           0       -4.899402    2.354960    1.550529
     53          6           0       -6.442112    2.356364    1.819856
     54          6           0       -7.392794    2.622826    0.598683
     55          6           0       -7.747752    4.137694    0.435009
     56          6           0       -8.730560    1.843774    0.544801
     57          6           0       -8.525221    0.327997    0.286909
     58          6           0       -9.268014   -0.521080    1.263501
     59          6           0      -10.646979   -0.819771    0.711521
     60          6           0      -10.462659   -2.100861   -0.082651
     61          6           0      -11.676713   -0.952906    1.819435
     62          6           0      -12.711624    0.222032    1.622280
     63          6           0      -13.861262   -0.222144    0.728834
     64          6           0      -14.578550    0.960482   -0.018325
     65          6           0      -16.117786    0.627962   -0.339798
     66          6           0      -13.801331    1.077983   -1.338347
     67          1           0        1.918522    1.285185   -3.570908
     68          1           0        6.037169    4.851083    0.256591
     69          1           0        8.183477   -0.551589    2.731638
     70          1           0        2.094802   -3.425795   -2.012498
     71          1           0        0.657009   -0.999410   -2.824267
     72          1           0        2.924754   -1.152925   -4.429336
     73          1           0        1.161145   -1.442446   -4.747390
     74          1           0        2.201021   -2.781445   -4.044640
     75          1           0        0.292726   -1.598893   -0.493183
     76          1           0        1.024504   -2.974576    0.120155
     77          1           0       -0.638222   -4.280316   -0.665747
     78          1           0       -0.366234   -3.826705   -2.315405
     79          1           0        1.484954    4.443555   -3.551976
     80          1           0        2.244722    3.233091   -4.568392
     81          1           0        2.643851    4.896708   -4.651695
     82          1           0        6.032608    6.541354   -1.076553
     83          1           0        4.534567    6.345848   -0.003077
     84          1           0        4.727933    7.750691   -1.050551
     85          1           0        6.993999    4.049751    2.561320
     86          1           0        9.091738    2.027937    2.079752
     87          1           0        8.245113    5.475405    1.514906
     88          1           0        8.544057    4.554758    0.029159
     89          1           0        9.591766    4.305190    1.478446
     90          1           0        7.134653    1.637030    4.461529
     91          1           0        7.910177    3.123701    4.322521
     92          1           0        9.374604    1.990771    5.746785
     93          1           0       10.170714    1.485464    4.206497
     94          1           0        8.943645    0.494368    5.079015
     95          1           0        7.115618   -3.301244    4.014644
     96          1           0        8.638325   -2.817154    3.240480
     97          1           0        7.985069   -4.354998    2.899270
     98          1           0        2.759372   -4.195486    0.690051
     99          1           0        4.914271   -4.933147   -3.705109
    100          1           0        4.064801   -6.376615   -3.093851
    101          1           0        5.793585   -6.342508   -3.118302
    102          1           0       -4.500952   -2.504215   -0.062909
    103          1           0       -3.978138   -1.362374   -1.323796
    104          1           0       -3.237827    0.222701    0.009509
    105          1           0       -5.931503   -0.444494    2.733119
    106          1           0       -4.451340   -1.267989    3.457532
    107          1           0       -5.351575   -2.101329    2.129250
    108          1           0       -3.050079    1.426785    2.041252
    109          1           0       -4.238149    1.349527    3.298569
    110          1           0       -4.569893    2.510857    0.523243
    111          1           0       -4.562554    3.264109    2.049138
    112          1           0       -6.506788    3.152181    2.562996
    113          1           0       -6.803076    1.483896    2.364171
    114          1           0       -6.814865    2.338953   -0.280494
    115          1           0       -7.436439    4.636554    1.352656
    116          1           0       -8.795585    4.376410    0.251758
    117          1           0       -7.257073    4.551741   -0.446100
    118          1           0       -9.308095    2.135310   -0.331259
    119          1           0       -9.324954    2.012313    1.442978
    120          1           0       -7.465961    0.095126    0.398961
    121          1           0       -8.715943    0.197047   -0.777742
    122          1           0       -9.293742   -0.010385    2.226863
    123          1           0       -8.695486   -1.444487    1.352432
    124          1           0      -10.862863   -0.062262   -0.042259
    125          1           0       -9.526841   -2.146396   -0.639383
    126          1           0      -11.236541   -2.190492   -0.846092
    127          1           0      -10.653410   -2.995925    0.509852
    128          1           0      -11.173164   -0.933783    2.786514
    129          1           0      -12.247617   -1.881698    1.794832
    130          1           0      -12.182928    1.123436    1.310298
    131          1           0      -13.337531    0.317440    2.509282
    132          1           0      -14.674958   -0.634120    1.327579
    133          1           0      -13.555463   -1.008014    0.038931
    134          1           0      -14.471176    1.846845    0.606011
    135          1           0      -16.352653    0.407366   -1.381716
    136          1           0      -16.757297    1.477560   -0.100420
    137          1           0      -16.572191   -0.104040    0.328049
    138          1           0      -13.674711    2.114803   -1.650343
    139          1           0      -14.302276    0.619052   -2.190313
    140          1           0      -12.808432    0.632667   -1.273334
 ---------------------------------------------------------------------

 SCF Done:  E(RB-LYP) =  -3007.35858619     A.U. after   21 cycles

 Excitation energies and oscillator strengths:

 Excited State   1:      Singlet-A      1.7640 eV  702.85 nm  f=0.0205  <S**2>=0.000
     244 -> 247        0.68376
     246 -> 247       -0.16160
 This state for optimization and/or second-order correction.
 Total Energy, E(TD-HF/TD-DFT) =  -3007.29376008
 Copying the excited state density for this state as the 1-particle RhoCI density.

 Excited State   2:      Singlet-A      1.8426 eV  672.89 nm  f=0.1719  <S**2>=0.000
     243 -> 247       -0.39194
     244 -> 247        0.16609
     245 -> 247        0.16391
     245 -> 248        0.13552
     246 -> 247        0.53109
     246 <- 247       -0.11740

 Excited State   3:      Singlet-A      1.8740 eV  661.62 nm  f=0.1449  <S**2>=0.000
     243 -> 247        0.49381
     245 -> 247       -0.26157
     245 -> 248        0.11005
     246 -> 247        0.41779

 Excited State   4:      Singlet-A      2.0792 eV  596.31 nm  f=0.0745  <S**2>=0.000
     242 -> 247        0.28847
     243 -> 247        0.28700
     245 -> 247        0.52839
     246 -> 248       -0.19417

 Excited State   5:      Singlet-A      2.0963 eV  591.45 nm  f=0.0137  <S**2>=0.000
     242 -> 247        0.64512
     243 -> 247       -0.11854
     245 -> 247       -0.23900

 The electronic state is 1-A.
 Alpha  occ. eigenvalues --  -46.28349 -18.83480 -18.81265 -18.76728 -18.76591
 Alpha  occ. eigenvalues --  -18.75778 -18.75589 -14.03762 -14.03305 -14.01421
 Alpha  occ. eigenvalues --  -14.00320 -10.04310 -10.03526  -9.99634  -9.99418
 Alpha  occ. eigenvalues --   -9.98409  -9.97192  -9.97014  -9.96754  -9.96674
 Alpha  occ. eigenvalues --   -9.96298  -9.96220  -9.95921  -9.95039  -9.94567
 Alpha  occ. eigenvalues --   -9.94377  -9.93882  -9.93858  -9.93592  -9.93569
 Alpha  occ. eigenvalues --   -9.93550  -9.93514  -9.93500  -9.93328  -9.93308
 Alpha  occ. eigenvalues --   -9.93301  -9.93288  -9.93277  -9.92936  -9.92913
 Alpha  occ. eigenvalues --   -9.92888  -9.92476  -9.92456  -9.92443  -9.92432
 Alpha  occ. eigenvalues --   -9.92368  -9.92253  -9.92214  -9.92093  -9.91884
 Alpha  occ. eigenvalues --   -9.91870  -9.91802  -9.91546  -9.91198  -9.91112
 Alpha  occ. eigenvalues --   -9.91040  -9.90978  -9.90923  -9.90906  -9.90658
 Alpha  occ. eigenvalues --   -9.90622  -9.90589  -9.90417  -9.90286  -9.90269
 Alpha  occ. eigenvalues --   -9.90255  -2.92844  -1.73240  -1.72741  -1.72556
 Alpha  occ. eigenvalues --   -0.98480  -0.98425  -0.92632  -0.92512  -0.90721
 Alpha  occ. eigenvalues --   -0.89180  -0.88120  -0.87339  -0.86505  -0.85728
 Alpha  occ. eigenvalues --   -0.76426  -0.74071  -0.73648  -0.73208  -0.72254
 Alpha  occ. eigenvalues --   -0.71780  -0.71534  -0.71190  -0.70787  -0.69931
 Alpha  occ. eigenvalues --   -0.69528  -0.69470  -0.68224  -0.67918  -0.67608
 Alpha  occ. eigenvalues --   -0.66598  -0.66195  -0.65720  -0.65469  -0.64820
 Alpha  occ. eigenvalues --   -0.64218  -0.62797  -0.62501  -0.62118  -0.61355
 Alpha  occ. eigenvalues --   -0.60713  -0.60106  -0.59808  -0.59263  -0.58744
 Alpha  occ. eigenvalues --   -0.58465  -0.57654  -0.56682  -0.55725  -0.54883
 Alpha  occ. eigenvalues --   -0.54220  -0.53466  -0.52999  -0.52600  -0.52028
 Alpha  occ. eigenvalues --   -0.51953  -0.51370  -0.50923  -0.50649  -0.50068
 Alpha  occ. eigenvalues --   -0.49916  -0.49609  -0.49145  -0.49132  -0.46661
 Alpha  occ. eigenvalues --   -0.46441  -0.46247  -0.45682  -0.45363  -0.44838
 Alpha  occ. eigenvalues --   -0.44461  -0.44082  -0.43395  -0.42977  -0.42758
 Alpha  occ. eigenvalues --   -0.42356  -0.42156  -0.41711  -0.41346  -0.41099
 Alpha  occ. eigenvalues --   -0.40875  -0.40603  -0.40475  -0.40116  -0.39994
 Alpha  occ. eigenvalues --   -0.39844  -0.39714  -0.39407  -0.39309  -0.39107
 Alpha  occ. eigenvalues --   -0.39011  -0.38954  -0.38803  -0.38588  -0.38478
 Alpha  occ. eigenvalues --   -0.38206  -0.38114  -0.38008  -0.37741  -0.37555
 Alpha  occ. eigenvalues --   -0.37288  -0.37194  -0.36886  -0.36628  -0.36435
 Alpha  occ. eigenvalues --   -0.36294  -0.36018  -0.35885  -0.35864  -0.35537
 Alpha  occ. eigenvalues --   -0.35504  -0.35294  -0.35172  -0.35106  -0.34960
 Alpha  occ. eigenvalues --   -0.34764  -0.34565  -0.34341  -0.34151  -0.34046
 Alpha  occ. eigenvalues --   -0.33873  -0.33762  -0.33528  -0.33296  -0.33139
 Alpha  occ. eigenvalues --   -0.32864  -0.32803  -0.32629  -0.32572  -0.32350
 Alpha  occ. eigenvalues --   -0.32216  -0.32003  -0.31889  -0.31703  -0.31369
 Alpha  occ. eigenvalues --   -0.31260  -0.31114  -0.31043  -0.30904  -0.30702
 Alpha  occ. eigenvalues --   -0.30659  -0.30413  -0.30311  -0.30281  -0.29803
 Alpha  occ. eigenvalues --   -0.29663  -0.29338  -0.29253  -0.29144  -0.29000
 Alpha  occ. eigenvalues --   -0.28841  -0.28571  -0.28341  -0.28061  -0.27971
 Alpha  occ. eigenvalues --   -0.27670  -0.27557  -0.27106  -0.26780  -0.26666
 Alpha  occ. eigenvalues --   -0.26380  -0.26083  -0.26078  -0.25664  -0.25481
 Alpha  occ. eigenvalues --   -0.24633  -0.24576  -0.24334  -0.24258  -0.23731
 Alpha  occ. eigenvalues --   -0.23328  -0.22454  -0.22298  -0.21609  -0.20950
 Alpha  occ. eigenvalues --   -0.20485  -0.19637  -0.18806  -0.18376  -0.17619
 Alpha  occ. eigenvalues --   -0.16266
 Alpha virt. eigenvalues --   -0.11946  -0.06587  -0.05744  -0.04402  -0.04276
 Alpha virt. eigenvalues --   -0.03040  -0.02674  -0.01899  -0.01352   0.00144
 Alpha virt. eigenvalues --    0.01387   0.01896   0.02273   0.02393   0.02996

 Mulliken charges:
               1
     1  Mg   0.682512
     2  C   -0.025040
     3  C   -0.064736
     4  C   -0.029626
     5  C   -0.058704
     6  N   -0.171296
     7  C   -0.103773
     8  C   -0.007769
     9  C   -0.046599
    10  C    0.053222
    11  C    0.154582
    12  C    0.128593
    13  C    0.201090
    14  C    0.024086
    15  O   -0.159762
    16  O   -0.263659
    17  N   -0.309123
    18  C    0.132031
    19  C   -0.108070
    20  C    0.033645
    21  C    0.141925
    22  C    0.149654
    23  C   -0.109329
    24  O   -0.134925
    25  C    0.143344
    26  N   -0.205981
    27  C   -0.032059
    28  C    0.005239
    29  C    0.051423
    30  C    0.039746
    31  C    0.111850
    32  C    0.068568
    33  C    0.076881
    34  N   -0.160338
    35  C    0.040458
    36  C   -0.168457
    37  C    0.072774
    38  C    0.021889
    39  C    0.145179
    40  C   -0.061895
    41  O   -0.092004
    42  C    0.153954
    43  C    0.105360
    44  O   -0.205205
    45  O   -0.259609
    46  C    0.200442
    47  C    0.339253
    48  C   -0.114480
    49  C   -0.161870
    50  C    0.183733
    51  C    0.096797
    52  C    0.077374
    53  C    0.097568
    54  C   -0.064468
    55  C    0.107595
    56  C    0.081373
    57  C    0.039022
    58  C    0.139444
    59  C   -0.093534
    60  C    0.102420
    61  C    0.155093
    62  C    0.065682
    63  C    0.055659
    64  C   -0.065074
    65  C    0.091150
    66  C    0.100838
    67  H   -0.053208
    68  H   -0.078807
    69  H   -0.078054
    70  H   -0.022134
    71  H   -0.025004
    72  H   -0.013382
    73  H    0.003556
    74  H   -0.008241
    75  H   -0.028730
    76  H   -0.044009
    77  H    0.008320
    78  H   -0.014133
    79  H   -0.002056
    80  H   -0.022012
    81  H    0.003206
    82  H    0.021447
    83  H    0.004682
    84  H   -0.014168
    85  H   -0.017049
    86  H   -0.031049
    87  H   -0.000328
    88  H    0.007868
    89  H    0.000504
    90  H   -0.016781
    91  H   -0.032983
    92  H   -0.012528
    93  H   -0.000362
    94  H   -0.005350
    95  H    0.011687
    96  H   -0.006818
    97  H    0.004320
    98  H   -0.008780
    99  H    0.018107
   100  H    0.027496
   101  H    0.021632
   102  H   -0.023309
   103  H   -0.006058
   104  H   -0.043712
   105  H    0.004377
   106  H    0.013504
   107  H   -0.006247
   108  H   -0.020069
   109  H   -0.038730
   110  H   -0.022700
   111  H   -0.034768
   112  H   -0.036596
   113  H   -0.031470
   114  H   -0.034106
   115  H   -0.021591
   116  H   -0.019947
   117  H   -0.017707
   118  H   -0.032161
   119  H   -0.025040
   120  H   -0.040665
   121  H   -0.033320
   122  H   -0.040163
   123  H   -0.043210
   124  H   -0.015883
   125  H   -0.018461
   126  H   -0.035985
   127  H   -0.020340
   128  H   -0.039590
   129  H   -0.041069
   130  H   -0.011458
   131  H   -0.035789
   132  H   -0.044972
   133  H   -0.028161
   134  H   -0.028988
   135  H   -0.007157
   136  H   -0.026729
   137  H   -0.020308
   138  H   -0.025666
   139  H   -0.018858
   140  H   -0.017819
 Sum of Mulliken charges =  -0.00000

 Dipole moment (field-independent basis, Debye):
    X=              2.9000    Y=              3.1293    Z=              1.7280  Tot=              4.6031
 Quadrupole moment (field-independent basis, Debye-Ang):
   XX=           -350.2427   YY=           -451.0833   ZZ=           -399.2256
   XY=              9.5780   XZ=             -3.7114   YZ=             30.2134

 Normal termination of Gaussian 16 at Fri Apr 29 14:28:22 2022.
