 Gaussian 16, Revision A.03,
 Gaussian 16:  ES64L-G16RevA.03 25-Dec-2016

 -----------------------------------
 #p cam-b3lyp/Def2SVP td=(nstates=5)
 -----------------------------------

 ------------------------------------------------------
 step_301_chromophore_5 TDDFT with cam-b3lyp functional
 ------------------------------------------------------
 Symbolic Z-matrix:
 Charge =  0 Multiplicity = 1

                         Standard orientation:
 ---------------------------------------------------------------------
 Center     Atomic      Atomic             Coordinates (Angstroms)
 Number     Number       Type             X           Y           Z
 ---------------------------------------------------------------------
      1         12           0        5.180715    0.513169   -0.541072
      2          6           0        3.890524   -2.749550   -0.213246
      3          6           0        2.674234    1.136695   -2.796237
      4          6           0        5.730124    3.833671    0.004908
      5          6           0        7.402327   -0.248041    2.032161
      6          7           0        3.447758   -0.648541   -1.246588
      7          6           0        3.120515   -1.944618   -1.019621
      8          6           0        1.878847   -2.407763   -1.687058
      9          6           0        1.710278   -1.264505   -2.735275
     10          6           0        2.674897   -0.149329   -2.203382
     11          6           0        2.031290   -1.709509   -4.146957
     12          6           0        0.619929   -2.587762   -0.814820
     13          6           0       -0.528811   -3.415553   -1.319622
     14          6           0       -1.828590   -2.685098   -1.557939
     15          8           0       -2.333707   -2.448775   -2.612138
     16          8           0       -2.451419   -2.479348   -0.363822
     17          7           0        4.319769    2.232527   -1.351438
     18          6           0        3.465994    2.257240   -2.394668
     19          6           0        3.367962    3.636076   -2.813814
     20          6           0        4.098719    4.406075   -1.921549
     21          6           0        4.807164    3.516887   -1.075453
     22          6           0        2.444627    4.098244   -3.935989
     23          6           0        4.221399    5.917797   -2.030088
     24          8           0        3.819020    6.594130   -2.939453
     25          6           0        4.961000    6.691035   -0.945642
     26          7           0        6.257724    1.615721    0.971899
     27          6           0        6.401592    2.937211    0.842238
     28          6           0        7.522584    3.504745    1.780203
     29          6           0        8.068414    2.185312    2.420325
     30          6           0        7.231115    1.070021    1.758587
     31          6           0        8.585209    4.519597    1.118177
     32          6           0        8.033802    2.080292    4.033551
     33          6           0        9.246142    1.498882    4.782594
     34          7           0        5.713073   -1.232803    0.657176
     35          6           0        6.634237   -1.352843    1.614194
     36          6           0        6.707948   -2.752668    2.015649
     37          6           0        5.613923   -3.317917    1.335785
     38          6           0        5.064192   -2.356848    0.509715
     39          6           0        7.684971   -3.324507    3.085147
     40          6           0        4.813209   -4.540720    1.203897
     41          8           0        4.861817   -5.591647    1.781753
     42          6           0        3.722017   -4.195821    0.177628
     43          6           0        3.732840   -5.124370   -0.951435
     44          8           0        2.739671   -5.836843   -1.219508
     45          8           0        4.910847   -5.086169   -1.607579
     46          6           0        4.919057   -5.715378   -2.946017
     47          6           0       -3.724453   -1.796733   -0.356504
     48          6           0       -3.688945   -0.607186    0.553483
     49          6           0       -4.316285   -0.255116    1.735938
     50          6           0       -5.109112   -1.146479    2.596111
     51          6           0       -4.098363    1.197481    2.228123
     52          6           0       -4.899402    2.354960    1.550529
     53          6           0       -6.442112    2.356364    1.819856
     54          6           0       -7.392794    2.622826    0.598683
     55          6           0       -7.747752    4.137694    0.435009
     56          6           0       -8.730560    1.843774    0.544801
     57          6           0       -8.525221    0.327997    0.286909
     58          6           0       -9.268014   -0.521080    1.263501
     59          6           0      -10.646979   -0.819771    0.711521
     60          6           0      -10.462659   -2.100861   -0.082651
     61          6           0      -11.676713   -0.952906    1.819435
     62          6           0      -12.711624    0.222032    1.622280
     63          6           0      -13.861262   -0.222144    0.728834
     64          6           0      -14.578550    0.960482   -0.018325
     65          6           0      -16.117786    0.627962   -0.339798
     66          6           0      -13.801331    1.077983   -1.338347
     67          1           0        1.918522    1.285185   -3.570908
     68          1           0        6.037169    4.851083    0.256591
     69          1           0        8.183477   -0.551589    2.731638
     70          1           0        2.094802   -3.425795   -2.012498
     71          1           0        0.657009   -0.999410   -2.824267
     72          1           0        2.924754   -1.152925   -4.429336
     73          1           0        1.161145   -1.442446   -4.747390
     74          1           0        2.201021   -2.781445   -4.044640
     75          1           0        0.292726   -1.598893   -0.493183
     76          1           0        1.024504   -2.974576    0.120155
     77          1           0       -0.638222   -4.280316   -0.665747
     78          1           0       -0.366234   -3.826705   -2.315405
     79          1           0        1.484954    4.443555   -3.551976
     80          1           0        2.244722    3.233091   -4.568392
     81          1           0        2.643851    4.896708   -4.651695
     82          1           0        6.032608    6.541354   -1.076553
     83          1           0        4.534567    6.345848   -0.003077
     84          1           0        4.727933    7.750691   -1.050551
     85          1           0        6.993999    4.049751    2.561320
     86          1           0        9.091738    2.027937    2.079752
     87          1           0        8.245113    5.475405    1.514906
     88          1           0        8.544057    4.554758    0.029159
     89          1           0        9.591766    4.305190    1.478446
     90          1           0        7.134653    1.637030    4.461529
     91          1           0        7.910177    3.123701    4.322521
     92          1           0        9.374604    1.990771    5.746785
     93          1           0       10.170714    1.485464    4.206497
     94          1           0        8.943645    0.494368    5.079015
     95          1           0        7.115618   -3.301244    4.014644
     96          1           0        8.638325   -2.817154    3.240480
     97          1           0        7.985069   -4.354998    2.899270
     98          1           0        2.759372   -4.195486    0.690051
     99          1           0        4.914271   -4.933147   -3.705109
    100          1           0        4.064801   -6.376615   -3.093851
    101          1           0        5.793585   -6.342508   -3.118302
    102          1           0       -4.500952   -2.504215   -0.062909
    103          1           0       -3.978138   -1.362374   -1.323796
    104          1           0       -3.237827    0.222701    0.009509
    105          1           0       -5.931503   -0.444494    2.733119
    106          1           0       -4.451340   -1.267989    3.457532
    107          1           0       -5.351575   -2.101329    2.129250
    108          1           0       -3.050079    1.426785    2.041252
    109          1           0       -4.238149    1.349527    3.298569
    110          1           0       -4.569893    2.510857    0.523243
    111          1           0       -4.562554    3.264109    2.049138
    112          1           0       -6.506788    3.152181    2.562996
    113          1           0       -6.803076    1.483896    2.364171
    114          1           0       -6.814865    2.338953   -0.280494
    115          1           0       -7.436439    4.636554    1.352656
    116          1           0       -8.795585    4.376410    0.251758
    117          1           0       -7.257073    4.551741   -0.446100
    118          1           0       -9.308095    2.135310   -0.331259
    119          1           0       -9.324954    2.012313    1.442978
    120          1           0       -7.465961    0.095126    0.398961
    121          1           0       -8.715943    0.197047   -0.777742
    122          1           0       -9.293742   -0.010385    2.226863
    123          1           0       -8.695486   -1.444487    1.352432
    124          1           0      -10.862863   -0.062262   -0.042259
    125          1           0       -9.526841   -2.146396   -0.639383
    126          1           0      -11.236541   -2.190492   -0.846092
    127          1           0      -10.653410   -2.995925    0.509852
    128          1           0      -11.173164   -0.933783    2.786514
    129          1           0      -12.247617   -1.881698    1.794832
    130          1           0      -12.182928    1.123436    1.310298
    131          1           0      -13.337531    0.317440    2.509282
    132          1           0      -14.674958   -0.634120    1.327579
    133          1           0      -13.555463   -1.008014    0.038931
    134          1           0      -14.471176    1.846845    0.606011
    135          1           0      -16.352653    0.407366   -1.381716
    136          1           0      -16.757297    1.477560   -0.100420
    137          1           0      -16.572191   -0.104040    0.328049
    138          1           0      -13.674711    2.114803   -1.650343
    139          1           0      -14.302276    0.619052   -2.190313
    140          1           0      -12.808432    0.632667   -1.273334
 ---------------------------------------------------------------------

 SCF Done:  E(RCAM-B3LYP) =  -3007.16744820     A.U. after   18 cycles

 Excitation energies and oscillator strengths:

 Excited State   1:      Singlet-A      1.7509 eV  708.12 nm  f=0.3915  <S**2>=0.000
     245 -> 248        0.16678
     246 -> 247        0.68928
     245 <- 248        0.10411
 This state for optimization and/or second-order correction.
 Total Energy, E(TD-HF/TD-DFT) =  -3007.10310376
 Copying the excited state density for this state as the 1-particle RhoCI density.

 Excited State   2:      Singlet-A      2.2591 eV  548.83 nm  f=0.1479  <S**2>=0.000
     245 -> 247        0.65343
     246 -> 248       -0.25525

 Excited State   3:      Singlet-A      3.3166 eV  373.83 nm  f=0.0011  <S**2>=0.000
     240 -> 247       -0.16998
     242 -> 247        0.39553
     243 -> 247        0.53734

 Excited State   4:      Singlet-A      3.4482 eV  359.56 nm  f=0.0001  <S**2>=0.000
     240 -> 247       -0.14977
     241 -> 247        0.21185
     242 -> 247        0.43825
     243 -> 247       -0.42078
     246 -> 248       -0.19156

 Excited State   5:      Singlet-A      3.5518 eV  349.07 nm  f=0.0006  <S**2>=0.000
     240 -> 247        0.54896
     240 -> 248        0.10397
     240 -> 250        0.21032
     240 -> 251       -0.17962
     242 -> 247        0.19854
     242 -> 250        0.10471
     242 -> 251       -0.12729

 The electronic state is 1-A.
 Alpha  occ. eigenvalues --  -46.90062 -19.26416 -19.24039 -19.19689 -19.19642
 Alpha  occ. eigenvalues --  -19.19025 -19.18751 -14.42747 -14.42140 -14.40091
 Alpha  occ. eigenvalues --  -14.38499 -10.39723 -10.38691 -10.34971 -10.34460
 Alpha  occ. eigenvalues --  -10.32418 -10.31782 -10.31638 -10.31506 -10.31211
 Alpha  occ. eigenvalues --  -10.30694 -10.30436 -10.30404 -10.28785 -10.28678
 Alpha  occ. eigenvalues --  -10.28570 -10.28290 -10.27959 -10.27854 -10.27770
 Alpha  occ. eigenvalues --  -10.27765 -10.27722 -10.27634 -10.27440 -10.27368
 Alpha  occ. eigenvalues --  -10.27329 -10.27249 -10.26994 -10.26779 -10.26739
 Alpha  occ. eigenvalues --  -10.26728 -10.26393 -10.26314 -10.26221 -10.26208
 Alpha  occ. eigenvalues --  -10.26003 -10.25970 -10.25955 -10.25934 -10.25898
 Alpha  occ. eigenvalues --  -10.25765 -10.25603 -10.25597 -10.25108 -10.24743
 Alpha  occ. eigenvalues --  -10.24675 -10.24618 -10.24570 -10.24564 -10.24399
 Alpha  occ. eigenvalues --  -10.24289 -10.24183 -10.24005 -10.23890 -10.23862
 Alpha  occ. eigenvalues --  -10.23842  -3.18447  -1.93322  -1.92909  -1.92738
 Alpha  occ. eigenvalues --   -1.16966  -1.16887  -1.11309  -1.10761  -1.08573
 Alpha  occ. eigenvalues --   -1.07114  -1.05807  -1.04927  -1.04283  -1.03515
 Alpha  occ. eigenvalues --   -0.93486  -0.90953  -0.90465  -0.90019  -0.89036
 Alpha  occ. eigenvalues --   -0.88458  -0.88140  -0.87844  -0.87353  -0.86648
 Alpha  occ. eigenvalues --   -0.86188  -0.85723  -0.84430  -0.84092  -0.83797
 Alpha  occ. eigenvalues --   -0.82612  -0.82209  -0.81710  -0.81311  -0.80897
 Alpha  occ. eigenvalues --   -0.80039  -0.78378  -0.78030  -0.77904  -0.76830
 Alpha  occ. eigenvalues --   -0.76073  -0.75417  -0.75149  -0.74537  -0.73965
 Alpha  occ. eigenvalues --   -0.73536  -0.72587  -0.71571  -0.70550  -0.69405
 Alpha  occ. eigenvalues --   -0.68791  -0.67995  -0.67733  -0.66963  -0.66063
 Alpha  occ. eigenvalues --   -0.66025  -0.65525  -0.65139  -0.64786  -0.63887
 Alpha  occ. eigenvalues --   -0.63786  -0.63427  -0.63110  -0.63060  -0.60372
 Alpha  occ. eigenvalues --   -0.60152  -0.59895  -0.59047  -0.58823  -0.58399
 Alpha  occ. eigenvalues --   -0.57949  -0.57484  -0.56532  -0.56267  -0.55793
 Alpha  occ. eigenvalues --   -0.55718  -0.54966  -0.54769  -0.54274  -0.54247
 Alpha  occ. eigenvalues --   -0.53672  -0.53315  -0.53239  -0.53019  -0.52856
 Alpha  occ. eigenvalues --   -0.52806  -0.52333  -0.52159  -0.51944  -0.51774
 Alpha  occ. eigenvalues --   -0.51698  -0.51453  -0.51273  -0.51003  -0.50860
 Alpha  occ. eigenvalues --   -0.50496  -0.50441  -0.50416  -0.50128  -0.49834
 Alpha  occ. eigenvalues --   -0.49658  -0.49596  -0.49324  -0.49301  -0.48834
 Alpha  occ. eigenvalues --   -0.48709  -0.48617  -0.47989  -0.47871  -0.47751
 Alpha  occ. eigenvalues --   -0.47599  -0.47473  -0.47308  -0.47074  -0.46841
 Alpha  occ. eigenvalues --   -0.46567  -0.46516  -0.46222  -0.46089  -0.45992
 Alpha  occ. eigenvalues --   -0.45744  -0.45572  -0.45512  -0.45068  -0.44766
 Alpha  occ. eigenvalues --   -0.44493  -0.44427  -0.44142  -0.44108  -0.43765
 Alpha  occ. eigenvalues --   -0.43698  -0.43622  -0.43452  -0.43362  -0.43112
 Alpha  occ. eigenvalues --   -0.42802  -0.42696  -0.42607  -0.42579  -0.42340
 Alpha  occ. eigenvalues --   -0.42046  -0.41945  -0.41760  -0.41639  -0.41079
 Alpha  occ. eigenvalues --   -0.40983  -0.40763  -0.40428  -0.40169  -0.40153
 Alpha  occ. eigenvalues --   -0.39978  -0.39731  -0.39484  -0.39011  -0.38883
 Alpha  occ. eigenvalues --   -0.38705  -0.38403  -0.37890  -0.37529  -0.37481
 Alpha  occ. eigenvalues --   -0.37409  -0.37188  -0.36861  -0.36739  -0.36409
 Alpha  occ. eigenvalues --   -0.35763  -0.35101  -0.34912  -0.34560  -0.34249
 Alpha  occ. eigenvalues --   -0.34166  -0.34024  -0.33630  -0.31600  -0.30884
 Alpha  occ. eigenvalues --   -0.30546  -0.30509  -0.29587  -0.29155  -0.24500
 Alpha  occ. eigenvalues --   -0.21690
 Alpha virt. eigenvalues --   -0.09182  -0.01335   0.00494   0.01032   0.02767
 Alpha virt. eigenvalues --    0.04749   0.04847   0.05582   0.05869   0.06818
 Alpha virt. eigenvalues --    0.08101   0.08556   0.08619   0.08895   0.09107

 Mulliken charges:
               1
     1  Mg   0.812159
     2  C   -0.047571
     3  C   -0.076277
     4  C   -0.060741
     5  C   -0.065050
     6  N   -0.243341
     7  C   -0.060927
     8  C   -0.055228
     9  C   -0.099685
    10  C    0.067090
    11  C    0.098259
    12  C    0.077463
    13  C    0.125890
    14  C    0.106299
    15  O   -0.202671
    16  O   -0.327116
    17  N   -0.397816
    18  C    0.143029
    19  C   -0.114717
    20  C   -0.033742
    21  C    0.175980
    22  C    0.096434
    23  C   -0.027536
    24  O   -0.173809
    25  C    0.055912
    26  N   -0.279916
    27  C    0.002386
    28  C   -0.051358
    29  C   -0.002388
    30  C    0.057696
    31  C    0.053307
    32  C    0.013284
    33  C    0.013754
    34  N   -0.250879
    35  C    0.042653
    36  C   -0.166769
    37  C   -0.008997
    38  C    0.061156
    39  C    0.099811
    40  C    0.041856
    41  O   -0.132738
    42  C    0.066377
    43  C    0.194116
    44  O   -0.247105
    45  O   -0.320569
    46  C    0.163797
    47  C    0.301085
    48  C   -0.131693
    49  C   -0.183334
    50  C    0.125926
    51  C    0.038222
    52  C    0.028366
    53  C    0.043278
    54  C   -0.118594
    55  C    0.049841
    56  C    0.033039
    57  C   -0.013701
    58  C    0.081751
    59  C   -0.150045
    60  C    0.048554
    61  C    0.097743
    62  C    0.009557
    63  C    0.006169
    64  C   -0.126539
    65  C    0.033343
    66  C    0.045819
    67  H   -0.015645
    68  H   -0.039657
    69  H   -0.043259
    70  H    0.009383
    71  H    0.009880
    72  H    0.012437
    73  H    0.027571
    74  H    0.015574
    75  H    0.003361
    76  H   -0.012143
    77  H    0.043830
    78  H    0.019018
    79  H    0.026823
    80  H    0.003027
    81  H    0.035713
    82  H    0.046941
    83  H    0.032094
    84  H    0.022981
    85  H    0.017606
    86  H    0.002961
    87  H    0.021577
    88  H    0.031958
    89  H    0.026168
    90  H    0.013525
    91  H   -0.005900
    92  H    0.012989
    93  H    0.021764
    94  H    0.016073
    95  H    0.035473
    96  H    0.015417
    97  H    0.029299
    98  H    0.034740
    99  H    0.038309
   100  H    0.054812
   101  H    0.043826
   102  H    0.004493
   103  H    0.028166
   104  H   -0.015039
   105  H    0.019313
   106  H    0.038006
   107  H    0.017580
   108  H    0.012111
   109  H   -0.007617
   110  H    0.002907
   111  H   -0.004881
   112  H   -0.006932
   113  H   -0.007537
   114  H   -0.002939
   115  H    0.001326
   116  H    0.005426
   117  H    0.006180
   118  H   -0.003579
   119  H    0.000949
   120  H   -0.014752
   121  H   -0.004357
   122  H   -0.011567
   123  H   -0.012316
   124  H    0.009921
   125  H    0.005919
   126  H   -0.011395
   127  H    0.004706
   128  H   -0.007910
   129  H   -0.010741
   130  H    0.012729
   131  H   -0.005112
   132  H   -0.016214
   133  H   -0.003078
   134  H    0.003112
   135  H    0.015879
   136  H   -0.001913
   137  H    0.003741
   138  H   -0.000642
   139  H    0.005317
   140  H    0.001673
 Sum of Mulliken charges =  -0.00000

 Dipole moment (field-independent basis, Debye):
    X=              2.8462    Y=              4.0374    Z=              1.2104  Tot=              5.0859
 Quadrupole moment (field-independent basis, Debye-Ang):
   XX=           -349.6298   YY=           -448.1119   ZZ=           -397.7463
   XY=             14.0287   XZ=             -5.1233   YZ=             31.0560

 Normal termination of Gaussian 16 at Fri Apr 29 13:22:53 2022.
