 Gaussian 16, Revision A.03,
 Gaussian 16:  ES64L-G16RevA.03 25-Dec-2016

 ---------------------------------
 #p PBE1PBE/Def2SVP td=(nstates=5)
 ---------------------------------

 ----------------------------------------------------
 step_301_chromophore_5 TDDFT with PBE1PBE functional
 ----------------------------------------------------
 Symbolic Z-matrix:
 Charge =  0 Multiplicity = 1

                         Standard orientation:
 ---------------------------------------------------------------------
 Center     Atomic      Atomic             Coordinates (Angstroms)
 Number     Number       Type             X           Y           Z
 ---------------------------------------------------------------------
      1         12           0        5.180715    0.513169   -0.541072
      2          6           0        3.890524   -2.749550   -0.213246
      3          6           0        2.674234    1.136695   -2.796237
      4          6           0        5.730124    3.833671    0.004908
      5          6           0        7.402327   -0.248041    2.032161
      6          7           0        3.447758   -0.648541   -1.246588
      7          6           0        3.120515   -1.944618   -1.019621
      8          6           0        1.878847   -2.407763   -1.687058
      9          6           0        1.710278   -1.264505   -2.735275
     10          6           0        2.674897   -0.149329   -2.203382
     11          6           0        2.031290   -1.709509   -4.146957
     12          6           0        0.619929   -2.587762   -0.814820
     13          6           0       -0.528811   -3.415553   -1.319622
     14          6           0       -1.828590   -2.685098   -1.557939
     15          8           0       -2.333707   -2.448775   -2.612138
     16          8           0       -2.451419   -2.479348   -0.363822
     17          7           0        4.319769    2.232527   -1.351438
     18          6           0        3.465994    2.257240   -2.394668
     19          6           0        3.367962    3.636076   -2.813814
     20          6           0        4.098719    4.406075   -1.921549
     21          6           0        4.807164    3.516887   -1.075453
     22          6           0        2.444627    4.098244   -3.935989
     23          6           0        4.221399    5.917797   -2.030088
     24          8           0        3.819020    6.594130   -2.939453
     25          6           0        4.961000    6.691035   -0.945642
     26          7           0        6.257724    1.615721    0.971899
     27          6           0        6.401592    2.937211    0.842238
     28          6           0        7.522584    3.504745    1.780203
     29          6           0        8.068414    2.185312    2.420325
     30          6           0        7.231115    1.070021    1.758587
     31          6           0        8.585209    4.519597    1.118177
     32          6           0        8.033802    2.080292    4.033551
     33          6           0        9.246142    1.498882    4.782594
     34          7           0        5.713073   -1.232803    0.657176
     35          6           0        6.634237   -1.352843    1.614194
     36          6           0        6.707948   -2.752668    2.015649
     37          6           0        5.613923   -3.317917    1.335785
     38          6           0        5.064192   -2.356848    0.509715
     39          6           0        7.684971   -3.324507    3.085147
     40          6           0        4.813209   -4.540720    1.203897
     41          8           0        4.861817   -5.591647    1.781753
     42          6           0        3.722017   -4.195821    0.177628
     43          6           0        3.732840   -5.124370   -0.951435
     44          8           0        2.739671   -5.836843   -1.219508
     45          8           0        4.910847   -5.086169   -1.607579
     46          6           0        4.919057   -5.715378   -2.946017
     47          6           0       -3.724453   -1.796733   -0.356504
     48          6           0       -3.688945   -0.607186    0.553483
     49          6           0       -4.316285   -0.255116    1.735938
     50          6           0       -5.109112   -1.146479    2.596111
     51          6           0       -4.098363    1.197481    2.228123
     52          6           0       -4.899402    2.354960    1.550529
     53          6           0       -6.442112    2.356364    1.819856
     54          6           0       -7.392794    2.622826    0.598683
     55          6           0       -7.747752    4.137694    0.435009
     56          6           0       -8.730560    1.843774    0.544801
     57          6           0       -8.525221    0.327997    0.286909
     58          6           0       -9.268014   -0.521080    1.263501
     59          6           0      -10.646979   -0.819771    0.711521
     60          6           0      -10.462659   -2.100861   -0.082651
     61          6           0      -11.676713   -0.952906    1.819435
     62          6           0      -12.711624    0.222032    1.622280
     63          6           0      -13.861262   -0.222144    0.728834
     64          6           0      -14.578550    0.960482   -0.018325
     65          6           0      -16.117786    0.627962   -0.339798
     66          6           0      -13.801331    1.077983   -1.338347
     67          1           0        1.918522    1.285185   -3.570908
     68          1           0        6.037169    4.851083    0.256591
     69          1           0        8.183477   -0.551589    2.731638
     70          1           0        2.094802   -3.425795   -2.012498
     71          1           0        0.657009   -0.999410   -2.824267
     72          1           0        2.924754   -1.152925   -4.429336
     73          1           0        1.161145   -1.442446   -4.747390
     74          1           0        2.201021   -2.781445   -4.044640
     75          1           0        0.292726   -1.598893   -0.493183
     76          1           0        1.024504   -2.974576    0.120155
     77          1           0       -0.638222   -4.280316   -0.665747
     78          1           0       -0.366234   -3.826705   -2.315405
     79          1           0        1.484954    4.443555   -3.551976
     80          1           0        2.244722    3.233091   -4.568392
     81          1           0        2.643851    4.896708   -4.651695
     82          1           0        6.032608    6.541354   -1.076553
     83          1           0        4.534567    6.345848   -0.003077
     84          1           0        4.727933    7.750691   -1.050551
     85          1           0        6.993999    4.049751    2.561320
     86          1           0        9.091738    2.027937    2.079752
     87          1           0        8.245113    5.475405    1.514906
     88          1           0        8.544057    4.554758    0.029159
     89          1           0        9.591766    4.305190    1.478446
     90          1           0        7.134653    1.637030    4.461529
     91          1           0        7.910177    3.123701    4.322521
     92          1           0        9.374604    1.990771    5.746785
     93          1           0       10.170714    1.485464    4.206497
     94          1           0        8.943645    0.494368    5.079015
     95          1           0        7.115618   -3.301244    4.014644
     96          1           0        8.638325   -2.817154    3.240480
     97          1           0        7.985069   -4.354998    2.899270
     98          1           0        2.759372   -4.195486    0.690051
     99          1           0        4.914271   -4.933147   -3.705109
    100          1           0        4.064801   -6.376615   -3.093851
    101          1           0        5.793585   -6.342508   -3.118302
    102          1           0       -4.500952   -2.504215   -0.062909
    103          1           0       -3.978138   -1.362374   -1.323796
    104          1           0       -3.237827    0.222701    0.009509
    105          1           0       -5.931503   -0.444494    2.733119
    106          1           0       -4.451340   -1.267989    3.457532
    107          1           0       -5.351575   -2.101329    2.129250
    108          1           0       -3.050079    1.426785    2.041252
    109          1           0       -4.238149    1.349527    3.298569
    110          1           0       -4.569893    2.510857    0.523243
    111          1           0       -4.562554    3.264109    2.049138
    112          1           0       -6.506788    3.152181    2.562996
    113          1           0       -6.803076    1.483896    2.364171
    114          1           0       -6.814865    2.338953   -0.280494
    115          1           0       -7.436439    4.636554    1.352656
    116          1           0       -8.795585    4.376410    0.251758
    117          1           0       -7.257073    4.551741   -0.446100
    118          1           0       -9.308095    2.135310   -0.331259
    119          1           0       -9.324954    2.012313    1.442978
    120          1           0       -7.465961    0.095126    0.398961
    121          1           0       -8.715943    0.197047   -0.777742
    122          1           0       -9.293742   -0.010385    2.226863
    123          1           0       -8.695486   -1.444487    1.352432
    124          1           0      -10.862863   -0.062262   -0.042259
    125          1           0       -9.526841   -2.146396   -0.639383
    126          1           0      -11.236541   -2.190492   -0.846092
    127          1           0      -10.653410   -2.995925    0.509852
    128          1           0      -11.173164   -0.933783    2.786514
    129          1           0      -12.247617   -1.881698    1.794832
    130          1           0      -12.182928    1.123436    1.310298
    131          1           0      -13.337531    0.317440    2.509282
    132          1           0      -14.674958   -0.634120    1.327579
    133          1           0      -13.555463   -1.008014    0.038931
    134          1           0      -14.471176    1.846845    0.606011
    135          1           0      -16.352653    0.407366   -1.381716
    136          1           0      -16.757297    1.477560   -0.100420
    137          1           0      -16.572191   -0.104040    0.328049
    138          1           0      -13.674711    2.114803   -1.650343
    139          1           0      -14.302276    0.619052   -2.190313
    140          1           0      -12.808432    0.632667   -1.273334
 ---------------------------------------------------------------------

 SCF Done:  E(RPBE1PBE) =  -3005.35649088     A.U. after   16 cycles

 Excitation energies and oscillator strengths:

 Excited State   1:      Singlet-A      1.8930 eV  654.96 nm  f=0.3769  <S**2>=0.000
     245 -> 248        0.16304
     246 -> 247        0.69612
     246 <- 247       -0.11228
 This state for optimization and/or second-order correction.
 Total Energy, E(TD-HF/TD-DFT) =  -3005.28692394
 Copying the excited state density for this state as the 1-particle RhoCI density.

 Excited State   2:      Singlet-A      2.2664 eV  547.05 nm  f=0.1374  <S**2>=0.000
     245 -> 247        0.66136
     246 -> 248       -0.23470

 Excited State   3:      Singlet-A      2.9128 eV  425.66 nm  f=0.0002  <S**2>=0.000
     242 -> 247       -0.12918
     243 -> 247        0.67418

 Excited State   4:      Singlet-A      2.9664 eV  417.96 nm  f=0.0012  <S**2>=0.000
     241 -> 247        0.65175
     241 -> 249       -0.12742
     242 -> 247       -0.20210

 Excited State   5:      Singlet-A      2.9953 eV  413.93 nm  f=0.0027  <S**2>=0.000
     240 -> 247        0.16979
     241 -> 247        0.19673
     242 -> 247        0.63122
     243 -> 247        0.14694

 The electronic state is 1-A.
 Alpha  occ. eigenvalues --  -46.93405 -19.27068 -19.24754 -19.19983 -19.19970
 Alpha  occ. eigenvalues --  -19.19143 -19.19046 -14.42161 -14.41636 -14.39621
 Alpha  occ. eigenvalues --  -14.38232 -10.36793 -10.35726 -10.31950 -10.31765
 Alpha  occ. eigenvalues --  -10.29653 -10.29306 -10.29028 -10.29012 -10.28586
 Alpha  occ. eigenvalues --  -10.28306 -10.28298 -10.28063 -10.26795 -10.26471
 Alpha  occ. eigenvalues --  -10.26191 -10.25918 -10.25903 -10.25655 -10.25598
 Alpha  occ. eigenvalues --  -10.25474 -10.25410 -10.25227 -10.25158 -10.25101
 Alpha  occ. eigenvalues --  -10.25070 -10.24822 -10.24699 -10.24384 -10.24249
 Alpha  occ. eigenvalues --  -10.24186 -10.24032 -10.24024 -10.23890 -10.23778
 Alpha  occ. eigenvalues --  -10.23649 -10.23527 -10.23487 -10.23309 -10.23171
 Alpha  occ. eigenvalues --  -10.23144 -10.23012 -10.22962 -10.22668 -10.22365
 Alpha  occ. eigenvalues --  -10.22351 -10.22288 -10.22125 -10.22118 -10.22036
 Alpha  occ. eigenvalues --  -10.21843 -10.21570 -10.21412 -10.21382 -10.21381
 Alpha  occ. eigenvalues --  -10.21251  -3.15374  -1.88187  -1.87753  -1.87585
 Alpha  occ. eigenvalues --   -1.11806  -1.11686  -1.05889  -1.05690  -1.03480
 Alpha  occ. eigenvalues --   -1.01974  -1.00532  -0.99687  -0.98844  -0.98058
 Alpha  occ. eigenvalues --   -0.87948  -0.85032  -0.84702  -0.84156  -0.83313
 Alpha  occ. eigenvalues --   -0.82543  -0.82406  -0.82140  -0.81460  -0.80793
 Alpha  occ. eigenvalues --   -0.80409  -0.80186  -0.78748  -0.78322  -0.78023
 Alpha  occ. eigenvalues --   -0.76819  -0.76439  -0.75873  -0.75617  -0.75097
 Alpha  occ. eigenvalues --   -0.74172  -0.72713  -0.72374  -0.72107  -0.71135
 Alpha  occ. eigenvalues --   -0.70239  -0.69759  -0.69222  -0.68646  -0.68115
 Alpha  occ. eigenvalues --   -0.67969  -0.66959  -0.66024  -0.64848  -0.63841
 Alpha  occ. eigenvalues --   -0.63312  -0.62225  -0.62028  -0.61206  -0.60569
 Alpha  occ. eigenvalues --   -0.60444  -0.59998  -0.59331  -0.59327  -0.58391
 Alpha  occ. eigenvalues --   -0.58132  -0.57813  -0.57241  -0.57186  -0.54836
 Alpha  occ. eigenvalues --   -0.54692  -0.54469  -0.53716  -0.53172  -0.52949
 Alpha  occ. eigenvalues --   -0.52386  -0.51995  -0.51141  -0.50818  -0.50285
 Alpha  occ. eigenvalues --   -0.50219  -0.49308  -0.49283  -0.48856  -0.48806
 Alpha  occ. eigenvalues --   -0.48235  -0.47902  -0.47777  -0.47455  -0.47418
 Alpha  occ. eigenvalues --   -0.47101  -0.46777  -0.46684  -0.46425  -0.46321
 Alpha  occ. eigenvalues --   -0.46284  -0.45960  -0.45888  -0.45583  -0.45384
 Alpha  occ. eigenvalues --   -0.45118  -0.45072  -0.44893  -0.44756  -0.44350
 Alpha  occ. eigenvalues --   -0.44198  -0.44123  -0.43981  -0.43930  -0.43406
 Alpha  occ. eigenvalues --   -0.43354  -0.43247  -0.42613  -0.42472  -0.42383
 Alpha  occ. eigenvalues --   -0.42232  -0.42112  -0.41921  -0.41710  -0.41584
 Alpha  occ. eigenvalues --   -0.41303  -0.41166  -0.40882  -0.40787  -0.40670
 Alpha  occ. eigenvalues --   -0.40369  -0.40236  -0.40183  -0.39840  -0.39508
 Alpha  occ. eigenvalues --   -0.39301  -0.39211  -0.39074  -0.38816  -0.38607
 Alpha  occ. eigenvalues --   -0.38405  -0.38268  -0.38185  -0.38044  -0.37739
 Alpha  occ. eigenvalues --   -0.37550  -0.37458  -0.37409  -0.37329  -0.37145
 Alpha  occ. eigenvalues --   -0.36878  -0.36686  -0.36579  -0.36501  -0.35932
 Alpha  occ. eigenvalues --   -0.35746  -0.35572  -0.35196  -0.35145  -0.34944
 Alpha  occ. eigenvalues --   -0.34781  -0.34536  -0.34384  -0.33768  -0.33660
 Alpha  occ. eigenvalues --   -0.33617  -0.33193  -0.32741  -0.32490  -0.32288
 Alpha  occ. eigenvalues --   -0.32219  -0.32202  -0.31884  -0.31573  -0.31499
 Alpha  occ. eigenvalues --   -0.30741  -0.30002  -0.29730  -0.29578  -0.29410
 Alpha  occ. eigenvalues --   -0.29102  -0.29066  -0.28904  -0.27219  -0.26067
 Alpha  occ. eigenvalues --   -0.25575  -0.25428  -0.25301  -0.24502  -0.21388
 Alpha  occ. eigenvalues --   -0.19268
 Alpha virt. eigenvalues --   -0.11609  -0.04889  -0.03361  -0.02107  -0.01686
 Alpha virt. eigenvalues --    0.00083   0.00333   0.01205   0.01572   0.03053
 Alpha virt. eigenvalues --    0.04443   0.04718   0.05051   0.05311   0.05903

 Mulliken charges:
               1
     1  Mg   0.947005
     2  C   -0.060805
     3  C   -0.064774
     4  C   -0.057194
     5  C   -0.062448
     6  N   -0.357352
     7  C    0.016198
     8  C   -0.126237
     9  C   -0.174066
    10  C    0.098257
    11  C    0.041980
    12  C    0.028081
    13  C    0.050970
    14  C    0.175301
    15  O   -0.238956
    16  O   -0.355781
    17  N   -0.509831
    18  C    0.171160
    19  C   -0.145311
    20  C   -0.085529
    21  C    0.208485
    22  C    0.043995
    23  C    0.031244
    24  O   -0.211424
    25  C   -0.029197
    26  N   -0.386118
    27  C    0.040725
    28  C   -0.123377
    29  C   -0.074107
    30  C    0.092804
    31  C   -0.009469
    32  C   -0.048114
    33  C   -0.059641
    34  N   -0.384586
    35  C    0.073288
    36  C   -0.174266
    37  C   -0.073276
    38  C    0.134272
    39  C    0.048574
    40  C    0.147186
    41  O   -0.180932
    42  C   -0.051409
    43  C    0.280345
    44  O   -0.283571
    45  O   -0.350348
    46  C    0.110279
    47  C    0.254652
    48  C   -0.139079
    49  C   -0.225019
    50  C    0.052875
    51  C   -0.026731
    52  C   -0.033553
    53  C   -0.010175
    54  C   -0.204892
    55  C   -0.007345
    56  C   -0.018973
    57  C   -0.079183
    58  C    0.022896
    59  C   -0.242647
    60  C   -0.008419
    61  C    0.046829
    62  C   -0.062100
    63  C   -0.049560
    64  C   -0.218922
    65  C   -0.024160
    66  C   -0.016357
    67  H    0.014357
    68  H   -0.006749
    69  H   -0.006459
    70  H    0.054797
    71  H    0.047172
    72  H    0.041359
    73  H    0.053638
    74  H    0.043477
    75  H    0.037089
    76  H    0.023655
    77  H    0.074581
    78  H    0.051011
    79  H    0.053635
    80  H    0.029262
    81  H    0.060981
    82  H    0.073239
    83  H    0.059158
    84  H    0.051335
    85  H    0.054872
    86  H    0.041440
    87  H    0.048274
    88  H    0.059642
    89  H    0.053157
    90  H    0.045302
    91  H    0.028929
    92  H    0.041674
    93  H    0.048512
    94  H    0.042783
    95  H    0.064613
    96  H    0.041362
    97  H    0.057531
    98  H    0.075514
    99  H    0.060186
   100  H    0.074676
   101  H    0.065141
   102  H    0.032283
   103  H    0.055410
   104  H    0.014897
   105  H    0.051234
   106  H    0.066875
   107  H    0.044653
   108  H    0.045182
   109  H    0.024692
   110  H    0.033068
   111  H    0.028735
   112  H    0.025362
   113  H    0.027714
   114  H    0.035603
   115  H    0.028409
   116  H    0.031917
   117  H    0.033561
   118  H    0.029178
   119  H    0.033138
   120  H    0.022945
   121  H    0.027482
   122  H    0.020108
   123  H    0.021638
   124  H    0.052225
   125  H    0.033432
   126  H    0.017683
   127  H    0.032493
   128  H    0.024147
   129  H    0.021326
   130  H    0.045111
   131  H    0.029900
   132  H    0.017292
   133  H    0.030722
   134  H    0.038844
   135  H    0.041831
   136  H    0.026269
   137  H    0.029860
   138  H    0.027777
   139  H    0.032350
   140  H    0.033342
 Sum of Mulliken charges =  -0.00000

 Dipole moment (field-independent basis, Debye):
    X=              3.0044    Y=              3.6626    Z=              1.5499  Tot=              4.9842
 Quadrupole moment (field-independent basis, Debye-Ang):
   XX=           -343.6569   YY=           -445.7642   ZZ=           -394.1742
   XY=             12.5323   XZ=             -2.2913   YZ=             31.5297

 Normal termination of Gaussian 16 at Fri Apr 29 13:43:11 2022.
