 Gaussian 16, Revision A.03,
 Gaussian 16:  ES64L-G16RevA.03 25-Dec-2016

 --------------------------------
 #p wB97XD/Def2SVP td=(nstates=5)
 --------------------------------

 ---------------------------------------------------
 step_301_chromophore_5 TDDFT with wB97XD functional
 ---------------------------------------------------
 Symbolic Z-matrix:
 Charge =  0 Multiplicity = 1

                         Standard orientation:
 ---------------------------------------------------------------------
 Center     Atomic      Atomic             Coordinates (Angstroms)
 Number     Number       Type             X           Y           Z
 ---------------------------------------------------------------------
      1         12           0        5.180715    0.513169   -0.541072
      2          6           0        3.890524   -2.749550   -0.213246
      3          6           0        2.674234    1.136695   -2.796237
      4          6           0        5.730124    3.833671    0.004908
      5          6           0        7.402327   -0.248041    2.032161
      6          7           0        3.447758   -0.648541   -1.246588
      7          6           0        3.120515   -1.944618   -1.019621
      8          6           0        1.878847   -2.407763   -1.687058
      9          6           0        1.710278   -1.264505   -2.735275
     10          6           0        2.674897   -0.149329   -2.203382
     11          6           0        2.031290   -1.709509   -4.146957
     12          6           0        0.619929   -2.587762   -0.814820
     13          6           0       -0.528811   -3.415553   -1.319622
     14          6           0       -1.828590   -2.685098   -1.557939
     15          8           0       -2.333707   -2.448775   -2.612138
     16          8           0       -2.451419   -2.479348   -0.363822
     17          7           0        4.319769    2.232527   -1.351438
     18          6           0        3.465994    2.257240   -2.394668
     19          6           0        3.367962    3.636076   -2.813814
     20          6           0        4.098719    4.406075   -1.921549
     21          6           0        4.807164    3.516887   -1.075453
     22          6           0        2.444627    4.098244   -3.935989
     23          6           0        4.221399    5.917797   -2.030088
     24          8           0        3.819020    6.594130   -2.939453
     25          6           0        4.961000    6.691035   -0.945642
     26          7           0        6.257724    1.615721    0.971899
     27          6           0        6.401592    2.937211    0.842238
     28          6           0        7.522584    3.504745    1.780203
     29          6           0        8.068414    2.185312    2.420325
     30          6           0        7.231115    1.070021    1.758587
     31          6           0        8.585209    4.519597    1.118177
     32          6           0        8.033802    2.080292    4.033551
     33          6           0        9.246142    1.498882    4.782594
     34          7           0        5.713073   -1.232803    0.657176
     35          6           0        6.634237   -1.352843    1.614194
     36          6           0        6.707948   -2.752668    2.015649
     37          6           0        5.613923   -3.317917    1.335785
     38          6           0        5.064192   -2.356848    0.509715
     39          6           0        7.684971   -3.324507    3.085147
     40          6           0        4.813209   -4.540720    1.203897
     41          8           0        4.861817   -5.591647    1.781753
     42          6           0        3.722017   -4.195821    0.177628
     43          6           0        3.732840   -5.124370   -0.951435
     44          8           0        2.739671   -5.836843   -1.219508
     45          8           0        4.910847   -5.086169   -1.607579
     46          6           0        4.919057   -5.715378   -2.946017
     47          6           0       -3.724453   -1.796733   -0.356504
     48          6           0       -3.688945   -0.607186    0.553483
     49          6           0       -4.316285   -0.255116    1.735938
     50          6           0       -5.109112   -1.146479    2.596111
     51          6           0       -4.098363    1.197481    2.228123
     52          6           0       -4.899402    2.354960    1.550529
     53          6           0       -6.442112    2.356364    1.819856
     54          6           0       -7.392794    2.622826    0.598683
     55          6           0       -7.747752    4.137694    0.435009
     56          6           0       -8.730560    1.843774    0.544801
     57          6           0       -8.525221    0.327997    0.286909
     58          6           0       -9.268014   -0.521080    1.263501
     59          6           0      -10.646979   -0.819771    0.711521
     60          6           0      -10.462659   -2.100861   -0.082651
     61          6           0      -11.676713   -0.952906    1.819435
     62          6           0      -12.711624    0.222032    1.622280
     63          6           0      -13.861262   -0.222144    0.728834
     64          6           0      -14.578550    0.960482   -0.018325
     65          6           0      -16.117786    0.627962   -0.339798
     66          6           0      -13.801331    1.077983   -1.338347
     67          1           0        1.918522    1.285185   -3.570908
     68          1           0        6.037169    4.851083    0.256591
     69          1           0        8.183477   -0.551589    2.731638
     70          1           0        2.094802   -3.425795   -2.012498
     71          1           0        0.657009   -0.999410   -2.824267
     72          1           0        2.924754   -1.152925   -4.429336
     73          1           0        1.161145   -1.442446   -4.747390
     74          1           0        2.201021   -2.781445   -4.044640
     75          1           0        0.292726   -1.598893   -0.493183
     76          1           0        1.024504   -2.974576    0.120155
     77          1           0       -0.638222   -4.280316   -0.665747
     78          1           0       -0.366234   -3.826705   -2.315405
     79          1           0        1.484954    4.443555   -3.551976
     80          1           0        2.244722    3.233091   -4.568392
     81          1           0        2.643851    4.896708   -4.651695
     82          1           0        6.032608    6.541354   -1.076553
     83          1           0        4.534567    6.345848   -0.003077
     84          1           0        4.727933    7.750691   -1.050551
     85          1           0        6.993999    4.049751    2.561320
     86          1           0        9.091738    2.027937    2.079752
     87          1           0        8.245113    5.475405    1.514906
     88          1           0        8.544057    4.554758    0.029159
     89          1           0        9.591766    4.305190    1.478446
     90          1           0        7.134653    1.637030    4.461529
     91          1           0        7.910177    3.123701    4.322521
     92          1           0        9.374604    1.990771    5.746785
     93          1           0       10.170714    1.485464    4.206497
     94          1           0        8.943645    0.494368    5.079015
     95          1           0        7.115618   -3.301244    4.014644
     96          1           0        8.638325   -2.817154    3.240480
     97          1           0        7.985069   -4.354998    2.899270
     98          1           0        2.759372   -4.195486    0.690051
     99          1           0        4.914271   -4.933147   -3.705109
    100          1           0        4.064801   -6.376615   -3.093851
    101          1           0        5.793585   -6.342508   -3.118302
    102          1           0       -4.500952   -2.504215   -0.062909
    103          1           0       -3.978138   -1.362374   -1.323796
    104          1           0       -3.237827    0.222701    0.009509
    105          1           0       -5.931503   -0.444494    2.733119
    106          1           0       -4.451340   -1.267989    3.457532
    107          1           0       -5.351575   -2.101329    2.129250
    108          1           0       -3.050079    1.426785    2.041252
    109          1           0       -4.238149    1.349527    3.298569
    110          1           0       -4.569893    2.510857    0.523243
    111          1           0       -4.562554    3.264109    2.049138
    112          1           0       -6.506788    3.152181    2.562996
    113          1           0       -6.803076    1.483896    2.364171
    114          1           0       -6.814865    2.338953   -0.280494
    115          1           0       -7.436439    4.636554    1.352656
    116          1           0       -8.795585    4.376410    0.251758
    117          1           0       -7.257073    4.551741   -0.446100
    118          1           0       -9.308095    2.135310   -0.331259
    119          1           0       -9.324954    2.012313    1.442978
    120          1           0       -7.465961    0.095126    0.398961
    121          1           0       -8.715943    0.197047   -0.777742
    122          1           0       -9.293742   -0.010385    2.226863
    123          1           0       -8.695486   -1.444487    1.352432
    124          1           0      -10.862863   -0.062262   -0.042259
    125          1           0       -9.526841   -2.146396   -0.639383
    126          1           0      -11.236541   -2.190492   -0.846092
    127          1           0      -10.653410   -2.995925    0.509852
    128          1           0      -11.173164   -0.933783    2.786514
    129          1           0      -12.247617   -1.881698    1.794832
    130          1           0      -12.182928    1.123436    1.310298
    131          1           0      -13.337531    0.317440    2.509282
    132          1           0      -14.674958   -0.634120    1.327579
    133          1           0      -13.555463   -1.008014    0.038931
    134          1           0      -14.471176    1.846845    0.606011
    135          1           0      -16.352653    0.407366   -1.381716
    136          1           0      -16.757297    1.477560   -0.100420
    137          1           0      -16.572191   -0.104040    0.328049
    138          1           0      -13.674711    2.114803   -1.650343
    139          1           0      -14.302276    0.619052   -2.190313
    140          1           0      -12.808432    0.632667   -1.273334
 ---------------------------------------------------------------------

 SCF Done:  E(RwB97XD) =  -3007.86859031     A.U. after   19 cycles

 Excitation energies and oscillator strengths:

 Excited State   1:      Singlet-A      1.7041 eV  727.56 nm  f=0.3915  <S**2>=0.000
     245 -> 248        0.17076
     246 -> 247        0.68717
     245 <- 248        0.11178
 This state for optimization and/or second-order correction.
 Total Energy, E(TD-HF/TD-DFT) =  -3007.80596528
 Copying the excited state density for this state as the 1-particle RhoCI density.

 Excited State   2:      Singlet-A      2.2059 eV  562.06 nm  f=0.1439  <S**2>=0.000
     245 -> 247        0.65095
     246 -> 248       -0.25793

 Excited State   3:      Singlet-A      3.3391 eV  371.31 nm  f=0.0012  <S**2>=0.000
     240 -> 247       -0.35890
     241 -> 247        0.36645
     243 -> 247        0.45605

 Excited State   4:      Singlet-A      3.4861 eV  355.65 nm  f=0.0019  <S**2>=0.000
     240 -> 247        0.24588
     241 -> 247       -0.33370
     243 -> 247        0.48650
     246 -> 248        0.22274

 Excited State   5:      Singlet-A      3.5620 eV  348.07 nm  f=0.0006  <S**2>=0.000
     240 -> 247        0.44468
     240 -> 249        0.18009
     240 -> 251       -0.12912
     241 -> 247        0.34530
     241 -> 248        0.10448
     241 -> 249        0.22611
     241 -> 251       -0.18757

 The electronic state is 1-A.
 Alpha  occ. eigenvalues --  -46.96415 -19.31605 -19.29284 -19.24614 -19.24613
 Alpha  occ. eigenvalues --  -19.24069 -19.23754 -14.47347 -14.46723 -14.44729
 Alpha  occ. eigenvalues --  -14.43016 -10.43570 -10.42478 -10.38966 -10.38424
 Alpha  occ. eigenvalues --  -10.36128 -10.35856 -10.35797 -10.35569 -10.35079
 Alpha  occ. eigenvalues --  -10.34821 -10.34406 -10.34355 -10.32795 -10.32743
 Alpha  occ. eigenvalues --  -10.32704 -10.32332 -10.32076 -10.31922 -10.31862
 Alpha  occ. eigenvalues --  -10.31759 -10.31745 -10.31632 -10.31449 -10.31373
 Alpha  occ. eigenvalues --  -10.31308 -10.31269 -10.30923 -10.30911 -10.30687
 Alpha  occ. eigenvalues --  -10.30630 -10.30285 -10.30227 -10.30170 -10.30151
 Alpha  occ. eigenvalues --  -10.29940 -10.29899 -10.29882 -10.29809 -10.29740
 Alpha  occ. eigenvalues --  -10.29675 -10.29547 -10.29462 -10.29034 -10.28655
 Alpha  occ. eigenvalues --  -10.28642 -10.28495 -10.28488 -10.28452 -10.28381
 Alpha  occ. eigenvalues --  -10.28205 -10.28002 -10.27819 -10.27789 -10.27751
 Alpha  occ. eigenvalues --  -10.27697  -3.22263  -1.95821  -1.95386  -1.95216
 Alpha  occ. eigenvalues --   -1.19138  -1.19048  -1.13560  -1.12959  -1.10778
 Alpha  occ. eigenvalues --   -1.09300  -1.07802  -1.06929  -1.06335  -1.05587
 Alpha  occ. eigenvalues --   -0.95429  -0.92696  -0.92304  -0.91818  -0.90987
 Alpha  occ. eigenvalues --   -0.90218  -0.90006  -0.89771  -0.89128  -0.88651
 Alpha  occ. eigenvalues --   -0.88110  -0.87623  -0.86321  -0.85945  -0.85658
 Alpha  occ. eigenvalues --   -0.84460  -0.84093  -0.83605  -0.83246  -0.82827
 Alpha  occ. eigenvalues --   -0.81842  -0.80270  -0.79978  -0.79847  -0.78741
 Alpha  occ. eigenvalues --   -0.77904  -0.77371  -0.76930  -0.76337  -0.75788
 Alpha  occ. eigenvalues --   -0.75508  -0.74520  -0.73567  -0.72458  -0.71310
 Alpha  occ. eigenvalues --   -0.70789  -0.69872  -0.69749  -0.68833  -0.68026
 Alpha  occ. eigenvalues --   -0.67933  -0.67506  -0.66979  -0.66799  -0.65755
 Alpha  occ. eigenvalues --   -0.65713  -0.65357  -0.64920  -0.64861  -0.62385
 Alpha  occ. eigenvalues --   -0.62126  -0.61891  -0.61031  -0.60692  -0.60322
 Alpha  occ. eigenvalues --   -0.59862  -0.59414  -0.58514  -0.58180  -0.57751
 Alpha  occ. eigenvalues --   -0.57662  -0.56805  -0.56665  -0.56224  -0.56175
 Alpha  occ. eigenvalues --   -0.55605  -0.55253  -0.55162  -0.54916  -0.54780
 Alpha  occ. eigenvalues --   -0.54755  -0.54262  -0.54067  -0.53820  -0.53672
 Alpha  occ. eigenvalues --   -0.53612  -0.53330  -0.53157  -0.52923  -0.52733
 Alpha  occ. eigenvalues --   -0.52446  -0.52346  -0.52267  -0.52044  -0.51814
 Alpha  occ. eigenvalues --   -0.51597  -0.51498  -0.51228  -0.51218  -0.50787
 Alpha  occ. eigenvalues --   -0.50588  -0.50510  -0.49879  -0.49775  -0.49648
 Alpha  occ. eigenvalues --   -0.49513  -0.49408  -0.49228  -0.48957  -0.48736
 Alpha  occ. eigenvalues --   -0.48433  -0.48412  -0.48114  -0.48002  -0.47896
 Alpha  occ. eigenvalues --   -0.47710  -0.47460  -0.47428  -0.47012  -0.46650
 Alpha  occ. eigenvalues --   -0.46394  -0.46335  -0.46023  -0.45979  -0.45653
 Alpha  occ. eigenvalues --   -0.45612  -0.45570  -0.45311  -0.45215  -0.45088
 Alpha  occ. eigenvalues --   -0.44816  -0.44606  -0.44557  -0.44480  -0.44228
 Alpha  occ. eigenvalues --   -0.43948  -0.43793  -0.43670  -0.43542  -0.42961
 Alpha  occ. eigenvalues --   -0.42842  -0.42674  -0.42260  -0.42065  -0.42023
 Alpha  occ. eigenvalues --   -0.41851  -0.41591  -0.41392  -0.40848  -0.40716
 Alpha  occ. eigenvalues --   -0.40675  -0.40242  -0.39733  -0.39474  -0.39304
 Alpha  occ. eigenvalues --   -0.39245  -0.39201  -0.38850  -0.38577  -0.38438
 Alpha  occ. eigenvalues --   -0.37730  -0.36932  -0.36743  -0.36514  -0.36197
 Alpha  occ. eigenvalues --   -0.36056  -0.35984  -0.35773  -0.33816  -0.32979
 Alpha  occ. eigenvalues --   -0.32621  -0.32476  -0.31712  -0.31175  -0.26434
 Alpha  occ. eigenvalues --   -0.23509
 Alpha virt. eigenvalues --   -0.07529   0.00568   0.02987   0.03816   0.04859
 Alpha virt. eigenvalues --    0.06941   0.07029   0.07952   0.08377   0.09557
 Alpha virt. eigenvalues --    0.11040   0.11505   0.11654   0.11944   0.12611

 Mulliken charges:
               1
     1  Mg   0.942552
     2  C   -0.058455
     3  C   -0.085702
     4  C   -0.070198
     5  C   -0.071815
     6  N   -0.316978
     7  C   -0.024060
     8  C   -0.089279
     9  C   -0.150729
    10  C    0.086912
    11  C    0.051224
    12  C    0.038016
    13  C    0.065501
    14  C    0.164321
    15  O   -0.236606
    16  O   -0.355586
    17  N   -0.480336
    18  C    0.163694
    19  C   -0.134200
    20  C   -0.077381
    21  C    0.204280
    22  C    0.052878
    23  C    0.024146
    24  O   -0.205719
    25  C   -0.009769
    26  N   -0.351971
    27  C    0.029690
    28  C   -0.100633
    29  C   -0.050235
    30  C    0.079323
    31  C    0.003564
    32  C   -0.033185
    33  C   -0.043571
    34  N   -0.341035
    35  C    0.057868
    36  C   -0.177042
    37  C   -0.062988
    38  C    0.104132
    39  C    0.060111
    40  C    0.125075
    41  O   -0.172551
    42  C   -0.007232
    43  C    0.258920
    44  O   -0.278208
    45  O   -0.350514
    46  C    0.126587
    47  C    0.269703
    48  C   -0.149736
    49  C   -0.211829
    50  C    0.074594
    51  C   -0.007913
    52  C   -0.018584
    53  C    0.003848
    54  C   -0.172675
    55  C    0.004125
    56  C   -0.006302
    57  C   -0.056529
    58  C    0.043664
    59  C   -0.205160
    60  C    0.002980
    61  C    0.058077
    62  C   -0.040529
    63  C   -0.029228
    64  C   -0.193009
    65  C   -0.012258
    66  C   -0.000524
    67  H    0.010772
    68  H   -0.019645
    69  H   -0.018426
    70  H    0.031438
    71  H    0.037286
    72  H    0.033796
    73  H    0.049869
    74  H    0.038147
    75  H    0.028729
    76  H    0.013071
    77  H    0.071675
    78  H    0.044779
    79  H    0.050631
    80  H    0.023802
    81  H    0.060080
    82  H    0.067559
    83  H    0.052458
    84  H    0.050504
    85  H    0.044028
    86  H    0.029051
    87  H    0.042386
    88  H    0.052878
    89  H    0.049049
    90  H    0.038579
    91  H    0.018128
    92  H    0.036476
    93  H    0.042862
    94  H    0.036128
    95  H    0.057844
    96  H    0.035545
    97  H    0.052184
    98  H    0.066445
    99  H    0.055826
   100  H    0.070839
   101  H    0.061407
   102  H    0.027301
   103  H    0.051258
   104  H    0.009518
   105  H    0.037172
   106  H    0.061321
   107  H    0.039630
   108  H    0.038064
   109  H    0.017786
   110  H    0.025235
   111  H    0.021412
   112  H    0.016883
   113  H    0.012808
   114  H    0.022001
   115  H    0.021385
   116  H    0.026340
   117  H    0.028310
   118  H    0.020355
   119  H    0.022738
   120  H    0.006173
   121  H    0.019532
   122  H    0.009063
   123  H    0.012218
   124  H    0.027882
   125  H    0.026936
   126  H    0.010920
   127  H    0.026297
   128  H    0.017550
   129  H    0.012616
   130  H    0.033900
   131  H    0.021788
   132  H    0.007168
   133  H    0.016724
   134  H    0.030122
   135  H    0.035993
   136  H    0.020135
   137  H    0.023775
   138  H    0.022328
   139  H    0.025931
   140  H    0.021721
 Sum of Mulliken charges =  -0.00000

 Dipole moment (field-independent basis, Debye):
    X=              2.8386    Y=              4.2293    Z=              1.1017  Tot=              5.2113
 Quadrupole moment (field-independent basis, Debye-Ang):
   XX=           -345.2479   YY=           -444.1023   ZZ=           -393.8520
   XY=             14.9817   XZ=             -4.8649   YZ=             31.0637

 Normal termination of Gaussian 16 at Fri Apr 29 14:13:37 2022.
