 Gaussian 16, Revision A.03,
 Gaussian 16:  ES64L-G16RevA.03 25-Dec-2016

 --------------------
 #p ZINDO=(nstates=5)
 --------------------

 ----------------------------
 step_301_chromophore_5 ZINDO
 ----------------------------
 Symbolic Z-matrix:
 Charge =  0 Multiplicity = 1

                         Standard orientation:
 ---------------------------------------------------------------------
 Center     Atomic      Atomic             Coordinates (Angstroms)
 Number     Number       Type             X           Y           Z
 ---------------------------------------------------------------------
      1         12           0        5.180715    0.513169   -0.541072
      2          6           0        3.890524   -2.749550   -0.213246
      3          6           0        2.674234    1.136695   -2.796237
      4          6           0        5.730124    3.833671    0.004908
      5          6           0        7.402327   -0.248041    2.032161
      6          7           0        3.447758   -0.648541   -1.246588
      7          6           0        3.120515   -1.944618   -1.019621
      8          6           0        1.878847   -2.407763   -1.687058
      9          6           0        1.710278   -1.264505   -2.735275
     10          6           0        2.674897   -0.149329   -2.203382
     11          6           0        2.031290   -1.709509   -4.146957
     12          6           0        0.619929   -2.587762   -0.814820
     13          6           0       -0.528811   -3.415553   -1.319622
     14          6           0       -1.828590   -2.685098   -1.557939
     15          8           0       -2.333707   -2.448775   -2.612138
     16          8           0       -2.451419   -2.479348   -0.363822
     17          7           0        4.319769    2.232527   -1.351438
     18          6           0        3.465994    2.257240   -2.394668
     19          6           0        3.367962    3.636076   -2.813814
     20          6           0        4.098719    4.406075   -1.921549
     21          6           0        4.807164    3.516887   -1.075453
     22          6           0        2.444627    4.098244   -3.935989
     23          6           0        4.221399    5.917797   -2.030088
     24          8           0        3.819020    6.594130   -2.939453
     25          6           0        4.961000    6.691035   -0.945642
     26          7           0        6.257724    1.615721    0.971899
     27          6           0        6.401592    2.937211    0.842238
     28          6           0        7.522584    3.504745    1.780203
     29          6           0        8.068414    2.185312    2.420325
     30          6           0        7.231115    1.070021    1.758587
     31          6           0        8.585209    4.519597    1.118177
     32          6           0        8.033802    2.080292    4.033551
     33          6           0        9.246142    1.498882    4.782594
     34          7           0        5.713073   -1.232803    0.657176
     35          6           0        6.634237   -1.352843    1.614194
     36          6           0        6.707948   -2.752668    2.015649
     37          6           0        5.613923   -3.317917    1.335785
     38          6           0        5.064192   -2.356848    0.509715
     39          6           0        7.684971   -3.324507    3.085147
     40          6           0        4.813209   -4.540720    1.203897
     41          8           0        4.861817   -5.591647    1.781753
     42          6           0        3.722017   -4.195821    0.177628
     43          6           0        3.732840   -5.124370   -0.951435
     44          8           0        2.739671   -5.836843   -1.219508
     45          8           0        4.910847   -5.086169   -1.607579
     46          6           0        4.919057   -5.715378   -2.946017
     47          6           0       -3.724453   -1.796733   -0.356504
     48          6           0       -3.688945   -0.607186    0.553483
     49          6           0       -4.316285   -0.255116    1.735938
     50          6           0       -5.109112   -1.146479    2.596111
     51          6           0       -4.098363    1.197481    2.228123
     52          6           0       -4.899402    2.354960    1.550529
     53          6           0       -6.442112    2.356364    1.819856
     54          6           0       -7.392794    2.622826    0.598683
     55          6           0       -7.747752    4.137694    0.435009
     56          6           0       -8.730560    1.843774    0.544801
     57          6           0       -8.525221    0.327997    0.286909
     58          6           0       -9.268014   -0.521080    1.263501
     59          6           0      -10.646979   -0.819771    0.711521
     60          6           0      -10.462659   -2.100861   -0.082651
     61          6           0      -11.676713   -0.952906    1.819435
     62          6           0      -12.711624    0.222032    1.622280
     63          6           0      -13.861262   -0.222144    0.728834
     64          6           0      -14.578550    0.960482   -0.018325
     65          6           0      -16.117786    0.627962   -0.339798
     66          6           0      -13.801331    1.077983   -1.338347
     67          1           0        1.918522    1.285185   -3.570908
     68          1           0        6.037169    4.851083    0.256591
     69          1           0        8.183477   -0.551589    2.731638
     70          1           0        2.094802   -3.425795   -2.012498
     71          1           0        0.657009   -0.999410   -2.824267
     72          1           0        2.924754   -1.152925   -4.429336
     73          1           0        1.161145   -1.442446   -4.747390
     74          1           0        2.201021   -2.781445   -4.044640
     75          1           0        0.292726   -1.598893   -0.493183
     76          1           0        1.024504   -2.974576    0.120155
     77          1           0       -0.638222   -4.280316   -0.665747
     78          1           0       -0.366234   -3.826705   -2.315405
     79          1           0        1.484954    4.443555   -3.551976
     80          1           0        2.244722    3.233091   -4.568392
     81          1           0        2.643851    4.896708   -4.651695
     82          1           0        6.032608    6.541354   -1.076553
     83          1           0        4.534567    6.345848   -0.003077
     84          1           0        4.727933    7.750691   -1.050551
     85          1           0        6.993999    4.049751    2.561320
     86          1           0        9.091738    2.027937    2.079752
     87          1           0        8.245113    5.475405    1.514906
     88          1           0        8.544057    4.554758    0.029159
     89          1           0        9.591766    4.305190    1.478446
     90          1           0        7.134653    1.637030    4.461529
     91          1           0        7.910177    3.123701    4.322521
     92          1           0        9.374604    1.990771    5.746785
     93          1           0       10.170714    1.485464    4.206497
     94          1           0        8.943645    0.494368    5.079015
     95          1           0        7.115618   -3.301244    4.014644
     96          1           0        8.638325   -2.817154    3.240480
     97          1           0        7.985069   -4.354998    2.899270
     98          1           0        2.759372   -4.195486    0.690051
     99          1           0        4.914271   -4.933147   -3.705109
    100          1           0        4.064801   -6.376615   -3.093851
    101          1           0        5.793585   -6.342508   -3.118302
    102          1           0       -4.500952   -2.504215   -0.062909
    103          1           0       -3.978138   -1.362374   -1.323796
    104          1           0       -3.237827    0.222701    0.009509
    105          1           0       -5.931503   -0.444494    2.733119
    106          1           0       -4.451340   -1.267989    3.457532
    107          1           0       -5.351575   -2.101329    2.129250
    108          1           0       -3.050079    1.426785    2.041252
    109          1           0       -4.238149    1.349527    3.298569
    110          1           0       -4.569893    2.510857    0.523243
    111          1           0       -4.562554    3.264109    2.049138
    112          1           0       -6.506788    3.152181    2.562996
    113          1           0       -6.803076    1.483896    2.364171
    114          1           0       -6.814865    2.338953   -0.280494
    115          1           0       -7.436439    4.636554    1.352656
    116          1           0       -8.795585    4.376410    0.251758
    117          1           0       -7.257073    4.551741   -0.446100
    118          1           0       -9.308095    2.135310   -0.331259
    119          1           0       -9.324954    2.012313    1.442978
    120          1           0       -7.465961    0.095126    0.398961
    121          1           0       -8.715943    0.197047   -0.777742
    122          1           0       -9.293742   -0.010385    2.226863
    123          1           0       -8.695486   -1.444487    1.352432
    124          1           0      -10.862863   -0.062262   -0.042259
    125          1           0       -9.526841   -2.146396   -0.639383
    126          1           0      -11.236541   -2.190492   -0.846092
    127          1           0      -10.653410   -2.995925    0.509852
    128          1           0      -11.173164   -0.933783    2.786514
    129          1           0      -12.247617   -1.881698    1.794832
    130          1           0      -12.182928    1.123436    1.310298
    131          1           0      -13.337531    0.317440    2.509282
    132          1           0      -14.674958   -0.634120    1.327579
    133          1           0      -13.555463   -1.008014    0.038931
    134          1           0      -14.471176    1.846845    0.606011
    135          1           0      -16.352653    0.407366   -1.381716
    136          1           0      -16.757297    1.477560   -0.100420
    137          1           0      -16.572191   -0.104040    0.328049
    138          1           0      -13.674711    2.114803   -1.650343
    139          1           0      -14.302276    0.619052   -2.190313
    140          1           0      -12.808432    0.632667   -1.273334
 ---------------------------------------------------------------------

 SCF Done:  E(RZINDO/S) =  -474.677237406     A.U. after   19 cycles

 Excitation energies and oscillator strengths:

 Excited State   1:      Singlet-A      1.3038 eV  950.96 nm  f=0.5911  <S**2>=0.000
     175 ->178         0.17312
     176 ->177         0.66921
 This state for optimization and/or second-order correction.
 Total Energy, E(CIS/TDA) =  -474.629324422
 Copying the excited state density for this state as the 1-particle RhoCI density.

 Excited State   2:      Singlet-A      1.9486 eV  636.27 nm  f=0.0818  <S**2>=0.000
     175 ->177         0.57534
     176 ->178        -0.37819

 Excited State   3:      Singlet-A      2.9459 eV  420.87 nm  f=0.0012  <S**2>=0.000
     168 ->177         0.15975
     168 ->178         0.10253
     168 ->179        -0.22472
     168 ->181        -0.19210
     168 ->185        -0.13862
     169 ->177         0.11766
     169 ->179        -0.15930
     169 ->181        -0.13309
     176 ->179         0.10729
     176 ->180         0.46240

 Excited State   4:      Singlet-A      2.9499 eV  420.31 nm  f=0.0017  <S**2>=0.000
     168 ->177        -0.14666
     168 ->179         0.21167
     168 ->181         0.17846
     168 ->185         0.12687
     169 ->177        -0.11500
     169 ->179         0.13956
     169 ->181         0.11945
     176 ->180         0.51055

 Excited State   5:      Singlet-A      3.0762 eV  403.04 nm  f=0.1148  <S**2>=0.000
     170 ->177         0.25858
     170 ->179         0.26177
     170 ->181        -0.22859
     170 ->182         0.13119
     170 ->185         0.15251
     170 ->187        -0.12556
     171 ->177         0.14419
     171 ->179         0.17991
     171 ->181        -0.15151
     171 ->185         0.10194
     175 ->177        -0.11630
     176 ->178        -0.19023

 The electronic state is 1-A.
 Alpha  occ. eigenvalues --   -1.87437  -1.83370  -1.81308  -1.74856  -1.73600
 Alpha  occ. eigenvalues --   -1.72666  -1.68829  -1.61503  -1.60251  -1.59334
 Alpha  occ. eigenvalues --   -1.55451  -1.51589  -1.49270  -1.48068  -1.46758
 Alpha  occ. eigenvalues --   -1.45471  -1.44868  -1.41046  -1.39171  -1.38772
 Alpha  occ. eigenvalues --   -1.36213  -1.33803  -1.32887  -1.31315  -1.28440
 Alpha  occ. eigenvalues --   -1.28070  -1.27228  -1.24037  -1.22403  -1.19110
 Alpha  occ. eigenvalues --   -1.17585  -1.15360  -1.15218  -1.14416  -1.13353
 Alpha  occ. eigenvalues --   -1.12690  -1.10873  -1.10247  -1.05947  -1.04618
 Alpha  occ. eigenvalues --   -1.02739  -1.01416  -0.98680  -0.97632  -0.96719
 Alpha  occ. eigenvalues --   -0.96395  -0.95003  -0.93852  -0.92830  -0.92582
 Alpha  occ. eigenvalues --   -0.91363  -0.90285  -0.89753  -0.89353  -0.87808
 Alpha  occ. eigenvalues --   -0.86322  -0.84867  -0.84203  -0.83114  -0.81398
 Alpha  occ. eigenvalues --   -0.79988  -0.78790  -0.77695  -0.77281  -0.77108
 Alpha  occ. eigenvalues --   -0.76629  -0.75641  -0.74569  -0.74014  -0.73280
 Alpha  occ. eigenvalues --   -0.73124  -0.72593  -0.72076  -0.71314  -0.71124
 Alpha  occ. eigenvalues --   -0.70268  -0.70220  -0.68748  -0.67992  -0.67951
 Alpha  occ. eigenvalues --   -0.67415  -0.67361  -0.66735  -0.66349  -0.65580
 Alpha  occ. eigenvalues --   -0.65365  -0.64796  -0.64225  -0.63766  -0.63608
 Alpha  occ. eigenvalues --   -0.63116  -0.63005  -0.62656  -0.62431  -0.62211
 Alpha  occ. eigenvalues --   -0.61822  -0.61382  -0.61033  -0.60445  -0.59841
 Alpha  occ. eigenvalues --   -0.59821  -0.58895  -0.58476  -0.58169  -0.57739
 Alpha  occ. eigenvalues --   -0.57645  -0.57285  -0.57013  -0.56849  -0.56349
 Alpha  occ. eigenvalues --   -0.56078  -0.55949  -0.55887  -0.55280  -0.54892
 Alpha  occ. eigenvalues --   -0.54811  -0.54044  -0.53720  -0.53577  -0.53317
 Alpha  occ. eigenvalues --   -0.53061  -0.52614  -0.51927  -0.51761  -0.51452
 Alpha  occ. eigenvalues --   -0.51209  -0.50915  -0.50505  -0.50483  -0.50068
 Alpha  occ. eigenvalues --   -0.49881  -0.49451  -0.49132  -0.49069  -0.48911
 Alpha  occ. eigenvalues --   -0.48868  -0.48228  -0.48193  -0.48050  -0.47714
 Alpha  occ. eigenvalues --   -0.47544  -0.47358  -0.46934  -0.46826  -0.46734
 Alpha  occ. eigenvalues --   -0.46393  -0.46072  -0.45990  -0.45950  -0.45852
 Alpha  occ. eigenvalues --   -0.45495  -0.45176  -0.45057  -0.44604  -0.44433
 Alpha  occ. eigenvalues --   -0.43870  -0.42869  -0.42488  -0.42064  -0.41876
 Alpha  occ. eigenvalues --   -0.41476  -0.41361  -0.41262  -0.39304  -0.38735
 Alpha  occ. eigenvalues --   -0.38196  -0.36823  -0.35803  -0.35393  -0.34308
 Alpha  occ. eigenvalues --   -0.34229  -0.33145  -0.32124  -0.31410  -0.27176
 Alpha  occ. eigenvalues --   -0.22438
 Alpha virt. eigenvalues --   -0.08992  -0.02063  -0.00238  -0.00011   0.01382
 Alpha virt. eigenvalues --    0.02560   0.02608   0.02897   0.04532   0.04630
 Alpha virt. eigenvalues --    0.06296   0.06675   0.06998   0.07631   0.08023

 Mulliken charges:
               1
     1  Mg   0.431323
     2  C   -0.042016
     3  C   -0.084806
     4  C   -0.105924
     5  C   -0.055287
     6  N   -0.266418
     7  C    0.102734
     8  C   -0.001964
     9  C   -0.004534
    10  C    0.166183
    11  C   -0.055762
    12  C   -0.013607
    13  C    0.011337
    14  C    0.476169
    15  O   -0.510431
    16  O   -0.271588
    17  N   -0.334346
    18  C    0.136927
    19  C    0.056177
    20  C   -0.030545
    21  C    0.134807
    22  C   -0.044581
    23  C    0.323422
    24  O   -0.506910
    25  C   -0.032297
    26  N   -0.267213
    27  C    0.156707
    28  C   -0.010068
    29  C   -0.000863
    30  C    0.097989
    31  C   -0.052976
    32  C   -0.033267
    33  C   -0.054956
    34  N   -0.305852
    35  C    0.076135
    36  C   -0.002261
    37  C   -0.059188
    38  C    0.091458
    39  C   -0.041198
    40  C    0.333456
    41  O   -0.510643
    42  C    0.059349
    43  C    0.499957
    44  O   -0.550150
    45  O   -0.252409
    46  C    0.073461
    47  C    0.111778
    48  C   -0.112724
    49  C    0.005438
    50  C   -0.046717
    51  C   -0.021065
    52  C   -0.030231
    53  C   -0.032846
    54  C   -0.010099
    55  C   -0.064180
    56  C   -0.035273
    57  C   -0.040913
    58  C   -0.025441
    59  C   -0.004369
    60  C   -0.056843
    61  C   -0.034540
    62  C   -0.044234
    63  C   -0.032323
    64  C   -0.014068
    65  C   -0.066414
    66  C   -0.055478
    67  H    0.036098
    68  H    0.037616
    69  H    0.021167
    70  H    0.040640
    71  H    0.033983
    72  H    0.024709
    73  H    0.029496
    74  H    0.031003
    75  H    0.019259
    76  H    0.017644
    77  H    0.048349
    78  H    0.033838
    79  H    0.033577
    80  H    0.011783
    81  H    0.046992
    82  H    0.045243
    83  H    0.031377
    84  H    0.035050
    85  H    0.031880
    86  H    0.027869
    87  H    0.019064
    88  H    0.030818
    89  H    0.028276
    90  H    0.028783
    91  H    0.005625
    92  H    0.020206
    93  H    0.028119
    94  H    0.017558
    95  H    0.030685
    96  H    0.023342
    97  H    0.028924
    98  H    0.054819
    99  H    0.033658
   100  H    0.052617
   101  H    0.038763
   102  H    0.035430
   103  H    0.052389
   104  H    0.013646
   105  H    0.043006
   106  H    0.038545
   107  H    0.031826
   108  H    0.016659
   109  H    0.018206
   110  H    0.028668
   111  H    0.008182
   112  H    0.014597
   113  H    0.020458
   114  H    0.019351
   115  H    0.019084
   116  H    0.018450
   117  H    0.015823
   118  H    0.016191
   119  H    0.023012
   120  H    0.004014
   121  H    0.021942
   122  H    0.016476
   123  H    0.013311
   124  H    0.027912
   125  H    0.020181
   126  H    0.000081
   127  H    0.019596
   128  H    0.017991
   129  H    0.019430
   130  H    0.033135
   131  H    0.017048
   132  H    0.009062
   133  H    0.020957
   134  H    0.031390
   135  H    0.027495
   136  H    0.008091
   137  H    0.019891
   138  H    0.007508
   139  H    0.019522
   140  H    0.017629
 Sum of Mulliken charges =  -0.00000

 Dipole moment (field-independent basis, Debye):
    X=              2.8520    Y=              7.1732    Z=              0.6569  Tot=              7.7473
 N-N= 4.378576858766D+03 E-N= 0.000000000000D+00  KE=-9.431281257628D+03
 Leave Link  601 at Fri Apr 29 14:28:30 2022, MaxMem=  6710886400 cpu:               0.9 elap:               0.1
 (Enter /sw/apps/gaussian-16.0/g16/l9999.exe)
 1\1\GINC-BP1-COMPUTE082\SP\RZINDO CIS\STO-3G\C55H74Mg1N4O6\OF15641\29-
 Apr-2022\0\\#p ZINDO=(nstates=5)\\step_301_chromophore_5 ZINDO\\0,1\Mg
 ,0,24.896,-6.357,45.682\C,0,27.447,-4.313,44.366\C,0,22.71,-4.757,43.5
 8\C,0,22.785,-8.998,46.123\C,0,27.361,-8.069,47.451\N,0,25.142,-4.852,
 44.093\C,0,26.237,-4.136,43.737\C,0,26.029,-3.177,42.624\C,0,24.47,-3.
 116,42.627\C,0,24.067,-4.363,43.487\C,0,23.934,-1.811,43.178\C,0,26.59
 4,-3.552,41.239\C,0,26.777,-2.489,40.192\C,0,25.933,-2.621,38.947\O,0,

 Normal termination of Gaussian 16 at Fri Apr 29 14:28:30 2022.
