 Gaussian 16, Revision A.03,
 Gaussian 16:  ES64L-G16RevA.03 25-Dec-2016

 ------------------------------
 #p blyp/Def2SVP td=(nstates=5)
 ------------------------------

 --------------------------------------------------
 step_1551_chromophore_3 TDDFT with blyp functional
 --------------------------------------------------
 Symbolic Z-matrix:
 Charge =  0 Multiplicity = 1

                         Standard orientation:
 ---------------------------------------------------------------------
 Center     Atomic      Atomic             Coordinates (Angstroms)
 Number     Number       Type             X           Y           Z
 ---------------------------------------------------------------------
      1         12           0       -5.542420    1.035147   -0.053072
      2          6           0       -4.504422   -2.317151   -0.099413
      3          6           0       -2.231354    1.952822   -0.359939
      4          6           0       -6.524841    4.197084    0.350575
      5          6           0       -8.826794   -0.050902    0.686389
      6          7           0       -3.634827   -0.029349   -0.189318
      7          6           0       -3.421768   -1.437098   -0.190724
      8          6           0       -1.874130   -1.820853   -0.380402
      9          6           0       -1.164545   -0.425613   -0.127998
     10          6           0       -2.408513    0.605769   -0.210392
     11          6           0       -0.233924   -0.298064    1.127720
     12          6           0       -1.625288   -2.519434   -1.748072
     13          6           0       -0.658089   -3.709716   -1.776239
     14          6           0        0.385706   -3.888071   -0.634113
     15          8           0        0.171510   -4.613591    0.343999
     16          8           0        1.376316   -3.026031   -0.862017
     17          7           0       -4.581207    2.831615   -0.103273
     18          6           0       -3.222968    2.982255   -0.284004
     19          6           0       -3.019192    4.397594   -0.463311
     20          6           0       -4.195802    5.098215   -0.297058
     21          6           0       -5.185371    4.033102   -0.008308
     22          6           0       -1.751404    4.940287   -0.920219
     23          6           0       -4.549044    6.596916   -0.399028
     24          8           0       -5.721674    6.976527   -0.340417
     25          6           0       -3.494233    7.687690   -0.573572
     26          7           0       -7.349680    1.880381    0.605425
     27          6           0       -7.520963    3.289078    0.507862
     28          6           0       -8.993468    3.734136    0.684767
     29          6           0       -9.768541    2.369621    0.504339
     30          6           0       -8.606320    1.354648    0.716394
     31          6           0       -9.219620    4.442113    2.082799
     32          6           0      -10.387026    2.104470   -0.852225
     33          6           0      -11.893385    1.663180   -0.856598
     34          7           0       -6.556829   -0.858522    0.174270
     35          6           0       -7.834486   -1.091554    0.519440
     36          6           0       -8.035848   -2.517107    0.476961
     37          6           0       -6.787128   -3.069561    0.225358
     38          6           0       -5.867502   -1.990283    0.028631
     39          6           0       -9.325358   -3.316375    0.643194
     40          6           0       -6.022924   -4.266935    0.096036
     41          8           0       -6.429927   -5.418460    0.148102
     42          6           0       -4.493401   -3.788461   -0.194532
     43          6           0       -3.738763   -4.501693    0.762554
     44          8           0       -3.270645   -4.113064    1.852097
     45          8           0       -3.602697   -5.774344    0.310537
     46          6           0       -3.115961   -6.777653    1.244716
     47          6           0        2.349305   -2.969417    0.196384
     48          6           0        3.525259   -2.126648   -0.268910
     49          6           0        4.657259   -2.499756   -0.870382
     50          6           0        4.966868   -3.941935   -1.315515
     51          6           0        5.536567   -1.463993   -1.450396
     52          6           0        7.030837   -1.687732   -1.417112
     53          6           0        7.811671   -0.383085   -1.156064
     54          6           0        9.300777   -0.545422   -1.701098
     55          6           0        9.435183    0.155279   -3.102615
     56          6           0       10.479057   -0.170638   -0.704575
     57          6           0       11.467724   -1.322562   -0.283083
     58          6           0       11.781305   -1.362813    1.214945
     59          6           0       13.000068   -0.610729    1.769148
     60          6           0       13.307663   -1.120269    3.235660
     61          6           0       12.848295    0.939950    1.644553
     62          6           0       13.638642    1.484842    0.484588
     63          6           0       14.793547    2.325316    0.989766
     64          6           0       14.921261    3.717432    0.365758
     65          6           0       15.897094    3.661554   -0.826326
     66          6           0       15.401292    4.859203    1.370041
     67          1           0       -1.241251    2.247100   -0.715040
     68          1           0       -6.914489    5.209208    0.478067
     69          1           0       -9.879833   -0.339754    0.685519
     70          1           0       -1.474508   -2.442396    0.419783
     71          1           0       -0.487895   -0.231278   -0.959337
     72          1           0        0.775955   -0.298748    0.717636
     73          1           0       -0.482748   -1.210514    1.669595
     74          1           0       -0.315566    0.582529    1.764005
     75          1           0       -1.400193   -1.767340   -2.504786
     76          1           0       -2.568770   -2.921198   -2.117434
     77          1           0       -0.063240   -3.566811   -2.678016
     78          1           0       -1.116019   -4.699106   -1.781937
     79          1           0       -1.164971    5.329792   -0.087872
     80          1           0       -1.887660    5.684973   -1.703709
     81          1           0       -1.107014    4.197307   -1.390188
     82          1           0       -2.574623    7.529181   -0.010286
     83          1           0       -3.845895    8.665073   -0.244067
     84          1           0       -3.110440    7.615848   -1.590797
     85          1           0       -9.224503    4.475315   -0.080786
     86          1           0      -10.577872    2.151873    1.200957
     87          1           0       -9.694696    5.422468    2.037671
     88          1           0       -8.320318    4.594252    2.679188
     89          1           0       -9.886899    3.835194    2.694647
     90          1           0      -10.008621    1.184323   -1.299398
     91          1           0      -10.240019    2.949034   -1.525575
     92          1           0      -12.426881    2.359350   -1.502492
     93          1           0      -12.420364    1.638783    0.097496
     94          1           0      -12.074488    0.693913   -1.320755
     95          1           0      -10.057491   -2.812683    1.273703
     96          1           0       -9.212335   -4.298579    1.101533
     97          1           0       -9.686304   -3.476239   -0.373536
     98          1           0       -4.304939   -4.256389   -1.160548
     99          1           0       -3.368898   -6.603667    2.290300
    100          1           0       -2.035578   -6.652420    1.173879
    101          1           0       -3.428658   -7.774936    0.935072
    102          1           0        2.810330   -3.860587    0.623305
    103          1           0        2.002783   -2.313299    0.994107
    104          1           0        3.335432   -1.083717   -0.015095
    105          1           0        4.033211   -4.504735   -1.289573
    106          1           0        5.703199   -4.399938   -0.655469
    107          1           0        5.329808   -3.929931   -2.342740
    108          1           0        5.180734   -0.471431   -1.173028
    109          1           0        5.441721   -1.435710   -2.535895
    110          1           0        7.495090   -2.230599   -2.240675
    111          1           0        7.359689   -2.386952   -0.647535
    112          1           0        7.996313   -0.325695   -0.083594
    113          1           0        7.316035    0.517607   -1.518367
    114          1           0        9.475423   -1.560231   -2.058062
    115          1           0        9.528809   -0.631326   -3.851938
    116          1           0       10.363619    0.674180   -3.341854
    117          1           0        8.538389    0.656822   -3.465378
    118          1           0       10.106131    0.435549    0.120658
    119          1           0       11.164170    0.496353   -1.228223
    120          1           0       12.383183   -1.179589   -0.857363
    121          1           0       10.996736   -2.253565   -0.597304
    122          1           0       11.813046   -2.408410    1.520854
    123          1           0       10.894578   -0.939136    1.688241
    124          1           0       13.814317   -0.971522    1.141044
    125          1           0       14.228745   -1.693643    3.338286
    126          1           0       12.543320   -1.854871    3.486434
    127          1           0       13.369751   -0.273112    3.919069
    128          1           0       13.157141    1.423129    2.570690
    129          1           0       11.813030    1.269131    1.552378
    130          1           0       13.073427    2.139966   -0.178715
    131          1           0       14.093462    0.656615   -0.057922
    132          1           0       15.680573    1.758497    0.705265
    133          1           0       14.860807    2.444855    2.070523
    134          1           0       13.969306    3.984309   -0.093459
    135          1           0       16.697009    4.402077   -0.802734
    136          1           0       15.316823    3.868677   -1.726147
    137          1           0       16.285029    2.661302   -1.019812
    138          1           0       16.102985    5.490917    0.824630
    139          1           0       15.935667    4.295756    2.134736
    140          1           0       14.603984    5.473683    1.788769
 ---------------------------------------------------------------------

 SCF Done:  E(RB-LYP) =  -3007.34687660     A.U. after   21 cycles

 Excitation energies and oscillator strengths:

 Excited State   1:      Singlet-A      1.7919 eV  691.92 nm  f=0.3100  <S**2>=0.000
     245 -> 248        0.16210
     246 -> 247        0.68817
     246 <- 247       -0.15562
 This state for optimization and/or second-order correction.
 Total Energy, E(TD-HF/TD-DFT) =  -3007.28102554
 Copying the excited state density for this state as the 1-particle RhoCI density.

 Excited State   2:      Singlet-A      1.8914 eV  655.51 nm  f=0.0172  <S**2>=0.000
     244 -> 247        0.61492
     245 -> 247        0.31308

 Excited State   3:      Singlet-A      1.9942 eV  621.72 nm  f=0.0313  <S**2>=0.000
     243 -> 247        0.49401
     244 -> 247        0.28281
     245 -> 247       -0.39156
     246 -> 248        0.11954

 Excited State   4:      Singlet-A      2.0821 eV  595.47 nm  f=0.0472  <S**2>=0.000
     243 -> 247        0.49593
     244 -> 247       -0.17222
     245 -> 247        0.41942
     246 -> 248       -0.17177

 Excited State   5:      Singlet-A      2.2541 eV  550.04 nm  f=0.0066  <S**2>=0.000
     242 -> 247        0.70052

 The electronic state is 1-A.
 Alpha  occ. eigenvalues --  -46.26798 -18.84203 -18.80073 -18.77325 -18.75864
 Alpha  occ. eigenvalues --  -18.75712 -18.74430 -14.03640 -14.03144 -14.01204
 Alpha  occ. eigenvalues --  -14.00282 -10.04425 -10.01804 -10.00667  -9.99377
 Alpha  occ. eigenvalues --   -9.97941  -9.97065  -9.96541  -9.96533  -9.95939
 Alpha  occ. eigenvalues --   -9.95694  -9.95645  -9.95635  -9.95438  -9.94505
 Alpha  occ. eigenvalues --   -9.94338  -9.94315  -9.94123  -9.94002  -9.93658
 Alpha  occ. eigenvalues --   -9.93392  -9.93288  -9.93192  -9.93068  -9.93049
 Alpha  occ. eigenvalues --   -9.92971  -9.92917  -9.92889  -9.92873  -9.92651
 Alpha  occ. eigenvalues --   -9.92617  -9.92565  -9.92502  -9.92479  -9.92391
 Alpha  occ. eigenvalues --   -9.92201  -9.92168  -9.92086  -9.92029  -9.91978
 Alpha  occ. eigenvalues --   -9.91974  -9.91924  -9.91785  -9.91717  -9.91459
 Alpha  occ. eigenvalues --   -9.91356  -9.91231  -9.91085  -9.90928  -9.90881
 Alpha  occ. eigenvalues --   -9.90878  -9.90858  -9.90714  -9.90411  -9.90297
 Alpha  occ. eigenvalues --   -9.90255  -2.91444  -1.71872  -1.71325  -1.71158
 Alpha  occ. eigenvalues --   -1.00100  -0.96162  -0.91331  -0.91083  -0.90540
 Alpha  occ. eigenvalues --   -0.86945  -0.86549  -0.86024  -0.84420  -0.83491
 Alpha  occ. eigenvalues --   -0.75708  -0.74478  -0.73324  -0.72447  -0.72358
 Alpha  occ. eigenvalues --   -0.71847  -0.71789  -0.70894  -0.70777  -0.70274
 Alpha  occ. eigenvalues --   -0.69382  -0.69259  -0.68132  -0.67575  -0.67170
 Alpha  occ. eigenvalues --   -0.66692  -0.65744  -0.65392  -0.64894  -0.64451
 Alpha  occ. eigenvalues --   -0.64212  -0.62544  -0.62186  -0.61609  -0.61140
 Alpha  occ. eigenvalues --   -0.60018  -0.59806  -0.59773  -0.59303  -0.59247
 Alpha  occ. eigenvalues --   -0.58662  -0.57842  -0.56324  -0.55830  -0.54363
 Alpha  occ. eigenvalues --   -0.53819  -0.53626  -0.52741  -0.52449  -0.51626
 Alpha  occ. eigenvalues --   -0.51380  -0.51161  -0.50767  -0.50309  -0.50231
 Alpha  occ. eigenvalues --   -0.49764  -0.49547  -0.49143  -0.47231  -0.46991
 Alpha  occ. eigenvalues --   -0.46521  -0.45767  -0.45541  -0.45184  -0.44442
 Alpha  occ. eigenvalues --   -0.44159  -0.43995  -0.43209  -0.42544  -0.42158
 Alpha  occ. eigenvalues --   -0.41804  -0.41779  -0.41359  -0.40924  -0.40682
 Alpha  occ. eigenvalues --   -0.40572  -0.40450  -0.40177  -0.40159  -0.39814
 Alpha  occ. eigenvalues --   -0.39787  -0.39662  -0.39523  -0.39376  -0.39139
 Alpha  occ. eigenvalues --   -0.38883  -0.38836  -0.38528  -0.38301  -0.38110
 Alpha  occ. eigenvalues --   -0.38001  -0.37814  -0.37748  -0.37532  -0.37460
 Alpha  occ. eigenvalues --   -0.37225  -0.36706  -0.36597  -0.36531  -0.36231
 Alpha  occ. eigenvalues --   -0.36057  -0.35997  -0.35605  -0.35513  -0.35349
 Alpha  occ. eigenvalues --   -0.35324  -0.35203  -0.35085  -0.34929  -0.34638
 Alpha  occ. eigenvalues --   -0.34368  -0.34228  -0.34159  -0.33618  -0.33583
 Alpha  occ. eigenvalues --   -0.33503  -0.33334  -0.33228  -0.33140  -0.32921
 Alpha  occ. eigenvalues --   -0.32854  -0.32636  -0.32538  -0.32468  -0.32126
 Alpha  occ. eigenvalues --   -0.32110  -0.31975  -0.31690  -0.31512  -0.31331
 Alpha  occ. eigenvalues --   -0.31280  -0.31048  -0.30737  -0.30551  -0.30339
 Alpha  occ. eigenvalues --   -0.30327  -0.30019  -0.29888  -0.29647  -0.29547
 Alpha  occ. eigenvalues --   -0.29341  -0.29237  -0.29191  -0.29071  -0.28882
 Alpha  occ. eigenvalues --   -0.28717  -0.28491  -0.28255  -0.28123  -0.27628
 Alpha  occ. eigenvalues --   -0.27381  -0.27074  -0.26761  -0.26358  -0.26331
 Alpha  occ. eigenvalues --   -0.26280  -0.26014  -0.25968  -0.25827  -0.25600
 Alpha  occ. eigenvalues --   -0.25404  -0.24756  -0.23881  -0.23436  -0.23151
 Alpha  occ. eigenvalues --   -0.22804  -0.22404  -0.22243  -0.20933  -0.20704
 Alpha  occ. eigenvalues --   -0.20275  -0.19813  -0.18994  -0.18529  -0.17202
 Alpha  occ. eigenvalues --   -0.15755
 Alpha virt. eigenvalues --   -0.11599  -0.06686  -0.05952  -0.04711  -0.03469
 Alpha virt. eigenvalues --   -0.02893  -0.02443  -0.01411  -0.01066   0.00417
 Alpha virt. eigenvalues --    0.01405   0.02076   0.02441   0.02583   0.03009

 Mulliken charges:
               1
     1  Mg   0.693328
     2  C    0.147408
     3  C   -0.088362
     4  C   -0.030370
     5  C   -0.076153
     6  N   -0.254951
     7  C   -0.065792
     8  C   -0.007197
     9  C   -0.033661
    10  C    0.071909
    11  C    0.113384
    12  C    0.150477
    13  C    0.148594
    14  C    0.051557
    15  O   -0.199500
    16  O   -0.222645
    17  N   -0.294805
    18  C    0.147218
    19  C   -0.131425
    20  C    0.051901
    21  C    0.098235
    22  C    0.163076
    23  C   -0.052160
    24  O   -0.173546
    25  C    0.121892
    26  N   -0.254964
    27  C    0.026631
    28  C    0.033480
    29  C    0.054992
    30  C    0.016090
    31  C    0.111151
    32  C    0.086811
    33  C    0.027874
    34  N   -0.203400
    35  C    0.105559
    36  C   -0.187423
    37  C    0.149297
    38  C    0.003097
    39  C    0.162401
    40  C   -0.112548
    41  O   -0.119026
    42  C    0.011554
    43  C    0.100583
    44  O   -0.214169
    45  O   -0.265843
    46  C    0.228007
    47  C    0.320757
    48  C   -0.198007
    49  C   -0.079995
    50  C    0.141767
    51  C    0.166468
    52  C    0.023761
    53  C    0.131916
    54  C   -0.084013
    55  C    0.087543
    56  C    0.078084
    57  C    0.085772
    58  C    0.077118
    59  C   -0.063589
    60  C    0.112173
    61  C    0.128003
    62  C    0.087279
    63  C    0.098575
    64  C   -0.124146
    65  C    0.095859
    66  C    0.106504
    67  H   -0.057174
    68  H   -0.047850
    69  H   -0.059340
    70  H    0.019081
    71  H   -0.033666
    72  H   -0.002436
    73  H    0.017203
    74  H   -0.000133
    75  H   -0.029219
    76  H   -0.018420
    77  H   -0.020435
    78  H    0.001668
    79  H    0.003352
    80  H   -0.009825
    81  H   -0.022891
    82  H   -0.014417
    83  H    0.006608
    84  H    0.011693
    85  H   -0.014589
    86  H   -0.031918
    87  H   -0.005264
    88  H    0.000895
    89  H   -0.015124
    90  H   -0.004747
    91  H   -0.012179
    92  H   -0.012524
    93  H   -0.006528
    94  H   -0.007500
    95  H   -0.010494
    96  H    0.006207
    97  H    0.005848
    98  H    0.011194
    99  H    0.011691
   100  H    0.008930
   101  H    0.013671
   102  H    0.011070
   103  H   -0.013976
   104  H   -0.035205
   105  H   -0.001811
   106  H    0.009878
   107  H   -0.004601
   108  H   -0.034548
   109  H   -0.016222
   110  H   -0.032852
   111  H   -0.040896
   112  H   -0.031478
   113  H   -0.014929
   114  H   -0.028391
   115  H   -0.041168
   116  H   -0.018495
   117  H   -0.021027
   118  H   -0.022774
   119  H   -0.038895
   120  H   -0.031836
   121  H   -0.034462
   122  H   -0.039602
   123  H   -0.039671
   124  H   -0.041249
   125  H   -0.019589
   126  H   -0.023425
   127  H   -0.013875
   128  H   -0.040631
   129  H   -0.039865
   130  H   -0.023619
   131  H   -0.023580
   132  H   -0.043758
   133  H   -0.035247
   134  H   -0.033685
   135  H   -0.014271
   136  H   -0.027791
   137  H   -0.021830
   138  H   -0.019414
   139  H   -0.012749
   140  H   -0.005295
 Sum of Mulliken charges =  -0.00000

 Dipole moment (field-independent basis, Debye):
    X=              3.5053    Y=              3.1564    Z=             -3.6313  Tot=              5.9528
 Quadrupole moment (field-independent basis, Debye-Ang):
   XX=           -373.7225   YY=           -431.1282   ZZ=           -405.8656
   XY=            -20.7975   XZ=              2.1752   YZ=              9.3427

 Normal termination of Gaussian 16 at Thu Apr 28 13:31:36 2022.
