 Gaussian 16, Revision A.03,
 Gaussian 16:  ES64L-G16RevA.03 25-Dec-2016

 -----------------------------------
 #p cam-b3lyp/Def2SVP td=(nstates=5)
 -----------------------------------

 -------------------------------------------------------
 step_1551_chromophore_3 TDDFT with cam-b3lyp functional
 -------------------------------------------------------
 Symbolic Z-matrix:
 Charge =  0 Multiplicity = 1

                         Standard orientation:
 ---------------------------------------------------------------------
 Center     Atomic      Atomic             Coordinates (Angstroms)
 Number     Number       Type             X           Y           Z
 ---------------------------------------------------------------------
      1         12           0       -5.542420    1.035147   -0.053072
      2          6           0       -4.504422   -2.317151   -0.099413
      3          6           0       -2.231354    1.952822   -0.359939
      4          6           0       -6.524841    4.197084    0.350575
      5          6           0       -8.826794   -0.050902    0.686389
      6          7           0       -3.634827   -0.029349   -0.189318
      7          6           0       -3.421768   -1.437098   -0.190724
      8          6           0       -1.874130   -1.820853   -0.380402
      9          6           0       -1.164545   -0.425613   -0.127998
     10          6           0       -2.408513    0.605769   -0.210392
     11          6           0       -0.233924   -0.298064    1.127720
     12          6           0       -1.625288   -2.519434   -1.748072
     13          6           0       -0.658089   -3.709716   -1.776239
     14          6           0        0.385706   -3.888071   -0.634113
     15          8           0        0.171510   -4.613591    0.343999
     16          8           0        1.376316   -3.026031   -0.862017
     17          7           0       -4.581207    2.831615   -0.103273
     18          6           0       -3.222968    2.982255   -0.284004
     19          6           0       -3.019192    4.397594   -0.463311
     20          6           0       -4.195802    5.098215   -0.297058
     21          6           0       -5.185371    4.033102   -0.008308
     22          6           0       -1.751404    4.940287   -0.920219
     23          6           0       -4.549044    6.596916   -0.399028
     24          8           0       -5.721674    6.976527   -0.340417
     25          6           0       -3.494233    7.687690   -0.573572
     26          7           0       -7.349680    1.880381    0.605425
     27          6           0       -7.520963    3.289078    0.507862
     28          6           0       -8.993468    3.734136    0.684767
     29          6           0       -9.768541    2.369621    0.504339
     30          6           0       -8.606320    1.354648    0.716394
     31          6           0       -9.219620    4.442113    2.082799
     32          6           0      -10.387026    2.104470   -0.852225
     33          6           0      -11.893385    1.663180   -0.856598
     34          7           0       -6.556829   -0.858522    0.174270
     35          6           0       -7.834486   -1.091554    0.519440
     36          6           0       -8.035848   -2.517107    0.476961
     37          6           0       -6.787128   -3.069561    0.225358
     38          6           0       -5.867502   -1.990283    0.028631
     39          6           0       -9.325358   -3.316375    0.643194
     40          6           0       -6.022924   -4.266935    0.096036
     41          8           0       -6.429927   -5.418460    0.148102
     42          6           0       -4.493401   -3.788461   -0.194532
     43          6           0       -3.738763   -4.501693    0.762554
     44          8           0       -3.270645   -4.113064    1.852097
     45          8           0       -3.602697   -5.774344    0.310537
     46          6           0       -3.115961   -6.777653    1.244716
     47          6           0        2.349305   -2.969417    0.196384
     48          6           0        3.525259   -2.126648   -0.268910
     49          6           0        4.657259   -2.499756   -0.870382
     50          6           0        4.966868   -3.941935   -1.315515
     51          6           0        5.536567   -1.463993   -1.450396
     52          6           0        7.030837   -1.687732   -1.417112
     53          6           0        7.811671   -0.383085   -1.156064
     54          6           0        9.300777   -0.545422   -1.701098
     55          6           0        9.435183    0.155279   -3.102615
     56          6           0       10.479057   -0.170638   -0.704575
     57          6           0       11.467724   -1.322562   -0.283083
     58          6           0       11.781305   -1.362813    1.214945
     59          6           0       13.000068   -0.610729    1.769148
     60          6           0       13.307663   -1.120269    3.235660
     61          6           0       12.848295    0.939950    1.644553
     62          6           0       13.638642    1.484842    0.484588
     63          6           0       14.793547    2.325316    0.989766
     64          6           0       14.921261    3.717432    0.365758
     65          6           0       15.897094    3.661554   -0.826326
     66          6           0       15.401292    4.859203    1.370041
     67          1           0       -1.241251    2.247100   -0.715040
     68          1           0       -6.914489    5.209208    0.478067
     69          1           0       -9.879833   -0.339754    0.685519
     70          1           0       -1.474508   -2.442396    0.419783
     71          1           0       -0.487895   -0.231278   -0.959337
     72          1           0        0.775955   -0.298748    0.717636
     73          1           0       -0.482748   -1.210514    1.669595
     74          1           0       -0.315566    0.582529    1.764005
     75          1           0       -1.400193   -1.767340   -2.504786
     76          1           0       -2.568770   -2.921198   -2.117434
     77          1           0       -0.063240   -3.566811   -2.678016
     78          1           0       -1.116019   -4.699106   -1.781937
     79          1           0       -1.164971    5.329792   -0.087872
     80          1           0       -1.887660    5.684973   -1.703709
     81          1           0       -1.107014    4.197307   -1.390188
     82          1           0       -2.574623    7.529181   -0.010286
     83          1           0       -3.845895    8.665073   -0.244067
     84          1           0       -3.110440    7.615848   -1.590797
     85          1           0       -9.224503    4.475315   -0.080786
     86          1           0      -10.577872    2.151873    1.200957
     87          1           0       -9.694696    5.422468    2.037671
     88          1           0       -8.320318    4.594252    2.679188
     89          1           0       -9.886899    3.835194    2.694647
     90          1           0      -10.008621    1.184323   -1.299398
     91          1           0      -10.240019    2.949034   -1.525575
     92          1           0      -12.426881    2.359350   -1.502492
     93          1           0      -12.420364    1.638783    0.097496
     94          1           0      -12.074488    0.693913   -1.320755
     95          1           0      -10.057491   -2.812683    1.273703
     96          1           0       -9.212335   -4.298579    1.101533
     97          1           0       -9.686304   -3.476239   -0.373536
     98          1           0       -4.304939   -4.256389   -1.160548
     99          1           0       -3.368898   -6.603667    2.290300
    100          1           0       -2.035578   -6.652420    1.173879
    101          1           0       -3.428658   -7.774936    0.935072
    102          1           0        2.810330   -3.860587    0.623305
    103          1           0        2.002783   -2.313299    0.994107
    104          1           0        3.335432   -1.083717   -0.015095
    105          1           0        4.033211   -4.504735   -1.289573
    106          1           0        5.703199   -4.399938   -0.655469
    107          1           0        5.329808   -3.929931   -2.342740
    108          1           0        5.180734   -0.471431   -1.173028
    109          1           0        5.441721   -1.435710   -2.535895
    110          1           0        7.495090   -2.230599   -2.240675
    111          1           0        7.359689   -2.386952   -0.647535
    112          1           0        7.996313   -0.325695   -0.083594
    113          1           0        7.316035    0.517607   -1.518367
    114          1           0        9.475423   -1.560231   -2.058062
    115          1           0        9.528809   -0.631326   -3.851938
    116          1           0       10.363619    0.674180   -3.341854
    117          1           0        8.538389    0.656822   -3.465378
    118          1           0       10.106131    0.435549    0.120658
    119          1           0       11.164170    0.496353   -1.228223
    120          1           0       12.383183   -1.179589   -0.857363
    121          1           0       10.996736   -2.253565   -0.597304
    122          1           0       11.813046   -2.408410    1.520854
    123          1           0       10.894578   -0.939136    1.688241
    124          1           0       13.814317   -0.971522    1.141044
    125          1           0       14.228745   -1.693643    3.338286
    126          1           0       12.543320   -1.854871    3.486434
    127          1           0       13.369751   -0.273112    3.919069
    128          1           0       13.157141    1.423129    2.570690
    129          1           0       11.813030    1.269131    1.552378
    130          1           0       13.073427    2.139966   -0.178715
    131          1           0       14.093462    0.656615   -0.057922
    132          1           0       15.680573    1.758497    0.705265
    133          1           0       14.860807    2.444855    2.070523
    134          1           0       13.969306    3.984309   -0.093459
    135          1           0       16.697009    4.402077   -0.802734
    136          1           0       15.316823    3.868677   -1.726147
    137          1           0       16.285029    2.661302   -1.019812
    138          1           0       16.102985    5.490917    0.824630
    139          1           0       15.935667    4.295756    2.134736
    140          1           0       14.603984    5.473683    1.788769
 ---------------------------------------------------------------------

 SCF Done:  E(RCAM-B3LYP) =  -3007.13808728     A.U. after   17 cycles

 Excitation energies and oscillator strengths:

 Excited State   1:      Singlet-A      1.6620 eV  745.99 nm  f=0.3872  <S**2>=0.000
     245 -> 248        0.16652
     246 -> 247        0.68914
     245 <- 248        0.10628
 This state for optimization and/or second-order correction.
 Total Energy, E(TD-HF/TD-DFT) =  -3007.07700991
 Copying the excited state density for this state as the 1-particle RhoCI density.

 Excited State   2:      Singlet-A      2.2168 eV  559.31 nm  f=0.1386  <S**2>=0.000
     245 -> 247        0.64800
     246 -> 248       -0.26831

 Excited State   3:      Singlet-A      3.3539 eV  369.67 nm  f=0.0024  <S**2>=0.000
     243 -> 247        0.15751
     244 -> 247        0.65541
     246 -> 248        0.14424

 Excited State   4:      Singlet-A      3.4276 eV  361.72 nm  f=0.0095  <S**2>=0.000
     242 -> 247        0.13492
     243 -> 247        0.56174
     243 -> 249       -0.25313
     243 -> 250       -0.19291
     244 -> 247       -0.16274

 Excited State   5:      Singlet-A      3.5423 eV  350.01 nm  f=0.1438  <S**2>=0.000
     242 -> 247        0.51600
     243 -> 247       -0.15858
     245 -> 247        0.12465
     246 -> 248        0.40957

 The electronic state is 1-A.
 Alpha  occ. eigenvalues --  -46.88271 -19.27171 -19.23036 -19.20257 -19.19179
 Alpha  occ. eigenvalues --  -19.18744 -19.17562 -14.42578 -14.41994 -14.39703
 Alpha  occ. eigenvalues --  -14.38575 -10.39692 -10.37346 -10.35999 -10.34729
 Alpha  occ. eigenvalues --  -10.32077 -10.31647 -10.31068 -10.30894 -10.30403
 Alpha  occ. eigenvalues --  -10.30072 -10.30061 -10.29570 -10.29535 -10.28493
 Alpha  occ. eigenvalues --  -10.28430 -10.28425 -10.28172 -10.27998 -10.27597
 Alpha  occ. eigenvalues --  -10.27571 -10.27568 -10.27511 -10.27490 -10.27301
 Alpha  occ. eigenvalues --  -10.27050 -10.27005 -10.26937 -10.26896 -10.26579
 Alpha  occ. eigenvalues --  -10.26534 -10.26478 -10.26465 -10.26256 -10.26232
 Alpha  occ. eigenvalues --  -10.25836 -10.25831 -10.25827 -10.25711 -10.25697
 Alpha  occ. eigenvalues --  -10.25674 -10.25628 -10.25560 -10.25509 -10.25324
 Alpha  occ. eigenvalues --  -10.25161 -10.24983 -10.24722 -10.24561 -10.24539
 Alpha  occ. eigenvalues --  -10.24519 -10.24519 -10.24338 -10.24214 -10.24010
 Alpha  occ. eigenvalues --  -10.23880  -3.16824  -1.91730  -1.91281  -1.91130
 Alpha  occ. eigenvalues --   -1.18581  -1.14734  -1.09805  -1.09354  -1.08457
 Alpha  occ. eigenvalues --   -1.04898  -1.04147  -1.03677  -1.01941  -1.01005
 Alpha  occ. eigenvalues --   -0.92873  -0.91410  -0.90159  -0.89207  -0.89108
 Alpha  occ. eigenvalues --   -0.88489  -0.88416  -0.87478  -0.87430  -0.86816
 Alpha  occ. eigenvalues --   -0.85723  -0.85656  -0.84422  -0.83792  -0.83288
 Alpha  occ. eigenvalues --   -0.82761  -0.81800  -0.81519  -0.80684  -0.80371
 Alpha  occ. eigenvalues --   -0.80046  -0.78313  -0.77791  -0.77015  -0.76556
 Alpha  occ. eigenvalues --   -0.75305  -0.75149  -0.75057  -0.74575  -0.74538
 Alpha  occ. eigenvalues --   -0.73744  -0.72839  -0.71184  -0.70646  -0.68859
 Alpha  occ. eigenvalues --   -0.68400  -0.68183  -0.67225  -0.66857  -0.65876
 Alpha  occ. eigenvalues --   -0.65502  -0.65250  -0.64795  -0.64312  -0.64105
 Alpha  occ. eigenvalues --   -0.63784  -0.63562  -0.63125  -0.60912  -0.60622
 Alpha  occ. eigenvalues --   -0.60173  -0.59231  -0.59100  -0.58619  -0.57785
 Alpha  occ. eigenvalues --   -0.57669  -0.57371  -0.56549  -0.55775  -0.55435
 Alpha  occ. eigenvalues --   -0.55154  -0.54929  -0.54251  -0.53662  -0.53544
 Alpha  occ. eigenvalues --   -0.53308  -0.53046  -0.52876  -0.52826  -0.52744
 Alpha  occ. eigenvalues --   -0.52332  -0.52267  -0.52166  -0.52090  -0.51722
 Alpha  occ. eigenvalues --   -0.51534  -0.51277  -0.50943  -0.50788  -0.50463
 Alpha  occ. eigenvalues --   -0.50365  -0.50321  -0.50011  -0.49780  -0.49642
 Alpha  occ. eigenvalues --   -0.49521  -0.49404  -0.48885  -0.48763  -0.48659
 Alpha  occ. eigenvalues --   -0.48530  -0.48082  -0.48009  -0.47637  -0.47581
 Alpha  occ. eigenvalues --   -0.47372  -0.47308  -0.47228  -0.46863  -0.46608
 Alpha  occ. eigenvalues --   -0.46473  -0.46222  -0.46185  -0.45523  -0.45268
 Alpha  occ. eigenvalues --   -0.45250  -0.45085  -0.45083  -0.44837  -0.44634
 Alpha  occ. eigenvalues --   -0.44400  -0.44260  -0.44138  -0.44022  -0.43810
 Alpha  occ. eigenvalues --   -0.43634  -0.43570  -0.43416  -0.43093  -0.42913
 Alpha  occ. eigenvalues --   -0.42716  -0.42641  -0.42137  -0.41958  -0.41763
 Alpha  occ. eigenvalues --   -0.41659  -0.41553  -0.41069  -0.40805  -0.40774
 Alpha  occ. eigenvalues --   -0.40717  -0.40625  -0.40344  -0.40315  -0.40095
 Alpha  occ. eigenvalues --   -0.39931  -0.39755  -0.39466  -0.39329  -0.38498
 Alpha  occ. eigenvalues --   -0.38328  -0.37894  -0.37654  -0.37523  -0.37187
 Alpha  occ. eigenvalues --   -0.37120  -0.36785  -0.36703  -0.36505  -0.36355
 Alpha  occ. eigenvalues --   -0.36223  -0.35328  -0.34522  -0.34399  -0.34179
 Alpha  occ. eigenvalues --   -0.33993  -0.32730  -0.32260  -0.31688  -0.31272
 Alpha  occ. eigenvalues --   -0.30614  -0.30391  -0.30027  -0.29487  -0.23991
 Alpha  occ. eigenvalues --   -0.21022
 Alpha virt. eigenvalues --   -0.08771  -0.01225   0.00546   0.02217   0.02960
 Alpha virt. eigenvalues --    0.04092   0.04645   0.05548   0.06244   0.07008
 Alpha virt. eigenvalues --    0.08240   0.08809   0.08860   0.09219   0.09447

 Mulliken charges:
               1
     1  Mg   0.826193
     2  C    0.113281
     3  C   -0.098292
     4  C   -0.050573
     5  C   -0.084881
     6  N   -0.324239
     7  C   -0.021629
     8  C   -0.054041
     9  C   -0.072357
    10  C    0.083293
    11  C    0.059189
    12  C    0.096900
    13  C    0.084487
    14  C    0.123310
    15  O   -0.240783
    16  O   -0.282262
    17  N   -0.384703
    18  C    0.155591
    19  C   -0.136878
    20  C   -0.014740
    21  C    0.123730
    22  C    0.097736
    23  C    0.024951
    24  O   -0.213715
    25  C    0.045686
    26  N   -0.323933
    27  C    0.042420
    28  C   -0.022146
    29  C   -0.001618
    30  C    0.038818
    31  C    0.054359
    32  C    0.028202
    33  C   -0.032065
    34  N   -0.292968
    35  C    0.110799
    36  C   -0.185693
    37  C    0.071504
    38  C    0.038649
    39  C    0.113029
    40  C   -0.010027
    41  O   -0.158702
    42  C   -0.073443
    43  C    0.191957
    44  O   -0.250661
    45  O   -0.327846
    46  C    0.186778
    47  C    0.281644
    48  C   -0.210111
    49  C   -0.095097
    50  C    0.079016
    51  C    0.096835
    52  C   -0.025761
    53  C    0.077509
    54  C   -0.138322
    55  C    0.031054
    56  C    0.025864
    57  C    0.033500
    58  C    0.025177
    59  C   -0.119147
    60  C    0.055598
    61  C    0.068487
    62  C    0.031913
    63  C    0.045389
    64  C   -0.184595
    65  C    0.037858
    66  C    0.050930
    67  H   -0.022519
    68  H   -0.006971
    69  H   -0.025426
    70  H    0.049783
    71  H    0.001274
    72  H    0.014387
    73  H    0.039733
    74  H    0.027207
    75  H    0.003173
    76  H    0.012408
    77  H    0.014239
    78  H    0.031706
    79  H    0.031188
    80  H    0.015918
    81  H    0.005966
    82  H    0.014946
    83  H    0.040147
    84  H    0.037505
    85  H    0.020610
    86  H    0.003522
    87  H    0.019257
    88  H    0.026336
    89  H    0.009463
    90  H    0.026318
    91  H    0.016114
    92  H    0.011693
    93  H    0.015713
    94  H    0.015758
    95  H    0.013413
    96  H    0.033737
    97  H    0.031558
    98  H    0.053946
    99  H    0.037187
   100  H    0.032887
   101  H    0.037220
   102  H    0.040562
   103  H    0.013808
   104  H   -0.006381
   105  H    0.022334
   106  H    0.034042
   107  H    0.020731
   108  H   -0.002644
   109  H    0.013896
   110  H   -0.005352
   111  H   -0.012333
   112  H   -0.002111
   113  H    0.011731
   114  H    0.001890
   115  H   -0.016613
   116  H    0.006993
   117  H    0.002965
   118  H    0.002144
   119  H   -0.011035
   120  H   -0.004993
   121  H   -0.005051
   122  H   -0.009265
   123  H   -0.012194
   124  H   -0.009893
   125  H    0.005245
   126  H    0.001423
   127  H    0.009271
   128  H   -0.010734
   129  H   -0.010621
   130  H    0.003142
   131  H    0.002817
   132  H   -0.013833
   133  H   -0.007532
   134  H   -0.002283
   135  H    0.009679
   136  H   -0.003038
   137  H    0.001844
   138  H    0.004051
   139  H    0.009206
   140  H    0.018329
 Sum of Mulliken charges =  -0.00000

 Dipole moment (field-independent basis, Debye):
    X=              3.9746    Y=              3.6203    Z=             -3.8707  Tot=              6.6247
 Quadrupole moment (field-independent basis, Debye-Ang):
   XX=           -373.8290   YY=           -426.5666   ZZ=           -405.6986
   XY=            -22.1307   XZ=              2.0187   YZ=              9.3517

 Normal termination of Gaussian 16 at Thu Apr 28 12:33:00 2022.
