 Gaussian 16, Revision A.03,
 Gaussian 16:  ES64L-G16RevA.03 25-Dec-2016

 ---------------------------------
 #p PBE1PBE/Def2SVP td=(nstates=5)
 ---------------------------------

 -----------------------------------------------------
 step_1551_chromophore_3 TDDFT with PBE1PBE functional
 -----------------------------------------------------
 Symbolic Z-matrix:
 Charge =  0 Multiplicity = 1

                         Standard orientation:
 ---------------------------------------------------------------------
 Center     Atomic      Atomic             Coordinates (Angstroms)
 Number     Number       Type             X           Y           Z
 ---------------------------------------------------------------------
      1         12           0       -5.542420    1.035147   -0.053072
      2          6           0       -4.504422   -2.317151   -0.099413
      3          6           0       -2.231354    1.952822   -0.359939
      4          6           0       -6.524841    4.197084    0.350575
      5          6           0       -8.826794   -0.050902    0.686389
      6          7           0       -3.634827   -0.029349   -0.189318
      7          6           0       -3.421768   -1.437098   -0.190724
      8          6           0       -1.874130   -1.820853   -0.380402
      9          6           0       -1.164545   -0.425613   -0.127998
     10          6           0       -2.408513    0.605769   -0.210392
     11          6           0       -0.233924   -0.298064    1.127720
     12          6           0       -1.625288   -2.519434   -1.748072
     13          6           0       -0.658089   -3.709716   -1.776239
     14          6           0        0.385706   -3.888071   -0.634113
     15          8           0        0.171510   -4.613591    0.343999
     16          8           0        1.376316   -3.026031   -0.862017
     17          7           0       -4.581207    2.831615   -0.103273
     18          6           0       -3.222968    2.982255   -0.284004
     19          6           0       -3.019192    4.397594   -0.463311
     20          6           0       -4.195802    5.098215   -0.297058
     21          6           0       -5.185371    4.033102   -0.008308
     22          6           0       -1.751404    4.940287   -0.920219
     23          6           0       -4.549044    6.596916   -0.399028
     24          8           0       -5.721674    6.976527   -0.340417
     25          6           0       -3.494233    7.687690   -0.573572
     26          7           0       -7.349680    1.880381    0.605425
     27          6           0       -7.520963    3.289078    0.507862
     28          6           0       -8.993468    3.734136    0.684767
     29          6           0       -9.768541    2.369621    0.504339
     30          6           0       -8.606320    1.354648    0.716394
     31          6           0       -9.219620    4.442113    2.082799
     32          6           0      -10.387026    2.104470   -0.852225
     33          6           0      -11.893385    1.663180   -0.856598
     34          7           0       -6.556829   -0.858522    0.174270
     35          6           0       -7.834486   -1.091554    0.519440
     36          6           0       -8.035848   -2.517107    0.476961
     37          6           0       -6.787128   -3.069561    0.225358
     38          6           0       -5.867502   -1.990283    0.028631
     39          6           0       -9.325358   -3.316375    0.643194
     40          6           0       -6.022924   -4.266935    0.096036
     41          8           0       -6.429927   -5.418460    0.148102
     42          6           0       -4.493401   -3.788461   -0.194532
     43          6           0       -3.738763   -4.501693    0.762554
     44          8           0       -3.270645   -4.113064    1.852097
     45          8           0       -3.602697   -5.774344    0.310537
     46          6           0       -3.115961   -6.777653    1.244716
     47          6           0        2.349305   -2.969417    0.196384
     48          6           0        3.525259   -2.126648   -0.268910
     49          6           0        4.657259   -2.499756   -0.870382
     50          6           0        4.966868   -3.941935   -1.315515
     51          6           0        5.536567   -1.463993   -1.450396
     52          6           0        7.030837   -1.687732   -1.417112
     53          6           0        7.811671   -0.383085   -1.156064
     54          6           0        9.300777   -0.545422   -1.701098
     55          6           0        9.435183    0.155279   -3.102615
     56          6           0       10.479057   -0.170638   -0.704575
     57          6           0       11.467724   -1.322562   -0.283083
     58          6           0       11.781305   -1.362813    1.214945
     59          6           0       13.000068   -0.610729    1.769148
     60          6           0       13.307663   -1.120269    3.235660
     61          6           0       12.848295    0.939950    1.644553
     62          6           0       13.638642    1.484842    0.484588
     63          6           0       14.793547    2.325316    0.989766
     64          6           0       14.921261    3.717432    0.365758
     65          6           0       15.897094    3.661554   -0.826326
     66          6           0       15.401292    4.859203    1.370041
     67          1           0       -1.241251    2.247100   -0.715040
     68          1           0       -6.914489    5.209208    0.478067
     69          1           0       -9.879833   -0.339754    0.685519
     70          1           0       -1.474508   -2.442396    0.419783
     71          1           0       -0.487895   -0.231278   -0.959337
     72          1           0        0.775955   -0.298748    0.717636
     73          1           0       -0.482748   -1.210514    1.669595
     74          1           0       -0.315566    0.582529    1.764005
     75          1           0       -1.400193   -1.767340   -2.504786
     76          1           0       -2.568770   -2.921198   -2.117434
     77          1           0       -0.063240   -3.566811   -2.678016
     78          1           0       -1.116019   -4.699106   -1.781937
     79          1           0       -1.164971    5.329792   -0.087872
     80          1           0       -1.887660    5.684973   -1.703709
     81          1           0       -1.107014    4.197307   -1.390188
     82          1           0       -2.574623    7.529181   -0.010286
     83          1           0       -3.845895    8.665073   -0.244067
     84          1           0       -3.110440    7.615848   -1.590797
     85          1           0       -9.224503    4.475315   -0.080786
     86          1           0      -10.577872    2.151873    1.200957
     87          1           0       -9.694696    5.422468    2.037671
     88          1           0       -8.320318    4.594252    2.679188
     89          1           0       -9.886899    3.835194    2.694647
     90          1           0      -10.008621    1.184323   -1.299398
     91          1           0      -10.240019    2.949034   -1.525575
     92          1           0      -12.426881    2.359350   -1.502492
     93          1           0      -12.420364    1.638783    0.097496
     94          1           0      -12.074488    0.693913   -1.320755
     95          1           0      -10.057491   -2.812683    1.273703
     96          1           0       -9.212335   -4.298579    1.101533
     97          1           0       -9.686304   -3.476239   -0.373536
     98          1           0       -4.304939   -4.256389   -1.160548
     99          1           0       -3.368898   -6.603667    2.290300
    100          1           0       -2.035578   -6.652420    1.173879
    101          1           0       -3.428658   -7.774936    0.935072
    102          1           0        2.810330   -3.860587    0.623305
    103          1           0        2.002783   -2.313299    0.994107
    104          1           0        3.335432   -1.083717   -0.015095
    105          1           0        4.033211   -4.504735   -1.289573
    106          1           0        5.703199   -4.399938   -0.655469
    107          1           0        5.329808   -3.929931   -2.342740
    108          1           0        5.180734   -0.471431   -1.173028
    109          1           0        5.441721   -1.435710   -2.535895
    110          1           0        7.495090   -2.230599   -2.240675
    111          1           0        7.359689   -2.386952   -0.647535
    112          1           0        7.996313   -0.325695   -0.083594
    113          1           0        7.316035    0.517607   -1.518367
    114          1           0        9.475423   -1.560231   -2.058062
    115          1           0        9.528809   -0.631326   -3.851938
    116          1           0       10.363619    0.674180   -3.341854
    117          1           0        8.538389    0.656822   -3.465378
    118          1           0       10.106131    0.435549    0.120658
    119          1           0       11.164170    0.496353   -1.228223
    120          1           0       12.383183   -1.179589   -0.857363
    121          1           0       10.996736   -2.253565   -0.597304
    122          1           0       11.813046   -2.408410    1.520854
    123          1           0       10.894578   -0.939136    1.688241
    124          1           0       13.814317   -0.971522    1.141044
    125          1           0       14.228745   -1.693643    3.338286
    126          1           0       12.543320   -1.854871    3.486434
    127          1           0       13.369751   -0.273112    3.919069
    128          1           0       13.157141    1.423129    2.570690
    129          1           0       11.813030    1.269131    1.552378
    130          1           0       13.073427    2.139966   -0.178715
    131          1           0       14.093462    0.656615   -0.057922
    132          1           0       15.680573    1.758497    0.705265
    133          1           0       14.860807    2.444855    2.070523
    134          1           0       13.969306    3.984309   -0.093459
    135          1           0       16.697009    4.402077   -0.802734
    136          1           0       15.316823    3.868677   -1.726147
    137          1           0       16.285029    2.661302   -1.019812
    138          1           0       16.102985    5.490917    0.824630
    139          1           0       15.935667    4.295756    2.134736
    140          1           0       14.603984    5.473683    1.788769
 ---------------------------------------------------------------------

 SCF Done:  E(RPBE1PBE) =  -3005.32664907     A.U. after   15 cycles

 Excitation energies and oscillator strengths:

 Excited State   1:      Singlet-A      1.8300 eV  677.53 nm  f=0.3761  <S**2>=0.000
     245 -> 248        0.15832
     246 -> 247        0.69680
     246 <- 247       -0.11566
 This state for optimization and/or second-order correction.
 Total Energy, E(TD-HF/TD-DFT) =  -3005.25939957
 Copying the excited state density for this state as the 1-particle RhoCI density.

 Excited State   2:      Singlet-A      2.2298 eV  556.03 nm  f=0.1311  <S**2>=0.000
     245 -> 247        0.65713
     246 -> 248       -0.24166

 Excited State   3:      Singlet-A      2.9011 eV  427.37 nm  f=0.0002  <S**2>=0.000
     243 -> 247        0.19123
     244 -> 247        0.65368
     244 -> 249       -0.13280

 Excited State   4:      Singlet-A      3.0252 eV  409.84 nm  f=0.0014  <S**2>=0.000
     243 -> 247        0.66228
     244 -> 247       -0.19746

 Excited State   5:      Singlet-A      3.1831 eV  389.51 nm  f=0.0003  <S**2>=0.000
     240 -> 247        0.29549
     240 -> 249        0.10096
     241 -> 247        0.25061
     242 -> 247        0.53614
     246 -> 248       -0.12299

 The electronic state is 1-A.
 Alpha  occ. eigenvalues --  -46.91682 -19.27800 -19.23651 -19.20547 -19.19362
 Alpha  occ. eigenvalues --  -19.19036 -19.17750 -14.42115 -14.41546 -14.39332
 Alpha  occ. eigenvalues --  -14.38243 -10.36738 -10.34248 -10.33115 -10.31921
 Alpha  occ. eigenvalues --  -10.29471 -10.29445 -10.28776 -10.28709 -10.28135
 Alpha  occ. eigenvalues --  -10.27731 -10.27703 -10.27311 -10.26770 -10.26313
 Alpha  occ. eigenvalues --  -10.26283 -10.26226 -10.25918 -10.25862 -10.25271
 Alpha  occ. eigenvalues --  -10.25250 -10.25213 -10.25174 -10.25162 -10.24908
 Alpha  occ. eigenvalues --  -10.24648 -10.24607 -10.24567 -10.24535 -10.24238
 Alpha  occ. eigenvalues --  -10.23957 -10.23938 -10.23837 -10.23774 -10.23689
 Alpha  occ. eigenvalues --  -10.23554 -10.23384 -10.23339 -10.23306 -10.23248
 Alpha  occ. eigenvalues --  -10.23198 -10.23179 -10.23135 -10.23047 -10.22960
 Alpha  occ. eigenvalues --  -10.22701 -10.22582 -10.22136 -10.22095 -10.22083
 Alpha  occ. eigenvalues --  -10.22003 -10.21975 -10.21950 -10.21869 -10.21442
 Alpha  occ. eigenvalues --  -10.21413  -3.13815  -1.86662  -1.86192  -1.86043
 Alpha  occ. eigenvalues --   -1.13400  -1.09452  -1.04491  -1.04147  -1.03297
 Alpha  occ. eigenvalues --   -0.99630  -0.98887  -0.98332  -0.96539  -0.95580
 Alpha  occ. eigenvalues --   -0.87244  -0.85565  -0.84249  -0.83452  -0.83323
 Alpha  occ. eigenvalues --   -0.82733  -0.82610  -0.81731  -0.81601  -0.81153
 Alpha  occ. eigenvalues --   -0.80055  -0.79909  -0.78627  -0.78108  -0.77504
 Alpha  occ. eigenvalues --   -0.77009  -0.75961  -0.75668  -0.75065  -0.74627
 Alpha  occ. eigenvalues --   -0.74244  -0.72597  -0.72032  -0.71330  -0.70718
 Alpha  occ. eigenvalues --   -0.69677  -0.69372  -0.69245  -0.68733  -0.68699
 Alpha  occ. eigenvalues --   -0.68060  -0.67294  -0.65576  -0.64979  -0.63261
 Alpha  occ. eigenvalues --   -0.62856  -0.62501  -0.61636  -0.61145  -0.60161
 Alpha  occ. eigenvalues --   -0.59924  -0.59651  -0.59306  -0.58730  -0.58692
 Alpha  occ. eigenvalues --   -0.57994  -0.57685  -0.57283  -0.55452  -0.54971
 Alpha  occ. eigenvalues --   -0.54689  -0.53830  -0.53630  -0.53215  -0.52212
 Alpha  occ. eigenvalues --   -0.52112  -0.51906  -0.51142  -0.50341  -0.49982
 Alpha  occ. eigenvalues --   -0.49677  -0.49527  -0.48684  -0.48157  -0.48087
 Alpha  occ. eigenvalues --   -0.47760  -0.47526  -0.47490  -0.47299  -0.47220
 Alpha  occ. eigenvalues --   -0.46927  -0.46840  -0.46698  -0.46594  -0.46299
 Alpha  occ. eigenvalues --   -0.46132  -0.45803  -0.45475  -0.45280  -0.45000
 Alpha  occ. eigenvalues --   -0.44972  -0.44860  -0.44568  -0.44424  -0.44232
 Alpha  occ. eigenvalues --   -0.44127  -0.44019  -0.43471  -0.43308  -0.43254
 Alpha  occ. eigenvalues --   -0.43118  -0.42668  -0.42595  -0.42259  -0.42202
 Alpha  occ. eigenvalues --   -0.42024  -0.41989  -0.41898  -0.41520  -0.41269
 Alpha  occ. eigenvalues --   -0.41148  -0.40939  -0.40826  -0.40247  -0.40051
 Alpha  occ. eigenvalues --   -0.39875  -0.39847  -0.39794  -0.39433  -0.39381
 Alpha  occ. eigenvalues --   -0.39229  -0.38949  -0.38873  -0.38809  -0.38511
 Alpha  occ. eigenvalues --   -0.38463  -0.38285  -0.38196  -0.37870  -0.37770
 Alpha  occ. eigenvalues --   -0.37491  -0.37411  -0.36930  -0.36753  -0.36551
 Alpha  occ. eigenvalues --   -0.36438  -0.36359  -0.35959  -0.35692  -0.35626
 Alpha  occ. eigenvalues --   -0.35458  -0.35426  -0.35243  -0.35096  -0.35026
 Alpha  occ. eigenvalues --   -0.34877  -0.34633  -0.34311  -0.34243  -0.33356
 Alpha  occ. eigenvalues --   -0.33250  -0.32679  -0.32596  -0.32350  -0.32209
 Alpha  occ. eigenvalues --   -0.31881  -0.31776  -0.31547  -0.31468  -0.31362
 Alpha  occ. eigenvalues --   -0.31113  -0.30217  -0.29447  -0.29287  -0.29197
 Alpha  occ. eigenvalues --   -0.28967  -0.28296  -0.27256  -0.26987  -0.26154
 Alpha  occ. eigenvalues --   -0.25916  -0.25868  -0.25170  -0.25062  -0.20903
 Alpha  occ. eigenvalues --   -0.18668
 Alpha virt. eigenvalues --   -0.11204  -0.04834  -0.03672  -0.02160  -0.00376
 Alpha virt. eigenvalues --    0.00049   0.00155   0.01306   0.01805   0.03404
 Alpha virt. eigenvalues --    0.04555   0.04681   0.05428   0.05541   0.05998

 Mulliken charges:
               1
     1  Mg   0.976009
     2  C    0.086555
     3  C   -0.088200
     4  C   -0.040428
     5  C   -0.082866
     6  N   -0.423045
     7  C    0.054663
     8  C   -0.120203
     9  C   -0.134051
    10  C    0.114354
    11  C   -0.002640
    12  C    0.046948
    13  C    0.011518
    14  C    0.183949
    15  O   -0.272327
    16  O   -0.311291
    17  N   -0.506575
    18  C    0.183003
    19  C   -0.181000
    20  C   -0.056626
    21  C    0.155785
    22  C    0.040261
    23  C    0.073553
    24  O   -0.249722
    25  C   -0.023185
    26  N   -0.419816
    27  C    0.065141
    28  C   -0.098047
    29  C   -0.079011
    30  C    0.080227
    31  C    0.001568
    32  C   -0.026951
    33  C   -0.101129
    34  N   -0.423530
    35  C    0.139660
    36  C   -0.209810
    37  C    0.022477
    38  C    0.093364
    39  C    0.061621
    40  C    0.087856
    41  O   -0.202574
    42  C   -0.184601
    43  C    0.285682
    44  O   -0.288024
    45  O   -0.360851
    46  C    0.132004
    47  C    0.231051
    48  C   -0.220385
    49  C   -0.131441
    50  C    0.014580
    51  C    0.028044
    52  C   -0.082233
    53  C    0.017253
    54  C   -0.218755
    55  C   -0.023213
    56  C   -0.030715
    57  C   -0.026032
    58  C   -0.033744
    59  C   -0.206434
    60  C   -0.002897
    61  C    0.017102
    62  C   -0.034713
    63  C   -0.005449
    64  C   -0.276660
    65  C   -0.018748
    66  C   -0.012446
    67  H    0.008663
    68  H    0.024863
    69  H    0.007782
    70  H    0.090006
    71  H    0.037884
    72  H    0.043761
    73  H    0.065940
    74  H    0.054513
    75  H    0.034300
    76  H    0.047154
    77  H    0.047484
    78  H    0.062610
    79  H    0.059082
    80  H    0.044149
    81  H    0.033270
    82  H    0.041756
    83  H    0.066219
    84  H    0.063726
    85  H    0.055989
    86  H    0.039607
    87  H    0.046346
    88  H    0.053256
    89  H    0.037182
    90  H    0.060559
    91  H    0.048106
    92  H    0.040101
    93  H    0.041780
    94  H    0.042602
    95  H    0.039943
    96  H    0.060489
    97  H    0.060059
    98  H    0.090434
    99  H    0.058457
   100  H    0.056115
   101  H    0.058879
   102  H    0.066755
   103  H    0.042915
   104  H    0.022707
   105  H    0.051011
   106  H    0.061222
   107  H    0.047909
   108  H    0.027880
   109  H    0.049333
   110  H    0.025466
   111  H    0.021633
   112  H    0.033530
   113  H    0.041842
   114  H    0.038779
   115  H    0.010889
   116  H    0.033303
   117  H    0.029782
   118  H    0.031695
   119  H    0.024716
   120  H    0.027225
   121  H    0.027705
   122  H    0.023561
   123  H    0.022924
   124  H    0.028624
   125  H    0.032803
   126  H    0.028293
   127  H    0.035992
   128  H    0.021078
   129  H    0.022181
   130  H    0.034481
   131  H    0.034542
   132  H    0.019860
   133  H    0.023346
   134  H    0.035535
   135  H    0.035834
   136  H    0.024747
   137  H    0.028600
   138  H    0.031648
   139  H    0.036901
   140  H    0.045828
 Sum of Mulliken charges =  -0.00000

 Dipole moment (field-independent basis, Debye):
    X=              3.8584    Y=              3.5442    Z=             -3.9157  Tot=              6.5407
 Quadrupole moment (field-independent basis, Debye-Ang):
   XX=           -366.4156   YY=           -424.1111   ZZ=           -403.2294
   XY=            -22.2907   XZ=              1.6070   YZ=              9.5609

 Normal termination of Gaussian 16 at Thu Apr 28 12:52:09 2022.
