 Gaussian 16, Revision A.03,
 Gaussian 16:  ES64L-G16RevA.03 25-Dec-2016

 --------------------------------
 #p wB97XD/Def2SVP td=(nstates=5)
 --------------------------------

 ----------------------------------------------------
 step_1551_chromophore_3 TDDFT with wB97XD functional
 ----------------------------------------------------
 Symbolic Z-matrix:
 Charge =  0 Multiplicity = 1

                         Standard orientation:
 ---------------------------------------------------------------------
 Center     Atomic      Atomic             Coordinates (Angstroms)
 Number     Number       Type             X           Y           Z
 ---------------------------------------------------------------------
      1         12           0       -5.542420    1.035147   -0.053072
      2          6           0       -4.504422   -2.317151   -0.099413
      3          6           0       -2.231354    1.952822   -0.359939
      4          6           0       -6.524841    4.197084    0.350575
      5          6           0       -8.826794   -0.050902    0.686389
      6          7           0       -3.634827   -0.029349   -0.189318
      7          6           0       -3.421768   -1.437098   -0.190724
      8          6           0       -1.874130   -1.820853   -0.380402
      9          6           0       -1.164545   -0.425613   -0.127998
     10          6           0       -2.408513    0.605769   -0.210392
     11          6           0       -0.233924   -0.298064    1.127720
     12          6           0       -1.625288   -2.519434   -1.748072
     13          6           0       -0.658089   -3.709716   -1.776239
     14          6           0        0.385706   -3.888071   -0.634113
     15          8           0        0.171510   -4.613591    0.343999
     16          8           0        1.376316   -3.026031   -0.862017
     17          7           0       -4.581207    2.831615   -0.103273
     18          6           0       -3.222968    2.982255   -0.284004
     19          6           0       -3.019192    4.397594   -0.463311
     20          6           0       -4.195802    5.098215   -0.297058
     21          6           0       -5.185371    4.033102   -0.008308
     22          6           0       -1.751404    4.940287   -0.920219
     23          6           0       -4.549044    6.596916   -0.399028
     24          8           0       -5.721674    6.976527   -0.340417
     25          6           0       -3.494233    7.687690   -0.573572
     26          7           0       -7.349680    1.880381    0.605425
     27          6           0       -7.520963    3.289078    0.507862
     28          6           0       -8.993468    3.734136    0.684767
     29          6           0       -9.768541    2.369621    0.504339
     30          6           0       -8.606320    1.354648    0.716394
     31          6           0       -9.219620    4.442113    2.082799
     32          6           0      -10.387026    2.104470   -0.852225
     33          6           0      -11.893385    1.663180   -0.856598
     34          7           0       -6.556829   -0.858522    0.174270
     35          6           0       -7.834486   -1.091554    0.519440
     36          6           0       -8.035848   -2.517107    0.476961
     37          6           0       -6.787128   -3.069561    0.225358
     38          6           0       -5.867502   -1.990283    0.028631
     39          6           0       -9.325358   -3.316375    0.643194
     40          6           0       -6.022924   -4.266935    0.096036
     41          8           0       -6.429927   -5.418460    0.148102
     42          6           0       -4.493401   -3.788461   -0.194532
     43          6           0       -3.738763   -4.501693    0.762554
     44          8           0       -3.270645   -4.113064    1.852097
     45          8           0       -3.602697   -5.774344    0.310537
     46          6           0       -3.115961   -6.777653    1.244716
     47          6           0        2.349305   -2.969417    0.196384
     48          6           0        3.525259   -2.126648   -0.268910
     49          6           0        4.657259   -2.499756   -0.870382
     50          6           0        4.966868   -3.941935   -1.315515
     51          6           0        5.536567   -1.463993   -1.450396
     52          6           0        7.030837   -1.687732   -1.417112
     53          6           0        7.811671   -0.383085   -1.156064
     54          6           0        9.300777   -0.545422   -1.701098
     55          6           0        9.435183    0.155279   -3.102615
     56          6           0       10.479057   -0.170638   -0.704575
     57          6           0       11.467724   -1.322562   -0.283083
     58          6           0       11.781305   -1.362813    1.214945
     59          6           0       13.000068   -0.610729    1.769148
     60          6           0       13.307663   -1.120269    3.235660
     61          6           0       12.848295    0.939950    1.644553
     62          6           0       13.638642    1.484842    0.484588
     63          6           0       14.793547    2.325316    0.989766
     64          6           0       14.921261    3.717432    0.365758
     65          6           0       15.897094    3.661554   -0.826326
     66          6           0       15.401292    4.859203    1.370041
     67          1           0       -1.241251    2.247100   -0.715040
     68          1           0       -6.914489    5.209208    0.478067
     69          1           0       -9.879833   -0.339754    0.685519
     70          1           0       -1.474508   -2.442396    0.419783
     71          1           0       -0.487895   -0.231278   -0.959337
     72          1           0        0.775955   -0.298748    0.717636
     73          1           0       -0.482748   -1.210514    1.669595
     74          1           0       -0.315566    0.582529    1.764005
     75          1           0       -1.400193   -1.767340   -2.504786
     76          1           0       -2.568770   -2.921198   -2.117434
     77          1           0       -0.063240   -3.566811   -2.678016
     78          1           0       -1.116019   -4.699106   -1.781937
     79          1           0       -1.164971    5.329792   -0.087872
     80          1           0       -1.887660    5.684973   -1.703709
     81          1           0       -1.107014    4.197307   -1.390188
     82          1           0       -2.574623    7.529181   -0.010286
     83          1           0       -3.845895    8.665073   -0.244067
     84          1           0       -3.110440    7.615848   -1.590797
     85          1           0       -9.224503    4.475315   -0.080786
     86          1           0      -10.577872    2.151873    1.200957
     87          1           0       -9.694696    5.422468    2.037671
     88          1           0       -8.320318    4.594252    2.679188
     89          1           0       -9.886899    3.835194    2.694647
     90          1           0      -10.008621    1.184323   -1.299398
     91          1           0      -10.240019    2.949034   -1.525575
     92          1           0      -12.426881    2.359350   -1.502492
     93          1           0      -12.420364    1.638783    0.097496
     94          1           0      -12.074488    0.693913   -1.320755
     95          1           0      -10.057491   -2.812683    1.273703
     96          1           0       -9.212335   -4.298579    1.101533
     97          1           0       -9.686304   -3.476239   -0.373536
     98          1           0       -4.304939   -4.256389   -1.160548
     99          1           0       -3.368898   -6.603667    2.290300
    100          1           0       -2.035578   -6.652420    1.173879
    101          1           0       -3.428658   -7.774936    0.935072
    102          1           0        2.810330   -3.860587    0.623305
    103          1           0        2.002783   -2.313299    0.994107
    104          1           0        3.335432   -1.083717   -0.015095
    105          1           0        4.033211   -4.504735   -1.289573
    106          1           0        5.703199   -4.399938   -0.655469
    107          1           0        5.329808   -3.929931   -2.342740
    108          1           0        5.180734   -0.471431   -1.173028
    109          1           0        5.441721   -1.435710   -2.535895
    110          1           0        7.495090   -2.230599   -2.240675
    111          1           0        7.359689   -2.386952   -0.647535
    112          1           0        7.996313   -0.325695   -0.083594
    113          1           0        7.316035    0.517607   -1.518367
    114          1           0        9.475423   -1.560231   -2.058062
    115          1           0        9.528809   -0.631326   -3.851938
    116          1           0       10.363619    0.674180   -3.341854
    117          1           0        8.538389    0.656822   -3.465378
    118          1           0       10.106131    0.435549    0.120658
    119          1           0       11.164170    0.496353   -1.228223
    120          1           0       12.383183   -1.179589   -0.857363
    121          1           0       10.996736   -2.253565   -0.597304
    122          1           0       11.813046   -2.408410    1.520854
    123          1           0       10.894578   -0.939136    1.688241
    124          1           0       13.814317   -0.971522    1.141044
    125          1           0       14.228745   -1.693643    3.338286
    126          1           0       12.543320   -1.854871    3.486434
    127          1           0       13.369751   -0.273112    3.919069
    128          1           0       13.157141    1.423129    2.570690
    129          1           0       11.813030    1.269131    1.552378
    130          1           0       13.073427    2.139966   -0.178715
    131          1           0       14.093462    0.656615   -0.057922
    132          1           0       15.680573    1.758497    0.705265
    133          1           0       14.860807    2.444855    2.070523
    134          1           0       13.969306    3.984309   -0.093459
    135          1           0       16.697009    4.402077   -0.802734
    136          1           0       15.316823    3.868677   -1.726147
    137          1           0       16.285029    2.661302   -1.019812
    138          1           0       16.102985    5.490917    0.824630
    139          1           0       15.935667    4.295756    2.134736
    140          1           0       14.603984    5.473683    1.788769
 ---------------------------------------------------------------------

 SCF Done:  E(RwB97XD) =  -3007.83511811     A.U. after   19 cycles

 Excitation energies and oscillator strengths:

 Excited State   1:      Singlet-A      1.6037 eV  773.11 nm  f=0.3864  <S**2>=0.000
     245 -> 248        0.17273
     246 -> 247        0.68676
     245 <- 248        0.11573
 This state for optimization and/or second-order correction.
 Total Energy, E(TD-HF/TD-DFT) =  -3007.77618282
 Copying the excited state density for this state as the 1-particle RhoCI density.

 Excited State   2:      Singlet-A      2.1606 eV  573.85 nm  f=0.1349  <S**2>=0.000
     245 -> 247        0.64610
     246 -> 248       -0.27158

 Excited State   3:      Singlet-A      3.3812 eV  366.68 nm  f=0.0056  <S**2>=0.000
     243 -> 247        0.18342
     244 -> 247        0.63447
     246 -> 248        0.16294

 Excited State   4:      Singlet-A      3.4683 eV  357.48 nm  f=0.0107  <S**2>=0.000
     242 -> 247        0.11601
     243 -> 247        0.53770
     243 -> 249       -0.27354
     243 -> 250       -0.20590
     244 -> 247       -0.19776

 Excited State   5:      Singlet-A      3.5626 eV  348.02 nm  f=0.1746  <S**2>=0.000
     241 -> 247       -0.17383
     242 -> 247        0.47645
     243 -> 247       -0.13888
     245 -> 247        0.13182
     246 -> 248        0.42369

 The electronic state is 1-A.
 Alpha  occ. eigenvalues --  -46.94619 -19.32364 -19.28238 -19.25174 -19.24219
 Alpha  occ. eigenvalues --  -19.23795 -19.22494 -14.47218 -14.46624 -14.44315
 Alpha  occ. eigenvalues --  -14.43151 -10.43492 -10.41143 -10.39996 -10.38753
 Alpha  occ. eigenvalues --  -10.35980 -10.35718 -10.35114 -10.34911 -10.34453
 Alpha  occ. eigenvalues --  -10.34126 -10.34113 -10.33550 -10.33279 -10.32578
 Alpha  occ. eigenvalues --  -10.32495 -10.32482 -10.32172 -10.32053 -10.31712
 Alpha  occ. eigenvalues --  -10.31643 -10.31599 -10.31572 -10.31537 -10.31323
 Alpha  occ. eigenvalues --  -10.31056 -10.30999 -10.30996 -10.30944 -10.30501
 Alpha  occ. eigenvalues --  -10.30416 -10.30407 -10.30401 -10.30191 -10.30093
 Alpha  occ. eigenvalues --  -10.29825 -10.29765 -10.29693 -10.29665 -10.29630
 Alpha  occ. eigenvalues --  -10.29565 -10.29553 -10.29457 -10.29390 -10.29354
 Alpha  occ. eigenvalues --  -10.29078 -10.28946 -10.28547 -10.28462 -10.28450
 Alpha  occ. eigenvalues --  -10.28390 -10.28364 -10.28261 -10.28244 -10.27824
 Alpha  occ. eigenvalues --  -10.27791  -3.20603  -1.94200  -1.93729  -1.93579
 Alpha  occ. eigenvalues --   -1.20764  -1.16886  -1.12026  -1.11593  -1.10619
 Alpha  occ. eigenvalues --   -1.07049  -1.06184  -1.05730  -1.03946  -1.03019
 Alpha  occ. eigenvalues --   -0.94856  -0.93233  -0.91911  -0.91099  -0.90976
 Alpha  occ. eigenvalues --   -0.90303  -0.90273  -0.89391  -0.89261  -0.88758
 Alpha  occ. eigenvalues --   -0.87639  -0.87550  -0.86276  -0.85725  -0.85140
 Alpha  occ. eigenvalues --   -0.84631  -0.83699  -0.83386  -0.82647  -0.82288
 Alpha  occ. eigenvalues --   -0.81906  -0.80278  -0.79682  -0.78912  -0.78399
 Alpha  occ. eigenvalues --   -0.77263  -0.76980  -0.76944  -0.76403  -0.76363
 Alpha  occ. eigenvalues --   -0.75662  -0.74821  -0.73137  -0.72578  -0.70785
 Alpha  occ. eigenvalues --   -0.70380  -0.70102  -0.69224  -0.68754  -0.67750
 Alpha  occ. eigenvalues --   -0.67447  -0.67184  -0.66776  -0.66245  -0.66110
 Alpha  occ. eigenvalues --   -0.65633  -0.65364  -0.64940  -0.62891  -0.62518
 Alpha  occ. eigenvalues --   -0.62167  -0.61209  -0.61083  -0.60606  -0.59678
 Alpha  occ. eigenvalues --   -0.59608  -0.59369  -0.58562  -0.57727  -0.57377
 Alpha  occ. eigenvalues --   -0.57091  -0.56898  -0.56137  -0.55541  -0.55477
 Alpha  occ. eigenvalues --   -0.55176  -0.54917  -0.54819  -0.54756  -0.54646
 Alpha  occ. eigenvalues --   -0.54253  -0.54203  -0.54081  -0.53968  -0.53632
 Alpha  occ. eigenvalues --   -0.53447  -0.53157  -0.52852  -0.52730  -0.52412
 Alpha  occ. eigenvalues --   -0.52265  -0.52201  -0.51892  -0.51684  -0.51557
 Alpha  occ. eigenvalues --   -0.51467  -0.51302  -0.50811  -0.50629  -0.50605
 Alpha  occ. eigenvalues --   -0.50425  -0.50042  -0.49881  -0.49557  -0.49481
 Alpha  occ. eigenvalues --   -0.49254  -0.49206  -0.49145  -0.48773  -0.48519
 Alpha  occ. eigenvalues --   -0.48385  -0.48151  -0.48096  -0.47429  -0.47192
 Alpha  occ. eigenvalues --   -0.47105  -0.46999  -0.46983  -0.46682  -0.46546
 Alpha  occ. eigenvalues --   -0.46358  -0.46135  -0.46015  -0.45965  -0.45731
 Alpha  occ. eigenvalues --   -0.45560  -0.45436  -0.45395  -0.44983  -0.44833
 Alpha  occ. eigenvalues --   -0.44620  -0.44527  -0.44101  -0.43843  -0.43667
 Alpha  occ. eigenvalues --   -0.43643  -0.43430  -0.42981  -0.42735  -0.42661
 Alpha  occ. eigenvalues --   -0.42585  -0.42565  -0.42243  -0.42190  -0.41991
 Alpha  occ. eigenvalues --   -0.41849  -0.41638  -0.41335  -0.41230  -0.40367
 Alpha  occ. eigenvalues --   -0.40230  -0.39747  -0.39639  -0.39383  -0.39165
 Alpha  occ. eigenvalues --   -0.38952  -0.38808  -0.38644  -0.38382  -0.38283
 Alpha  occ. eigenvalues --   -0.38078  -0.37184  -0.36501  -0.36232  -0.36086
 Alpha  occ. eigenvalues --   -0.35971  -0.34944  -0.34202  -0.33861  -0.33268
 Alpha  occ. eigenvalues --   -0.32631  -0.32561  -0.32028  -0.31670  -0.25916
 Alpha  occ. eigenvalues --   -0.22835
 Alpha virt. eigenvalues --   -0.07124   0.00697   0.02599   0.04327   0.06000
 Alpha virt. eigenvalues --    0.06401   0.06923   0.07917   0.08479   0.09920
 Alpha virt. eigenvalues --    0.11010   0.11383   0.12237   0.12302   0.12719

 Mulliken charges:
               1
     1  Mg   0.965746
     2  C    0.090590
     3  C   -0.105531
     4  C   -0.058899
     5  C   -0.095504
     6  N   -0.393329
     7  C    0.022831
     8  C   -0.091623
     9  C   -0.112894
    10  C    0.101462
    11  C    0.010780
    12  C    0.054954
    13  C    0.028988
    14  C    0.170959
    15  O   -0.269268
    16  O   -0.308683
    17  N   -0.472111
    18  C    0.173927
    19  C   -0.160162
    20  C   -0.054350
    21  C    0.147135
    22  C    0.048720
    23  C    0.069874
    24  O   -0.244159
    25  C   -0.013945
    26  N   -0.392485
    27  C    0.058784
    28  C   -0.074373
    29  C   -0.051481
    30  C    0.066913
    31  C    0.008993
    32  C   -0.015424
    33  C   -0.086106
    34  N   -0.382130
    35  C    0.127523
    36  C   -0.203443
    37  C    0.026621
    38  C    0.074650
    39  C    0.071458
    40  C    0.067592
    41  O   -0.194034
    42  C   -0.143919
    43  C    0.261469
    44  O   -0.279824
    45  O   -0.359944
    46  C    0.144971
    47  C    0.246412
    48  C   -0.223129
    49  C   -0.123496
    50  C    0.027810
    51  C    0.048148
    52  C   -0.066148
    53  C    0.033616
    54  C   -0.188667
    55  C   -0.013396
    56  C   -0.010948
    57  C   -0.011579
    58  C   -0.012812
    59  C   -0.178093
    60  C    0.010160
    61  C    0.031122
    62  C   -0.014278
    63  C    0.011187
    64  C   -0.248706
    65  C   -0.007431
    66  C    0.003542
    67  H    0.002619
    68  H    0.020135
    69  H    0.000998
    70  H    0.069823
    71  H    0.027616
    72  H    0.034159
    73  H    0.060347
    74  H    0.050603
    75  H    0.028583
    76  H    0.036261
    77  H    0.041817
    78  H    0.058172
    79  H    0.055247
    80  H    0.037772
    81  H    0.028830
    82  H    0.036563
    83  H    0.065855
    84  H    0.058735
    85  H    0.047687
    86  H    0.027671
    87  H    0.041519
    88  H    0.047446
    89  H    0.031201
    90  H    0.049218
    91  H    0.041243
    92  H    0.034042
    93  H    0.035698
    94  H    0.037071
    95  H    0.034596
    96  H    0.057216
    97  H    0.054742
    98  H    0.082927
    99  H    0.054547
   100  H    0.053893
   101  H    0.056040
   102  H    0.062338
   103  H    0.034891
   104  H    0.017627
   105  H    0.045120
   106  H    0.056239
   107  H    0.042708
   108  H    0.020809
   109  H    0.039936
   110  H    0.015741
   111  H    0.011413
   112  H    0.023404
   113  H    0.034038
   114  H    0.022861
   115  H    0.004495
   116  H    0.028132
   117  H    0.023756
   118  H    0.020313
   119  H    0.010988
   120  H    0.018536
   121  H    0.019519
   122  H    0.015655
   123  H    0.009644
   124  H    0.014875
   125  H    0.027658
   126  H    0.021645
   127  H    0.030118
   128  H    0.010383
   129  H    0.012773
   130  H    0.024602
   131  H    0.023302
   132  H    0.009577
   133  H    0.012486
   134  H    0.023525
   135  H    0.029736
   136  H    0.018962
   137  H    0.021753
   138  H    0.024613
   139  H    0.029288
   140  H    0.041015
 Sum of Mulliken charges =  -0.00000

 Dipole moment (field-independent basis, Debye):
    X=              4.0189    Y=              3.6797    Z=             -3.9680  Tot=              6.7407
 Quadrupole moment (field-independent basis, Debye-Ang):
   XX=           -368.5091   YY=           -421.9269   ZZ=           -402.8731
   XY=            -22.1653   XZ=              1.9556   YZ=              9.4111

 Normal termination of Gaussian 16 at Thu Apr 28 13:20:04 2022.
