 Gaussian 16, Revision A.03,
 Gaussian 16:  ES64L-G16RevA.03 25-Dec-2016

 --------------------
 #p ZINDO=(nstates=5)
 --------------------

 -----------------------------
 step_1551_chromophore_3 ZINDO
 -----------------------------
 Symbolic Z-matrix:
 Charge =  0 Multiplicity = 1

                         Standard orientation:
 ---------------------------------------------------------------------
 Center     Atomic      Atomic             Coordinates (Angstroms)
 Number     Number       Type             X           Y           Z
 ---------------------------------------------------------------------
      1         12           0       -5.542420    1.035147   -0.053072
      2          6           0       -4.504422   -2.317151   -0.099413
      3          6           0       -2.231354    1.952822   -0.359939
      4          6           0       -6.524841    4.197084    0.350575
      5          6           0       -8.826794   -0.050902    0.686389
      6          7           0       -3.634827   -0.029349   -0.189318
      7          6           0       -3.421768   -1.437098   -0.190724
      8          6           0       -1.874130   -1.820853   -0.380402
      9          6           0       -1.164545   -0.425613   -0.127998
     10          6           0       -2.408513    0.605769   -0.210392
     11          6           0       -0.233924   -0.298064    1.127720
     12          6           0       -1.625288   -2.519434   -1.748072
     13          6           0       -0.658089   -3.709716   -1.776239
     14          6           0        0.385706   -3.888071   -0.634113
     15          8           0        0.171510   -4.613591    0.343999
     16          8           0        1.376316   -3.026031   -0.862017
     17          7           0       -4.581207    2.831615   -0.103273
     18          6           0       -3.222968    2.982255   -0.284004
     19          6           0       -3.019192    4.397594   -0.463311
     20          6           0       -4.195802    5.098215   -0.297058
     21          6           0       -5.185371    4.033102   -0.008308
     22          6           0       -1.751404    4.940287   -0.920219
     23          6           0       -4.549044    6.596916   -0.399028
     24          8           0       -5.721674    6.976527   -0.340417
     25          6           0       -3.494233    7.687690   -0.573572
     26          7           0       -7.349680    1.880381    0.605425
     27          6           0       -7.520963    3.289078    0.507862
     28          6           0       -8.993468    3.734136    0.684767
     29          6           0       -9.768541    2.369621    0.504339
     30          6           0       -8.606320    1.354648    0.716394
     31          6           0       -9.219620    4.442113    2.082799
     32          6           0      -10.387026    2.104470   -0.852225
     33          6           0      -11.893385    1.663180   -0.856598
     34          7           0       -6.556829   -0.858522    0.174270
     35          6           0       -7.834486   -1.091554    0.519440
     36          6           0       -8.035848   -2.517107    0.476961
     37          6           0       -6.787128   -3.069561    0.225358
     38          6           0       -5.867502   -1.990283    0.028631
     39          6           0       -9.325358   -3.316375    0.643194
     40          6           0       -6.022924   -4.266935    0.096036
     41          8           0       -6.429927   -5.418460    0.148102
     42          6           0       -4.493401   -3.788461   -0.194532
     43          6           0       -3.738763   -4.501693    0.762554
     44          8           0       -3.270645   -4.113064    1.852097
     45          8           0       -3.602697   -5.774344    0.310537
     46          6           0       -3.115961   -6.777653    1.244716
     47          6           0        2.349305   -2.969417    0.196384
     48          6           0        3.525259   -2.126648   -0.268910
     49          6           0        4.657259   -2.499756   -0.870382
     50          6           0        4.966868   -3.941935   -1.315515
     51          6           0        5.536567   -1.463993   -1.450396
     52          6           0        7.030837   -1.687732   -1.417112
     53          6           0        7.811671   -0.383085   -1.156064
     54          6           0        9.300777   -0.545422   -1.701098
     55          6           0        9.435183    0.155279   -3.102615
     56          6           0       10.479057   -0.170638   -0.704575
     57          6           0       11.467724   -1.322562   -0.283083
     58          6           0       11.781305   -1.362813    1.214945
     59          6           0       13.000068   -0.610729    1.769148
     60          6           0       13.307663   -1.120269    3.235660
     61          6           0       12.848295    0.939950    1.644553
     62          6           0       13.638642    1.484842    0.484588
     63          6           0       14.793547    2.325316    0.989766
     64          6           0       14.921261    3.717432    0.365758
     65          6           0       15.897094    3.661554   -0.826326
     66          6           0       15.401292    4.859203    1.370041
     67          1           0       -1.241251    2.247100   -0.715040
     68          1           0       -6.914489    5.209208    0.478067
     69          1           0       -9.879833   -0.339754    0.685519
     70          1           0       -1.474508   -2.442396    0.419783
     71          1           0       -0.487895   -0.231278   -0.959337
     72          1           0        0.775955   -0.298748    0.717636
     73          1           0       -0.482748   -1.210514    1.669595
     74          1           0       -0.315566    0.582529    1.764005
     75          1           0       -1.400193   -1.767340   -2.504786
     76          1           0       -2.568770   -2.921198   -2.117434
     77          1           0       -0.063240   -3.566811   -2.678016
     78          1           0       -1.116019   -4.699106   -1.781937
     79          1           0       -1.164971    5.329792   -0.087872
     80          1           0       -1.887660    5.684973   -1.703709
     81          1           0       -1.107014    4.197307   -1.390188
     82          1           0       -2.574623    7.529181   -0.010286
     83          1           0       -3.845895    8.665073   -0.244067
     84          1           0       -3.110440    7.615848   -1.590797
     85          1           0       -9.224503    4.475315   -0.080786
     86          1           0      -10.577872    2.151873    1.200957
     87          1           0       -9.694696    5.422468    2.037671
     88          1           0       -8.320318    4.594252    2.679188
     89          1           0       -9.886899    3.835194    2.694647
     90          1           0      -10.008621    1.184323   -1.299398
     91          1           0      -10.240019    2.949034   -1.525575
     92          1           0      -12.426881    2.359350   -1.502492
     93          1           0      -12.420364    1.638783    0.097496
     94          1           0      -12.074488    0.693913   -1.320755
     95          1           0      -10.057491   -2.812683    1.273703
     96          1           0       -9.212335   -4.298579    1.101533
     97          1           0       -9.686304   -3.476239   -0.373536
     98          1           0       -4.304939   -4.256389   -1.160548
     99          1           0       -3.368898   -6.603667    2.290300
    100          1           0       -2.035578   -6.652420    1.173879
    101          1           0       -3.428658   -7.774936    0.935072
    102          1           0        2.810330   -3.860587    0.623305
    103          1           0        2.002783   -2.313299    0.994107
    104          1           0        3.335432   -1.083717   -0.015095
    105          1           0        4.033211   -4.504735   -1.289573
    106          1           0        5.703199   -4.399938   -0.655469
    107          1           0        5.329808   -3.929931   -2.342740
    108          1           0        5.180734   -0.471431   -1.173028
    109          1           0        5.441721   -1.435710   -2.535895
    110          1           0        7.495090   -2.230599   -2.240675
    111          1           0        7.359689   -2.386952   -0.647535
    112          1           0        7.996313   -0.325695   -0.083594
    113          1           0        7.316035    0.517607   -1.518367
    114          1           0        9.475423   -1.560231   -2.058062
    115          1           0        9.528809   -0.631326   -3.851938
    116          1           0       10.363619    0.674180   -3.341854
    117          1           0        8.538389    0.656822   -3.465378
    118          1           0       10.106131    0.435549    0.120658
    119          1           0       11.164170    0.496353   -1.228223
    120          1           0       12.383183   -1.179589   -0.857363
    121          1           0       10.996736   -2.253565   -0.597304
    122          1           0       11.813046   -2.408410    1.520854
    123          1           0       10.894578   -0.939136    1.688241
    124          1           0       13.814317   -0.971522    1.141044
    125          1           0       14.228745   -1.693643    3.338286
    126          1           0       12.543320   -1.854871    3.486434
    127          1           0       13.369751   -0.273112    3.919069
    128          1           0       13.157141    1.423129    2.570690
    129          1           0       11.813030    1.269131    1.552378
    130          1           0       13.073427    2.139966   -0.178715
    131          1           0       14.093462    0.656615   -0.057922
    132          1           0       15.680573    1.758497    0.705265
    133          1           0       14.860807    2.444855    2.070523
    134          1           0       13.969306    3.984309   -0.093459
    135          1           0       16.697009    4.402077   -0.802734
    136          1           0       15.316823    3.868677   -1.726147
    137          1           0       16.285029    2.661302   -1.019812
    138          1           0       16.102985    5.490917    0.824630
    139          1           0       15.935667    4.295756    2.134736
    140          1           0       14.603984    5.473683    1.788769
 ---------------------------------------------------------------------

 SCF Done:  E(RZINDO/S) =  -474.279180751     A.U. after   20 cycles

 Excitation energies and oscillator strengths:

 Excited State   1:      Singlet-A      1.2096 eV 1025.00 nm  f=0.6223  <S**2>=0.000
     175 ->178         0.18070
     176 ->177         0.66545
 This state for optimization and/or second-order correction.
 Total Energy, E(CIS/TDA) =  -474.234728725
 Copying the excited state density for this state as the 1-particle RhoCI density.

 Excited State   2:      Singlet-A      1.9235 eV  644.57 nm  f=0.0590  <S**2>=0.000
     175 ->177         0.55918
     176 ->178        -0.40590

 Excited State   3:      Singlet-A      2.9563 eV  419.39 nm  f=0.0207  <S**2>=0.000
     169 ->177         0.33661
     169 ->178        -0.16046
     169 ->179        -0.37046
     169 ->180         0.26910
     169 ->186        -0.15152
     169 ->187        -0.14286
     169 ->200         0.13197

 Excited State   4:      Singlet-A      3.0112 eV  411.74 nm  f=0.1369  <S**2>=0.000
     168 ->177         0.24192
     168 ->178        -0.12202
     168 ->179         0.34129
     168 ->180         0.35701
     168 ->186         0.18975
     168 ->187        -0.11749
     175 ->177        -0.13466
     176 ->178        -0.20783

 Excited State   5:      Singlet-A      3.0224 eV  410.21 nm  f=0.5449  <S**2>=0.000
     168 ->179         0.13644
     168 ->180         0.13288
     174 ->177        -0.17323
     175 ->177         0.26963
     176 ->178         0.41883
     176 ->179         0.33623

 The electronic state is 1-A.
 Alpha  occ. eigenvalues --   -1.84732  -1.81784  -1.77539  -1.75145  -1.73431
 Alpha  occ. eigenvalues --   -1.67901  -1.65706  -1.60862  -1.57875  -1.57539
 Alpha  occ. eigenvalues --   -1.55960  -1.51497  -1.49022  -1.48005  -1.47043
 Alpha  occ. eigenvalues --   -1.43948  -1.41557  -1.40808  -1.38645  -1.38590
 Alpha  occ. eigenvalues --   -1.35808  -1.34225  -1.32880  -1.31660  -1.28737
 Alpha  occ. eigenvalues --   -1.28112  -1.24954  -1.22072  -1.21568  -1.18548
 Alpha  occ. eigenvalues --   -1.17357  -1.15901  -1.15252  -1.14794  -1.13277
 Alpha  occ. eigenvalues --   -1.11915  -1.11351  -1.10791  -1.05111  -1.04308
 Alpha  occ. eigenvalues --   -1.02552  -1.01228  -0.99135  -0.97166  -0.95733
 Alpha  occ. eigenvalues --   -0.95041  -0.94548  -0.93935  -0.93007  -0.92725
 Alpha  occ. eigenvalues --   -0.91676  -0.91032  -0.89139  -0.87996  -0.87722
 Alpha  occ. eigenvalues --   -0.85741  -0.84744  -0.84004  -0.81763  -0.80503
 Alpha  occ. eigenvalues --   -0.79652  -0.78634  -0.77937  -0.76481  -0.76310
 Alpha  occ. eigenvalues --   -0.75389  -0.74875  -0.74358  -0.73985  -0.73317
 Alpha  occ. eigenvalues --   -0.73106  -0.72417  -0.72270  -0.71006  -0.70031
 Alpha  occ. eigenvalues --   -0.69816  -0.69256  -0.68628  -0.68489  -0.68048
 Alpha  occ. eigenvalues --   -0.67541  -0.67138  -0.66506  -0.65940  -0.65428
 Alpha  occ. eigenvalues --   -0.65040  -0.64626  -0.64183  -0.63983  -0.63689
 Alpha  occ. eigenvalues --   -0.63174  -0.63078  -0.62909  -0.62154  -0.61629
 Alpha  occ. eigenvalues --   -0.61440  -0.61014  -0.60551  -0.60066  -0.59264
 Alpha  occ. eigenvalues --   -0.59117  -0.58868  -0.58443  -0.57961  -0.57879
 Alpha  occ. eigenvalues --   -0.57414  -0.57075  -0.56904  -0.56514  -0.56295
 Alpha  occ. eigenvalues --   -0.55692  -0.55335  -0.54981  -0.54713  -0.54583
 Alpha  occ. eigenvalues --   -0.54105  -0.53872  -0.53613  -0.53276  -0.53104
 Alpha  occ. eigenvalues --   -0.52707  -0.52608  -0.52177  -0.51835  -0.51653
 Alpha  occ. eigenvalues --   -0.51443  -0.51086  -0.50595  -0.50084  -0.49862
 Alpha  occ. eigenvalues --   -0.49763  -0.49323  -0.49290  -0.48962  -0.48677
 Alpha  occ. eigenvalues --   -0.48596  -0.48519  -0.47909  -0.47814  -0.47501
 Alpha  occ. eigenvalues --   -0.47187  -0.46703  -0.46411  -0.46272  -0.46245
 Alpha  occ. eigenvalues --   -0.45706  -0.45444  -0.45353  -0.45240  -0.44961
 Alpha  occ. eigenvalues --   -0.44844  -0.44686  -0.44603  -0.44176  -0.43877
 Alpha  occ. eigenvalues --   -0.43561  -0.43408  -0.43334  -0.42580  -0.41972
 Alpha  occ. eigenvalues --   -0.41450  -0.41224  -0.40056  -0.38842  -0.38575
 Alpha  occ. eigenvalues --   -0.37476  -0.36828  -0.35673  -0.34540  -0.34277
 Alpha  occ. eigenvalues --   -0.33428  -0.33043  -0.32716  -0.32475  -0.26774
 Alpha  occ. eigenvalues --   -0.21696
 Alpha virt. eigenvalues --   -0.08709  -0.01763  -0.00393   0.01132   0.01577
 Alpha virt. eigenvalues --    0.02523   0.02997   0.03381   0.04343   0.05210
 Alpha virt. eigenvalues --    0.06282   0.07029   0.07262   0.07720   0.08143

 Mulliken charges:
               1
     1  Mg   0.422422
     2  C   -0.022628
     3  C   -0.073876
     4  C   -0.052645
     5  C   -0.077270
     6  N   -0.290887
     7  C    0.106682
     8  C    0.004051
     9  C   -0.007338
    10  C    0.128474
    11  C   -0.053115
    12  C   -0.010981
    13  C   -0.001056
    14  C    0.465591
    15  O   -0.515809
    16  O   -0.237031
    17  N   -0.307235
    18  C    0.096517
    19  C    0.027589
    20  C   -0.055725
    21  C    0.142749
    22  C   -0.043639
    23  C    0.328603
    24  O   -0.523615
    25  C   -0.028567
    26  N   -0.280373
    27  C    0.125873
    28  C    0.009452
    29  C    0.011275
    30  C    0.125718
    31  C   -0.052622
    32  C   -0.028708
    33  C   -0.064542
    34  N   -0.307062
    35  C    0.103422
    36  C    0.037669
    37  C   -0.055977
    38  C    0.102999
    39  C   -0.040178
    40  C    0.330553
    41  O   -0.519026
    42  C    0.066291
    43  C    0.497213
    44  O   -0.552198
    45  O   -0.269251
    46  C    0.074838
    47  C    0.093773
    48  C   -0.092322
    49  C   -0.003381
    50  C   -0.044630
    51  C   -0.016139
    52  C   -0.030548
    53  C   -0.035170
    54  C   -0.023801
    55  C   -0.072093
    56  C   -0.043179
    57  C   -0.034082
    58  C   -0.030222
    59  C   -0.010048
    60  C   -0.065883
    61  C   -0.027703
    62  C   -0.032696
    63  C   -0.034407
    64  C   -0.017362
    65  C   -0.061475
    66  C   -0.064701
    67  H    0.028531
    68  H    0.042119
    69  H    0.027018
    70  H    0.054469
    71  H    0.019845
    72  H    0.019294
    73  H    0.035581
    74  H    0.030854
    75  H    0.025623
    76  H    0.018507
    77  H    0.026904
    78  H    0.043191
    79  H    0.031569
    80  H    0.023732
    81  H    0.016511
    82  H    0.021212
    83  H    0.045047
    84  H    0.042606
    85  H    0.036646
    86  H    0.035986
    87  H    0.022714
    88  H    0.027437
    89  H    0.015330
    90  H    0.027041
    91  H    0.026332
    92  H    0.011719
    93  H    0.022572
    94  H    0.018486
    95  H    0.021378
    96  H    0.035428
    97  H    0.034018
    98  H    0.063099
    99  H    0.050505
   100  H    0.038126
   101  H    0.036898
   102  H    0.062090
   103  H    0.039780
   104  H    0.021620
   105  H    0.023024
   106  H    0.033981
   107  H    0.025787
   108  H    0.023051
   109  H    0.022607
   110  H    0.024201
   111  H    0.009858
   112  H    0.017051
   113  H    0.032340
   114  H    0.023707
   115  H    0.000924
   116  H    0.025573
   117  H    0.021813
   118  H    0.025065
   119  H    0.010536
   120  H    0.019887
   121  H    0.018561
   122  H    0.012181
   123  H    0.011962
   124  H    0.020536
   125  H    0.017395
   126  H    0.020638
   127  H    0.023681
   128  H    0.018220
   129  H    0.016490
   130  H    0.023527
   131  H    0.022616
   132  H    0.011136
   133  H    0.018768
   134  H    0.019857
   135  H    0.022832
   136  H    0.006324
   137  H    0.018697
   138  H    0.020803
   139  H    0.021793
   140  H    0.024204
 Sum of Mulliken charges =  -0.00000

 Dipole moment (field-independent basis, Debye):
    X=              5.0423    Y=              4.6150    Z=             -6.2923  Tot=              9.2906
 N-N= 4.257242437024D+03 E-N= 0.000000000000D+00  KE=-9.189148326427D+03
 Leave Link  601 at Thu Apr 28 13:31:45 2022, MaxMem=  6710886400 cpu:               2.9 elap:               0.2
 (Enter /sw/apps/gaussian-16.0/g16/l9999.exe)
 1\1\GINC-BP1-COMPUTE156\SP\RZINDO CIS\STO-3G\C55H74Mg1N4O6\OF15641\28-
 Apr-2022\0\\#p ZINDO=(nstates=5)\\step_1551_chromophore_3 ZINDO\\0,1\M
 g,0,1.788,7.995,25.939\C,0,2.321,9.897,28.84\C,0,1.563,5.197,27.944\C,
 0,1.64,6.176,23.147\C,0,2.467,10.872,23.996\N,0,1.941,7.598,28.086\C,0
 ,2.168,8.538,29.131\C,0,2.141,7.855,30.584\C,0,2.224,6.315,30.216\C,0,
 1.904,6.329,28.63\C,0,3.504,5.527,30.663\C,0,0.915,8.333,31.414\C,0,1.
 132,8.626,32.904\C,0,2.354,8.008,33.646\O,0,3.415,8.626,33.792\O,0,2.0

 Normal termination of Gaussian 16 at Thu Apr 28 13:31:45 2022.
