 Gaussian 16, Revision A.03,
 Gaussian 16:  ES64L-G16RevA.03 25-Dec-2016

 ------------------------------
 #p blyp/Def2SVP td=(nstates=5)
 ------------------------------

 ---------------------------------------------------
 step_1701_chromophore_11 TDDFT with blyp functional
 ---------------------------------------------------
 Symbolic Z-matrix:
 Charge =  0 Multiplicity = 1

                         Standard orientation:
 ---------------------------------------------------------------------
 Center     Atomic      Atomic             Coordinates (Angstroms)
 Number     Number       Type             X           Y           Z
 ---------------------------------------------------------------------
      1         12           0       -4.665996    1.506545    0.599512
      2          6           0       -5.207497   -2.087627    0.147666
      3          6           0       -2.537080    0.719836    3.253251
      4          6           0       -3.699073    4.643611    0.594453
      5          6           0       -6.639369    1.978707   -2.232008
      6          7           0       -3.828676   -0.440168    1.372085
      7          6           0       -4.325816   -1.759787    1.177390
      8          6           0       -3.883077   -2.699198    2.352061
      9          6           0       -3.434672   -1.701337    3.427220
     10          6           0       -3.217398   -0.375266    2.642507
     11          6           0       -4.582274   -1.462432    4.519752
     12          6           0       -2.868867   -3.780277    1.942826
     13          6           0       -1.753139   -3.383784    0.951616
     14          6           0       -0.297147   -4.066324    1.156971
     15          8           0        0.448482   -3.959594    2.137050
     16          8           0        0.115498   -4.813271    0.075713
     17          7           0       -3.305119    2.542746    1.836931
     18          6           0       -2.475128    2.050284    2.779358
     19          6           0       -1.701192    3.183364    3.303925
     20          6           0       -1.822847    4.274008    2.419073
     21          6           0       -2.992266    3.863435    1.555619
     22          6           0       -0.710384    3.011675    4.435053
     23          6           0       -1.016731    5.569571    2.484496
     24          8           0        0.107516    5.608439    2.991325
     25          6           0       -1.421883    6.828533    1.759470
     26          7           0       -4.967406    3.021790   -0.783878
     27          6           0       -4.559136    4.307870   -0.434810
     28          6           0       -5.049607    5.309167   -1.603250
     29          6           0       -5.973801    4.410314   -2.530792
     30          6           0       -5.884870    3.058210   -1.874706
     31          6           0       -5.517421    6.709192   -1.202556
     32          6           0       -5.605291    4.432559   -4.034842
     33          6           0       -4.886555    3.174193   -4.520437
     34          7           0       -5.725558    0.296667   -0.746832
     35          6           0       -6.506320    0.619550   -1.817608
     36          6           0       -7.092720   -0.531719   -2.513290
     37          6           0       -6.639850   -1.633953   -1.645517
     38          6           0       -5.710230   -1.099779   -0.711141
     39          6           0       -8.030233   -0.490468   -3.700403
     40          6           0       -6.807408   -3.024394   -1.418813
     41          8           0       -7.401981   -3.878195   -2.081629
     42          6           0       -5.902721   -3.347394   -0.330642
     43          6           0       -4.996699   -4.333969   -0.940267
     44          8           0       -4.120373   -4.060156   -1.794683
     45          8           0       -5.209375   -5.581083   -0.427611
     46          6           0       -4.607568   -6.684131   -1.116785
     47          6           0        1.432864   -5.446965    0.163617
     48          6           0        2.442136   -4.578893   -0.553034
     49          6           0        3.519231   -3.941887    0.039646
     50          6           0        4.013084   -4.055928    1.454410
     51          6           0        4.486260   -3.171637   -0.839041
     52          6           0        5.008679   -1.767659   -0.438242
     53          6           0        6.518546   -1.608935   -0.686679
     54          6           0        6.813883   -0.089101   -1.127923
     55          6           0        7.459724   -0.000363   -2.517137
     56          6           0        7.464799    0.721423   -0.007699
     57          6           0        8.757092    0.043887    0.437095
     58          6           0        9.873340    1.063246    0.812518
     59          6           0       11.145859    0.445919    1.459413
     60          6           0       11.109073    0.522881    2.984197
     61          6           0       12.412600    1.162571    0.960603
     62          6           0       13.189923    0.422687   -0.194242
     63          6           0       13.448047    1.387554   -1.423839
     64          6           0       12.830353    0.819012   -2.804515
     65          6           0       13.938367    1.149642   -3.909881
     66          6           0       11.500849    1.450774   -3.108922
     67          1           0       -1.986712    0.623256    4.191587
     68          1           0       -3.417739    5.699210    0.559699
     69          1           0       -7.379090    2.224308   -2.996900
     70          1           0       -4.707892   -3.330731    2.681528
     71          1           0       -2.506616   -2.069907    3.864439
     72          1           0       -5.417475   -2.156896    4.431377
     73          1           0       -5.073965   -0.495505    4.417427
     74          1           0       -4.071033   -1.475080    5.482036
     75          1           0       -3.332794   -4.654341    1.484974
     76          1           0       -2.410519   -4.214723    2.830450
     77          1           0       -1.605722   -2.305801    1.027253
     78          1           0       -2.103620   -3.571205   -0.063193
     79          1           0       -0.423313    3.949796    4.909141
     80          1           0        0.274391    2.584001    4.251876
     81          1           0       -1.161012    2.509906    5.291466
     82          1           0       -0.804063    7.722338    1.853255
     83          1           0       -2.466962    6.914208    2.056074
     84          1           0       -1.367577    6.579135    0.700138
     85          1           0       -4.131470    5.505983   -2.156912
     86          1           0       -6.977958    4.806361   -2.382098
     87          1           0       -6.489283    6.923176   -1.647339
     88          1           0       -4.780360    7.394847   -1.619340
     89          1           0       -5.492692    6.879540   -0.126424
     90          1           0       -5.001869    5.284500   -4.351897
     91          1           0       -6.565712    4.383688   -4.547496
     92          1           0       -4.236025    3.517677   -5.325296
     93          1           0       -5.471899    2.370076   -4.966282
     94          1           0       -4.230918    2.776287   -3.746216
     95          1           0       -9.005987   -0.069803   -3.459550
     96          1           0       -8.268368   -1.450040   -4.160165
     97          1           0       -7.484499    0.112532   -4.427011
     98          1           0       -6.441901   -3.694315    0.551519
     99          1           0       -5.126173   -7.586970   -0.792775
    100          1           0       -3.548563   -6.801022   -0.890336
    101          1           0       -4.795237   -6.623580   -2.188702
    102          1           0        1.294101   -6.263731   -0.545184
    103          1           0        1.894676   -5.795690    1.086932
    104          1           0        2.464530   -4.601257   -1.643105
    105          1           0        3.922593   -3.197903    2.120043
    106          1           0        5.050353   -4.388286    1.410694
    107          1           0        3.451382   -4.825232    1.984029
    108          1           0        4.239138   -3.370372   -1.881672
    109          1           0        5.386435   -3.783365   -0.780276
    110          1           0        4.705855   -1.487881    0.570336
    111          1           0        4.361258   -1.263756   -1.156221
    112          1           0        6.878480   -2.301055   -1.447704
    113          1           0        6.993925   -1.821003    0.270245
    114          1           0        5.864190    0.422815   -1.286779
    115          1           0        6.598705    0.316155   -3.105070
    116          1           0        7.782524   -1.000339   -2.805047
    117          1           0        8.157699    0.836746   -2.544294
    118          1           0        6.714147    0.738205    0.782322
    119          1           0        7.621734    1.741814   -0.356564
    120          1           0        9.122937   -0.684802   -0.286490
    121          1           0        8.555671   -0.501883    1.358223
    122          1           0        9.346797    1.879238    1.308148
    123          1           0       10.172522    1.531286   -0.125180
    124          1           0       11.179345   -0.619181    1.229767
    125          1           0       10.107098    0.578361    3.407780
    126          1           0       11.605944    1.333079    3.518273
    127          1           0       11.530614   -0.421782    3.328076
    128          1           0       13.131947    1.055091    1.772808
    129          1           0       12.221970    2.207427    0.715955
    130          1           0       12.648238   -0.455021   -0.547599
    131          1           0       14.195144    0.123392    0.098192
    132          1           0       14.503955    1.649962   -1.487801
    133          1           0       12.901146    2.275358   -1.109100
    134          1           0       12.564325   -0.232274   -2.699988
    135          1           0       13.971078    0.270876   -4.555507
    136          1           0       14.928781    1.178658   -3.456398
    137          1           0       13.560755    2.089899   -4.311152
    138          1           0       10.752816    0.884286   -2.553845
    139          1           0       11.316590    1.318269   -4.174698
    140          1           0       11.521718    2.505290   -2.833131
 ---------------------------------------------------------------------

 SCF Done:  E(RB-LYP) =  -3007.34000461     A.U. after   22 cycles

 Excitation energies and oscillator strengths:

 Excited State   1:      Singlet-A      1.7096 eV  725.22 nm  f=0.0763  <S**2>=0.000
     244 -> 247        0.61406
     246 -> 247        0.34633
 This state for optimization and/or second-order correction.
 Total Energy, E(TD-HF/TD-DFT) =  -3007.27717806
 Copying the excited state density for this state as the 1-particle RhoCI density.

 Excited State   2:      Singlet-A      1.7356 eV  714.36 nm  f=0.2340  <S**2>=0.000
     244 -> 247       -0.34787
     245 -> 248       -0.15628
     246 -> 247        0.60380
     246 <- 247       -0.14537

 Excited State   3:      Singlet-A      1.7671 eV  701.61 nm  f=0.0046  <S**2>=0.000
     243 -> 247        0.68820
     245 -> 247        0.12523

 Excited State   4:      Singlet-A      1.8823 eV  658.67 nm  f=0.0001  <S**2>=0.000
     242 -> 247        0.70705

 Excited State   5:      Singlet-A      1.9863 eV  624.18 nm  f=0.0741  <S**2>=0.000
     243 -> 247       -0.12691
     245 -> 247        0.63841
     246 -> 248        0.24222

 The electronic state is 1-A.
 Alpha  occ. eigenvalues --  -46.27658 -18.82563 -18.81105 -18.76586 -18.75766
 Alpha  occ. eigenvalues --  -18.75606 -18.74996 -14.04123 -14.03298 -14.01883
 Alpha  occ. eigenvalues --  -14.01205 -10.04313 -10.03581 -10.00462  -9.98604
 Alpha  occ. eigenvalues --   -9.97783  -9.97492  -9.97415  -9.97395  -9.97285
 Alpha  occ. eigenvalues --   -9.96934  -9.96549  -9.96030  -9.95770  -9.94627
 Alpha  occ. eigenvalues --   -9.94560  -9.94515  -9.94326  -9.94233  -9.94221
 Alpha  occ. eigenvalues --   -9.94220  -9.94010  -9.93900  -9.93833  -9.93725
 Alpha  occ. eigenvalues --   -9.93387  -9.93203  -9.93095  -9.92957  -9.92895
 Alpha  occ. eigenvalues --   -9.92817  -9.92738  -9.92721  -9.92553  -9.92491
 Alpha  occ. eigenvalues --   -9.91790  -9.91612  -9.91602  -9.91431  -9.91379
 Alpha  occ. eigenvalues --   -9.91312  -9.91296  -9.91103  -9.90992  -9.90984
 Alpha  occ. eigenvalues --   -9.90917  -9.90689  -9.90687  -9.90612  -9.90583
 Alpha  occ. eigenvalues --   -9.90497  -9.90493  -9.90422  -9.90401  -9.90398
 Alpha  occ. eigenvalues --   -9.90161  -2.92248  -1.72648  -1.72144  -1.71962
 Alpha  occ. eigenvalues --   -0.98024  -0.96413  -0.91200  -0.90868  -0.88851
 Alpha  occ. eigenvalues --   -0.87873  -0.86019  -0.85287  -0.84026  -0.83486
 Alpha  occ. eigenvalues --   -0.76967  -0.73077  -0.72982  -0.72349  -0.72210
 Alpha  occ. eigenvalues --   -0.71702  -0.71325  -0.70560  -0.70237  -0.69812
 Alpha  occ. eigenvalues --   -0.69460  -0.68543  -0.67963  -0.67850  -0.67100
 Alpha  occ. eigenvalues --   -0.66371  -0.65998  -0.65534  -0.65139  -0.64557
 Alpha  occ. eigenvalues --   -0.63890  -0.62669  -0.62058  -0.61640  -0.61376
 Alpha  occ. eigenvalues --   -0.60050  -0.59796  -0.59765  -0.59293  -0.58078
 Alpha  occ. eigenvalues --   -0.57968  -0.57299  -0.56744  -0.55347  -0.54992
 Alpha  occ. eigenvalues --   -0.54232  -0.53319  -0.53120  -0.52079  -0.51096
 Alpha  occ. eigenvalues --   -0.50929  -0.50771  -0.50611  -0.50312  -0.49528
 Alpha  occ. eigenvalues --   -0.48830  -0.48386  -0.48209  -0.46871  -0.46800
 Alpha  occ. eigenvalues --   -0.46096  -0.45725  -0.45595  -0.45324  -0.45064
 Alpha  occ. eigenvalues --   -0.43931  -0.43343  -0.43211  -0.42814  -0.42434
 Alpha  occ. eigenvalues --   -0.42057  -0.41495  -0.41259  -0.41180  -0.40993
 Alpha  occ. eigenvalues --   -0.40898  -0.40395  -0.40283  -0.40183  -0.39995
 Alpha  occ. eigenvalues --   -0.39850  -0.39566  -0.39489  -0.39358  -0.38966
 Alpha  occ. eigenvalues --   -0.38779  -0.38575  -0.38476  -0.38329  -0.38083
 Alpha  occ. eigenvalues --   -0.37822  -0.37614  -0.37381  -0.37149  -0.36949
 Alpha  occ. eigenvalues --   -0.36852  -0.36778  -0.36495  -0.36386  -0.36349
 Alpha  occ. eigenvalues --   -0.35982  -0.35913  -0.35512  -0.35448  -0.35041
 Alpha  occ. eigenvalues --   -0.34846  -0.34831  -0.34710  -0.34562  -0.34507
 Alpha  occ. eigenvalues --   -0.34263  -0.34205  -0.33983  -0.33873  -0.33778
 Alpha  occ. eigenvalues --   -0.33561  -0.33494  -0.33202  -0.33059  -0.32920
 Alpha  occ. eigenvalues --   -0.32740  -0.32641  -0.32448  -0.32232  -0.32045
 Alpha  occ. eigenvalues --   -0.31686  -0.31599  -0.31474  -0.31455  -0.31166
 Alpha  occ. eigenvalues --   -0.30982  -0.30628  -0.30398  -0.30261  -0.30138
 Alpha  occ. eigenvalues --   -0.30041  -0.29928  -0.29879  -0.29611  -0.29438
 Alpha  occ. eigenvalues --   -0.29354  -0.28842  -0.28722  -0.28584  -0.28459
 Alpha  occ. eigenvalues --   -0.28324  -0.28243  -0.27986  -0.27971  -0.27868
 Alpha  occ. eigenvalues --   -0.27076  -0.26985  -0.26917  -0.26889  -0.26741
 Alpha  occ. eigenvalues --   -0.26417  -0.26297  -0.25751  -0.25245  -0.24955
 Alpha  occ. eigenvalues --   -0.24776  -0.23937  -0.23651  -0.23606  -0.23084
 Alpha  occ. eigenvalues --   -0.22677  -0.22518  -0.21696  -0.21160  -0.20920
 Alpha  occ. eigenvalues --   -0.20163  -0.19137  -0.18588  -0.18457  -0.17810
 Alpha  occ. eigenvalues --   -0.16122
 Alpha virt. eigenvalues --   -0.12219  -0.07171  -0.06856  -0.05303  -0.03427
 Alpha virt. eigenvalues --   -0.02935  -0.02694  -0.02338  -0.01712  -0.00189
 Alpha virt. eigenvalues --    0.01125   0.01471   0.02305   0.02460   0.02726

 Mulliken charges:
               1
     1  Mg   0.687252
     2  C   -0.034380
     3  C   -0.036217
     4  C   -0.050482
     5  C   -0.050918
     6  N   -0.237569
     7  C   -0.077260
     8  C    0.041251
     9  C    0.012751
    10  C    0.067193
    11  C    0.117877
    12  C    0.068157
    13  C    0.096076
    14  C    0.091292
    15  O   -0.216710
    16  O   -0.258063
    17  N   -0.282215
    18  C    0.091017
    19  C   -0.114564
    20  C    0.035978
    21  C    0.128967
    22  C    0.153359
    23  C   -0.073950
    24  O   -0.179476
    25  C    0.144667
    26  N   -0.301346
    27  C    0.045510
    28  C   -0.020067
    29  C    0.078061
    30  C   -0.004707
    31  C    0.139920
    32  C    0.096231
    33  C    0.061182
    34  N   -0.253180
    35  C    0.108540
    36  C   -0.149590
    37  C    0.059247
    38  C    0.100598
    39  C    0.164394
    40  C   -0.105782
    41  O   -0.152478
    42  C    0.218944
    43  C    0.117351
    44  O   -0.212089
    45  O   -0.247359
    46  C    0.223635
    47  C    0.379540
    48  C   -0.150689
    49  C   -0.118667
    50  C    0.152303
    51  C    0.092128
    52  C    0.082693
    53  C    0.095074
    54  C   -0.120928
    55  C    0.139476
    56  C    0.128107
    57  C    0.033532
    58  C    0.091159
    59  C   -0.028206
    60  C    0.098633
    61  C    0.111737
    62  C    0.054933
    63  C    0.067368
    64  C   -0.129783
    65  C    0.106619
    66  C    0.102931
    67  H   -0.048635
    68  H   -0.086974
    69  H   -0.069958
    70  H   -0.034338
    71  H   -0.014950
    72  H   -0.003784
    73  H   -0.006719
    74  H    0.006603
    75  H   -0.015635
    76  H   -0.017614
    77  H    0.011174
    78  H    0.006828
    79  H   -0.015661
    80  H    0.016795
    81  H   -0.020004
    82  H   -0.000925
    83  H    0.011285
    84  H    0.016581
    85  H   -0.016252
    86  H   -0.029200
    87  H   -0.005949
    88  H   -0.016680
    89  H   -0.000622
    90  H   -0.011110
    91  H   -0.023962
    92  H   -0.023422
    93  H   -0.000264
    94  H    0.008477
    95  H    0.007589
    96  H    0.005268
    97  H    0.002110
    98  H   -0.013035
    99  H    0.004538
   100  H    0.017086
   101  H    0.020100
   102  H   -0.036802
   103  H    0.000309
   104  H   -0.036518
   105  H    0.010194
   106  H   -0.009465
   107  H   -0.026324
   108  H   -0.044407
   109  H   -0.037865
   110  H   -0.018521
   111  H   -0.015816
   112  H   -0.024803
   113  H   -0.020580
   114  H   -0.043502
   115  H   -0.023360
   116  H   -0.012725
   117  H   -0.009712
   118  H   -0.038514
   119  H   -0.035157
   120  H   -0.021293
   121  H   -0.028547
   122  H   -0.034161
   123  H   -0.046297
   124  H   -0.040680
   125  H   -0.031073
   126  H   -0.015703
   127  H   -0.023813
   128  H   -0.041907
   129  H   -0.016558
   130  H   -0.028618
   131  H   -0.028929
   132  H   -0.028235
   133  H   -0.041228
   134  H   -0.029679
   135  H   -0.014986
   136  H   -0.014077
   137  H   -0.003287
   138  H    0.004285
   139  H   -0.019245
   140  H   -0.010154
 Sum of Mulliken charges =  -0.00000

 Dipole moment (field-independent basis, Debye):
    X=             -2.2562    Y=              2.5831    Z=              0.7132  Tot=              3.5030
 Quadrupole moment (field-independent basis, Debye-Ang):
   XX=           -393.9399   YY=           -386.4221   ZZ=           -402.8664
   XY=            -41.2374   XZ=            -12.3605   YZ=            -23.8004

 Normal termination of Gaussian 16 at Wed May  4 12:31:53 2022.
