 Gaussian 16, Revision A.03,
 Gaussian 16:  ES64L-G16RevA.03 25-Dec-2016

 -----------------------------------
 #p cam-b3lyp/Def2SVP td=(nstates=5)
 -----------------------------------

 --------------------------------------------------------
 step_1701_chromophore_11 TDDFT with cam-b3lyp functional
 --------------------------------------------------------
 Symbolic Z-matrix:
 Charge =  0 Multiplicity = 1

                         Standard orientation:
 ---------------------------------------------------------------------
 Center     Atomic      Atomic             Coordinates (Angstroms)
 Number     Number       Type             X           Y           Z
 ---------------------------------------------------------------------
      1         12           0       -4.665996    1.506545    0.599512
      2          6           0       -5.207497   -2.087627    0.147666
      3          6           0       -2.537080    0.719836    3.253251
      4          6           0       -3.699073    4.643611    0.594453
      5          6           0       -6.639369    1.978707   -2.232008
      6          7           0       -3.828676   -0.440168    1.372085
      7          6           0       -4.325816   -1.759787    1.177390
      8          6           0       -3.883077   -2.699198    2.352061
      9          6           0       -3.434672   -1.701337    3.427220
     10          6           0       -3.217398   -0.375266    2.642507
     11          6           0       -4.582274   -1.462432    4.519752
     12          6           0       -2.868867   -3.780277    1.942826
     13          6           0       -1.753139   -3.383784    0.951616
     14          6           0       -0.297147   -4.066324    1.156971
     15          8           0        0.448482   -3.959594    2.137050
     16          8           0        0.115498   -4.813271    0.075713
     17          7           0       -3.305119    2.542746    1.836931
     18          6           0       -2.475128    2.050284    2.779358
     19          6           0       -1.701192    3.183364    3.303925
     20          6           0       -1.822847    4.274008    2.419073
     21          6           0       -2.992266    3.863435    1.555619
     22          6           0       -0.710384    3.011675    4.435053
     23          6           0       -1.016731    5.569571    2.484496
     24          8           0        0.107516    5.608439    2.991325
     25          6           0       -1.421883    6.828533    1.759470
     26          7           0       -4.967406    3.021790   -0.783878
     27          6           0       -4.559136    4.307870   -0.434810
     28          6           0       -5.049607    5.309167   -1.603250
     29          6           0       -5.973801    4.410314   -2.530792
     30          6           0       -5.884870    3.058210   -1.874706
     31          6           0       -5.517421    6.709192   -1.202556
     32          6           0       -5.605291    4.432559   -4.034842
     33          6           0       -4.886555    3.174193   -4.520437
     34          7           0       -5.725558    0.296667   -0.746832
     35          6           0       -6.506320    0.619550   -1.817608
     36          6           0       -7.092720   -0.531719   -2.513290
     37          6           0       -6.639850   -1.633953   -1.645517
     38          6           0       -5.710230   -1.099779   -0.711141
     39          6           0       -8.030233   -0.490468   -3.700403
     40          6           0       -6.807408   -3.024394   -1.418813
     41          8           0       -7.401981   -3.878195   -2.081629
     42          6           0       -5.902721   -3.347394   -0.330642
     43          6           0       -4.996699   -4.333969   -0.940267
     44          8           0       -4.120373   -4.060156   -1.794683
     45          8           0       -5.209375   -5.581083   -0.427611
     46          6           0       -4.607568   -6.684131   -1.116785
     47          6           0        1.432864   -5.446965    0.163617
     48          6           0        2.442136   -4.578893   -0.553034
     49          6           0        3.519231   -3.941887    0.039646
     50          6           0        4.013084   -4.055928    1.454410
     51          6           0        4.486260   -3.171637   -0.839041
     52          6           0        5.008679   -1.767659   -0.438242
     53          6           0        6.518546   -1.608935   -0.686679
     54          6           0        6.813883   -0.089101   -1.127923
     55          6           0        7.459724   -0.000363   -2.517137
     56          6           0        7.464799    0.721423   -0.007699
     57          6           0        8.757092    0.043887    0.437095
     58          6           0        9.873340    1.063246    0.812518
     59          6           0       11.145859    0.445919    1.459413
     60          6           0       11.109073    0.522881    2.984197
     61          6           0       12.412600    1.162571    0.960603
     62          6           0       13.189923    0.422687   -0.194242
     63          6           0       13.448047    1.387554   -1.423839
     64          6           0       12.830353    0.819012   -2.804515
     65          6           0       13.938367    1.149642   -3.909881
     66          6           0       11.500849    1.450774   -3.108922
     67          1           0       -1.986712    0.623256    4.191587
     68          1           0       -3.417739    5.699210    0.559699
     69          1           0       -7.379090    2.224308   -2.996900
     70          1           0       -4.707892   -3.330731    2.681528
     71          1           0       -2.506616   -2.069907    3.864439
     72          1           0       -5.417475   -2.156896    4.431377
     73          1           0       -5.073965   -0.495505    4.417427
     74          1           0       -4.071033   -1.475080    5.482036
     75          1           0       -3.332794   -4.654341    1.484974
     76          1           0       -2.410519   -4.214723    2.830450
     77          1           0       -1.605722   -2.305801    1.027253
     78          1           0       -2.103620   -3.571205   -0.063193
     79          1           0       -0.423313    3.949796    4.909141
     80          1           0        0.274391    2.584001    4.251876
     81          1           0       -1.161012    2.509906    5.291466
     82          1           0       -0.804063    7.722338    1.853255
     83          1           0       -2.466962    6.914208    2.056074
     84          1           0       -1.367577    6.579135    0.700138
     85          1           0       -4.131470    5.505983   -2.156912
     86          1           0       -6.977958    4.806361   -2.382098
     87          1           0       -6.489283    6.923176   -1.647339
     88          1           0       -4.780360    7.394847   -1.619340
     89          1           0       -5.492692    6.879540   -0.126424
     90          1           0       -5.001869    5.284500   -4.351897
     91          1           0       -6.565712    4.383688   -4.547496
     92          1           0       -4.236025    3.517677   -5.325296
     93          1           0       -5.471899    2.370076   -4.966282
     94          1           0       -4.230918    2.776287   -3.746216
     95          1           0       -9.005987   -0.069803   -3.459550
     96          1           0       -8.268368   -1.450040   -4.160165
     97          1           0       -7.484499    0.112532   -4.427011
     98          1           0       -6.441901   -3.694315    0.551519
     99          1           0       -5.126173   -7.586970   -0.792775
    100          1           0       -3.548563   -6.801022   -0.890336
    101          1           0       -4.795237   -6.623580   -2.188702
    102          1           0        1.294101   -6.263731   -0.545184
    103          1           0        1.894676   -5.795690    1.086932
    104          1           0        2.464530   -4.601257   -1.643105
    105          1           0        3.922593   -3.197903    2.120043
    106          1           0        5.050353   -4.388286    1.410694
    107          1           0        3.451382   -4.825232    1.984029
    108          1           0        4.239138   -3.370372   -1.881672
    109          1           0        5.386435   -3.783365   -0.780276
    110          1           0        4.705855   -1.487881    0.570336
    111          1           0        4.361258   -1.263756   -1.156221
    112          1           0        6.878480   -2.301055   -1.447704
    113          1           0        6.993925   -1.821003    0.270245
    114          1           0        5.864190    0.422815   -1.286779
    115          1           0        6.598705    0.316155   -3.105070
    116          1           0        7.782524   -1.000339   -2.805047
    117          1           0        8.157699    0.836746   -2.544294
    118          1           0        6.714147    0.738205    0.782322
    119          1           0        7.621734    1.741814   -0.356564
    120          1           0        9.122937   -0.684802   -0.286490
    121          1           0        8.555671   -0.501883    1.358223
    122          1           0        9.346797    1.879238    1.308148
    123          1           0       10.172522    1.531286   -0.125180
    124          1           0       11.179345   -0.619181    1.229767
    125          1           0       10.107098    0.578361    3.407780
    126          1           0       11.605944    1.333079    3.518273
    127          1           0       11.530614   -0.421782    3.328076
    128          1           0       13.131947    1.055091    1.772808
    129          1           0       12.221970    2.207427    0.715955
    130          1           0       12.648238   -0.455021   -0.547599
    131          1           0       14.195144    0.123392    0.098192
    132          1           0       14.503955    1.649962   -1.487801
    133          1           0       12.901146    2.275358   -1.109100
    134          1           0       12.564325   -0.232274   -2.699988
    135          1           0       13.971078    0.270876   -4.555507
    136          1           0       14.928781    1.178658   -3.456398
    137          1           0       13.560755    2.089899   -4.311152
    138          1           0       10.752816    0.884286   -2.553845
    139          1           0       11.316590    1.318269   -4.174698
    140          1           0       11.521718    2.505290   -2.833131
 ---------------------------------------------------------------------

 SCF Done:  E(RCAM-B3LYP) =  -3007.11927611     A.U. after   17 cycles

 Excitation energies and oscillator strengths:

 Excited State   1:      Singlet-A      1.6263 eV  762.36 nm  f=0.3704  <S**2>=0.000
     245 -> 248        0.15890
     246 -> 247        0.69163
     245 <- 248        0.10478
 This state for optimization and/or second-order correction.
 Total Energy, E(TD-HF/TD-DFT) =  -3007.05950974
 Copying the excited state density for this state as the 1-particle RhoCI density.

 Excited State   2:      Singlet-A      2.2024 eV  562.94 nm  f=0.1092  <S**2>=0.000
     245 -> 247        0.64204
     246 -> 248       -0.27751

 Excited State   3:      Singlet-A      3.1550 eV  392.97 nm  f=0.0108  <S**2>=0.000
     243 -> 247        0.68153

 Excited State   4:      Singlet-A      3.3952 eV  365.17 nm  f=0.0392  <S**2>=0.000
     241 -> 247       -0.37897
     241 -> 249       -0.13513
     242 -> 247        0.47704
     246 -> 248       -0.25495

 Excited State   5:      Singlet-A      3.4624 eV  358.09 nm  f=0.0129  <S**2>=0.000
     239 -> 247       -0.11604
     240 -> 247        0.45481
     240 -> 249        0.28153
     240 -> 250        0.14606
     241 -> 247        0.20740
     241 -> 249        0.10206
     241 -> 250        0.11707
     241 -> 251       -0.10364
     242 -> 247        0.16102
     242 -> 249       -0.10583
     246 -> 248       -0.11624

 The electronic state is 1-A.
 Alpha  occ. eigenvalues --  -46.89250 -19.25385 -19.23868 -19.19505 -19.19183
 Alpha  occ. eigenvalues --  -19.18689 -19.17885 -14.43246 -14.42126 -14.40705
 Alpha  occ. eigenvalues --  -14.39407 -10.39659 -10.38927 -10.35986 -10.33548
 Alpha  occ. eigenvalues --  -10.32786 -10.32664 -10.32476 -10.31590 -10.31200
 Alpha  occ. eigenvalues --  -10.30996 -10.30937 -10.30634 -10.29605 -10.29506
 Alpha  occ. eigenvalues --  -10.28847 -10.28710 -10.28676 -10.28535 -10.28272
 Alpha  occ. eigenvalues --  -10.28242 -10.28202 -10.28132 -10.28084 -10.27986
 Alpha  occ. eigenvalues --  -10.27625 -10.26998 -10.26946 -10.26872 -10.26817
 Alpha  occ. eigenvalues --  -10.26791 -10.26721 -10.26694 -10.26328 -10.26082
 Alpha  occ. eigenvalues --  -10.26013 -10.25373 -10.25314 -10.25074 -10.24925
 Alpha  occ. eigenvalues --  -10.24905 -10.24887 -10.24840 -10.24793 -10.24713
 Alpha  occ. eigenvalues --  -10.24562 -10.24381 -10.24312 -10.24290 -10.24240
 Alpha  occ. eigenvalues --  -10.24177 -10.24163 -10.24127 -10.23971 -10.23956
 Alpha  occ. eigenvalues --  -10.23734  -3.17741  -1.92619  -1.92207  -1.92042
 Alpha  occ. eigenvalues --   -1.16391  -1.14757  -1.09931  -1.08985  -1.06648
 Alpha  occ. eigenvalues --   -1.05636  -1.04120  -1.02644  -1.01647  -1.00919
 Alpha  occ. eigenvalues --   -0.93976  -0.89913  -0.89727  -0.89127  -0.88972
 Alpha  occ. eigenvalues --   -0.88438  -0.88005  -0.87215  -0.86933  -0.86804
 Alpha  occ. eigenvalues --   -0.85777  -0.84781  -0.84131  -0.83942  -0.83292
 Alpha  occ. eigenvalues --   -0.82737  -0.82070  -0.81361  -0.81088  -0.80373
 Alpha  occ. eigenvalues --   -0.79636  -0.78216  -0.77801  -0.77325  -0.76710
 Alpha  occ. eigenvalues --   -0.75388  -0.75156  -0.75123  -0.74583  -0.73272
 Alpha  occ. eigenvalues --   -0.72926  -0.72273  -0.71669  -0.70212  -0.69502
 Alpha  occ. eigenvalues --   -0.68802  -0.67939  -0.67911  -0.66333  -0.65130
 Alpha  occ. eigenvalues --   -0.65060  -0.64989  -0.64560  -0.64315  -0.63558
 Alpha  occ. eigenvalues --   -0.62395  -0.62131  -0.62034  -0.60592  -0.60524
 Alpha  occ. eigenvalues --   -0.59683  -0.59344  -0.59142  -0.58710  -0.58484
 Alpha  occ. eigenvalues --   -0.57383  -0.56618  -0.56264  -0.56012  -0.55383
 Alpha  occ. eigenvalues --   -0.55172  -0.54433  -0.54267  -0.54045  -0.53731
 Alpha  occ. eigenvalues --   -0.53543  -0.53244  -0.53115  -0.53015  -0.52762
 Alpha  occ. eigenvalues --   -0.52556  -0.52420  -0.52230  -0.52002  -0.51792
 Alpha  occ. eigenvalues --   -0.51521  -0.51039  -0.50795  -0.50663  -0.50625
 Alpha  occ. eigenvalues --   -0.50309  -0.50072  -0.49829  -0.49722  -0.49214
 Alpha  occ. eigenvalues --   -0.49083  -0.48986  -0.48901  -0.48800  -0.48621
 Alpha  occ. eigenvalues --   -0.48530  -0.47975  -0.47871  -0.47696  -0.47189
 Alpha  occ. eigenvalues --   -0.47092  -0.46679  -0.46595  -0.46414  -0.46353
 Alpha  occ. eigenvalues --   -0.46165  -0.46125  -0.45975  -0.45688  -0.45516
 Alpha  occ. eigenvalues --   -0.45445  -0.45139  -0.44992  -0.44736  -0.44659
 Alpha  occ. eigenvalues --   -0.44459  -0.44265  -0.44071  -0.43914  -0.43687
 Alpha  occ. eigenvalues --   -0.43516  -0.43438  -0.43019  -0.42897  -0.42682
 Alpha  occ. eigenvalues --   -0.42463  -0.41988  -0.41849  -0.41794  -0.41765
 Alpha  occ. eigenvalues --   -0.41284  -0.41245  -0.41156  -0.41050  -0.40741
 Alpha  occ. eigenvalues --   -0.40476  -0.40466  -0.39896  -0.39780  -0.39524
 Alpha  occ. eigenvalues --   -0.39359  -0.39234  -0.38945  -0.38867  -0.38779
 Alpha  occ. eigenvalues --   -0.38081  -0.37951  -0.37809  -0.37719  -0.37553
 Alpha  occ. eigenvalues --   -0.37233  -0.37081  -0.36793  -0.36254  -0.35964
 Alpha  occ. eigenvalues --   -0.35396  -0.34749  -0.34515  -0.34135  -0.33677
 Alpha  occ. eigenvalues --   -0.33042  -0.32919  -0.32836  -0.32037  -0.31246
 Alpha  occ. eigenvalues --   -0.30987  -0.30745  -0.28791  -0.28575  -0.24766
 Alpha  occ. eigenvalues --   -0.21459
 Alpha virt. eigenvalues --   -0.09440  -0.01988  -0.00403   0.01517   0.01648
 Alpha virt. eigenvalues --    0.04379   0.05086   0.05138   0.06171   0.06628
 Alpha virt. eigenvalues --    0.08116   0.08270   0.08571   0.08653   0.09078

 Mulliken charges:
               1
     1  Mg   0.816315
     2  C   -0.054715
     3  C   -0.048579
     4  C   -0.083120
     5  C   -0.061124
     6  N   -0.297212
     7  C   -0.047894
     8  C   -0.001209
     9  C   -0.047798
    10  C    0.079600
    11  C    0.063387
    12  C    0.019552
    13  C    0.031971
    14  C    0.174193
    15  O   -0.259083
    16  O   -0.323461
    17  N   -0.369599
    18  C    0.103473
    19  C   -0.114853
    20  C   -0.026959
    21  C    0.167003
    22  C    0.092155
    23  C   -0.002461
    24  O   -0.214844
    25  C    0.063677
    26  N   -0.373590
    27  C    0.076845
    28  C   -0.066987
    29  C    0.024748
    30  C    0.006420
    31  C    0.075783
    32  C    0.038295
    33  C    0.001736
    34  N   -0.337892
    35  C    0.112115
    36  C   -0.146342
    37  C   -0.017276
    38  C    0.131876
    39  C    0.114018
    40  C   -0.012227
    41  O   -0.194035
    42  C    0.133960
    43  C    0.202610
    44  O   -0.248435
    45  O   -0.310418
    46  C    0.182982
    47  C    0.334508
    48  C   -0.166334
    49  C   -0.133370
    50  C    0.089505
    51  C    0.032044
    52  C    0.027676
    53  C    0.035761
    54  C   -0.174372
    55  C    0.080219
    56  C    0.077218
    57  C   -0.018611
    58  C    0.045999
    59  C   -0.088092
    60  C    0.038694
    61  C    0.051094
    62  C    0.006630
    63  C    0.016128
    64  C   -0.181462
    65  C    0.045410
    66  C    0.046933
    67  H   -0.010757
    68  H   -0.051784
    69  H   -0.034218
    70  H    0.002078
    71  H    0.021457
    72  H    0.021687
    73  H    0.018067
    74  H    0.029989
    75  H    0.012735
    76  H    0.014656
    77  H    0.039860
    78  H    0.041398
    79  H    0.016622
    80  H    0.047216
    81  H    0.007553
    82  H    0.036028
    83  H    0.035428
    84  H    0.043188
    85  H    0.017971
    86  H    0.006284
    87  H    0.020257
    88  H    0.008268
    89  H    0.023566
    90  H    0.016281
    91  H    0.005101
    92  H    0.001458
    93  H    0.022197
    94  H    0.031154
    95  H    0.030476
    96  H    0.032539
    97  H    0.022168
    98  H    0.032976
    99  H    0.027998
   100  H    0.037547
   101  H    0.043999
   102  H   -0.003716
   103  H    0.030380
   104  H   -0.003945
   105  H    0.034895
   106  H    0.014537
   107  H   -0.000981
   108  H   -0.012643
   109  H   -0.009580
   110  H    0.008595
   111  H    0.013070
   112  H    0.004072
   113  H    0.007406
   114  H   -0.009346
   115  H    0.002089
   116  H    0.009710
   117  H    0.011825
   118  H   -0.009279
   119  H   -0.006614
   120  H    0.003324
   121  H   -0.002942
   122  H   -0.005540
   123  H   -0.022747
   124  H   -0.006867
   125  H   -0.006054
   126  H    0.009173
   127  H    0.000905
   128  H   -0.009333
   129  H    0.010738
   130  H   -0.003304
   131  H    0.000109
   132  H   -0.000036
   133  H   -0.015358
   134  H   -0.000134
   135  H    0.009564
   136  H    0.009656
   137  H    0.019527
   138  H    0.020774
   139  H    0.006638
   140  H    0.011813
 Sum of Mulliken charges =  -0.00000

 Dipole moment (field-independent basis, Debye):
    X=             -1.8608    Y=              3.4512    Z=              1.6155  Tot=              4.2406
 Quadrupole moment (field-independent basis, Debye-Ang):
   XX=           -399.3101   YY=           -380.5126   ZZ=           -400.7813
   XY=            -43.9052   XZ=            -15.2108   YZ=            -23.3773

 Normal termination of Gaussian 16 at Wed May  4 11:29:06 2022.
