 Gaussian 16, Revision A.03,
 Gaussian 16:  ES64L-G16RevA.03 25-Dec-2016

 ---------------------------------
 #p PBE1PBE/Def2SVP td=(nstates=5)
 ---------------------------------

 ------------------------------------------------------
 step_1701_chromophore_11 TDDFT with PBE1PBE functional
 ------------------------------------------------------
 Symbolic Z-matrix:
 Charge =  0 Multiplicity = 1

                         Standard orientation:
 ---------------------------------------------------------------------
 Center     Atomic      Atomic             Coordinates (Angstroms)
 Number     Number       Type             X           Y           Z
 ---------------------------------------------------------------------
      1         12           0       -4.665996    1.506545    0.599512
      2          6           0       -5.207497   -2.087627    0.147666
      3          6           0       -2.537080    0.719836    3.253251
      4          6           0       -3.699073    4.643611    0.594453
      5          6           0       -6.639369    1.978707   -2.232008
      6          7           0       -3.828676   -0.440168    1.372085
      7          6           0       -4.325816   -1.759787    1.177390
      8          6           0       -3.883077   -2.699198    2.352061
      9          6           0       -3.434672   -1.701337    3.427220
     10          6           0       -3.217398   -0.375266    2.642507
     11          6           0       -4.582274   -1.462432    4.519752
     12          6           0       -2.868867   -3.780277    1.942826
     13          6           0       -1.753139   -3.383784    0.951616
     14          6           0       -0.297147   -4.066324    1.156971
     15          8           0        0.448482   -3.959594    2.137050
     16          8           0        0.115498   -4.813271    0.075713
     17          7           0       -3.305119    2.542746    1.836931
     18          6           0       -2.475128    2.050284    2.779358
     19          6           0       -1.701192    3.183364    3.303925
     20          6           0       -1.822847    4.274008    2.419073
     21          6           0       -2.992266    3.863435    1.555619
     22          6           0       -0.710384    3.011675    4.435053
     23          6           0       -1.016731    5.569571    2.484496
     24          8           0        0.107516    5.608439    2.991325
     25          6           0       -1.421883    6.828533    1.759470
     26          7           0       -4.967406    3.021790   -0.783878
     27          6           0       -4.559136    4.307870   -0.434810
     28          6           0       -5.049607    5.309167   -1.603250
     29          6           0       -5.973801    4.410314   -2.530792
     30          6           0       -5.884870    3.058210   -1.874706
     31          6           0       -5.517421    6.709192   -1.202556
     32          6           0       -5.605291    4.432559   -4.034842
     33          6           0       -4.886555    3.174193   -4.520437
     34          7           0       -5.725558    0.296667   -0.746832
     35          6           0       -6.506320    0.619550   -1.817608
     36          6           0       -7.092720   -0.531719   -2.513290
     37          6           0       -6.639850   -1.633953   -1.645517
     38          6           0       -5.710230   -1.099779   -0.711141
     39          6           0       -8.030233   -0.490468   -3.700403
     40          6           0       -6.807408   -3.024394   -1.418813
     41          8           0       -7.401981   -3.878195   -2.081629
     42          6           0       -5.902721   -3.347394   -0.330642
     43          6           0       -4.996699   -4.333969   -0.940267
     44          8           0       -4.120373   -4.060156   -1.794683
     45          8           0       -5.209375   -5.581083   -0.427611
     46          6           0       -4.607568   -6.684131   -1.116785
     47          6           0        1.432864   -5.446965    0.163617
     48          6           0        2.442136   -4.578893   -0.553034
     49          6           0        3.519231   -3.941887    0.039646
     50          6           0        4.013084   -4.055928    1.454410
     51          6           0        4.486260   -3.171637   -0.839041
     52          6           0        5.008679   -1.767659   -0.438242
     53          6           0        6.518546   -1.608935   -0.686679
     54          6           0        6.813883   -0.089101   -1.127923
     55          6           0        7.459724   -0.000363   -2.517137
     56          6           0        7.464799    0.721423   -0.007699
     57          6           0        8.757092    0.043887    0.437095
     58          6           0        9.873340    1.063246    0.812518
     59          6           0       11.145859    0.445919    1.459413
     60          6           0       11.109073    0.522881    2.984197
     61          6           0       12.412600    1.162571    0.960603
     62          6           0       13.189923    0.422687   -0.194242
     63          6           0       13.448047    1.387554   -1.423839
     64          6           0       12.830353    0.819012   -2.804515
     65          6           0       13.938367    1.149642   -3.909881
     66          6           0       11.500849    1.450774   -3.108922
     67          1           0       -1.986712    0.623256    4.191587
     68          1           0       -3.417739    5.699210    0.559699
     69          1           0       -7.379090    2.224308   -2.996900
     70          1           0       -4.707892   -3.330731    2.681528
     71          1           0       -2.506616   -2.069907    3.864439
     72          1           0       -5.417475   -2.156896    4.431377
     73          1           0       -5.073965   -0.495505    4.417427
     74          1           0       -4.071033   -1.475080    5.482036
     75          1           0       -3.332794   -4.654341    1.484974
     76          1           0       -2.410519   -4.214723    2.830450
     77          1           0       -1.605722   -2.305801    1.027253
     78          1           0       -2.103620   -3.571205   -0.063193
     79          1           0       -0.423313    3.949796    4.909141
     80          1           0        0.274391    2.584001    4.251876
     81          1           0       -1.161012    2.509906    5.291466
     82          1           0       -0.804063    7.722338    1.853255
     83          1           0       -2.466962    6.914208    2.056074
     84          1           0       -1.367577    6.579135    0.700138
     85          1           0       -4.131470    5.505983   -2.156912
     86          1           0       -6.977958    4.806361   -2.382098
     87          1           0       -6.489283    6.923176   -1.647339
     88          1           0       -4.780360    7.394847   -1.619340
     89          1           0       -5.492692    6.879540   -0.126424
     90          1           0       -5.001869    5.284500   -4.351897
     91          1           0       -6.565712    4.383688   -4.547496
     92          1           0       -4.236025    3.517677   -5.325296
     93          1           0       -5.471899    2.370076   -4.966282
     94          1           0       -4.230918    2.776287   -3.746216
     95          1           0       -9.005987   -0.069803   -3.459550
     96          1           0       -8.268368   -1.450040   -4.160165
     97          1           0       -7.484499    0.112532   -4.427011
     98          1           0       -6.441901   -3.694315    0.551519
     99          1           0       -5.126173   -7.586970   -0.792775
    100          1           0       -3.548563   -6.801022   -0.890336
    101          1           0       -4.795237   -6.623580   -2.188702
    102          1           0        1.294101   -6.263731   -0.545184
    103          1           0        1.894676   -5.795690    1.086932
    104          1           0        2.464530   -4.601257   -1.643105
    105          1           0        3.922593   -3.197903    2.120043
    106          1           0        5.050353   -4.388286    1.410694
    107          1           0        3.451382   -4.825232    1.984029
    108          1           0        4.239138   -3.370372   -1.881672
    109          1           0        5.386435   -3.783365   -0.780276
    110          1           0        4.705855   -1.487881    0.570336
    111          1           0        4.361258   -1.263756   -1.156221
    112          1           0        6.878480   -2.301055   -1.447704
    113          1           0        6.993925   -1.821003    0.270245
    114          1           0        5.864190    0.422815   -1.286779
    115          1           0        6.598705    0.316155   -3.105070
    116          1           0        7.782524   -1.000339   -2.805047
    117          1           0        8.157699    0.836746   -2.544294
    118          1           0        6.714147    0.738205    0.782322
    119          1           0        7.621734    1.741814   -0.356564
    120          1           0        9.122937   -0.684802   -0.286490
    121          1           0        8.555671   -0.501883    1.358223
    122          1           0        9.346797    1.879238    1.308148
    123          1           0       10.172522    1.531286   -0.125180
    124          1           0       11.179345   -0.619181    1.229767
    125          1           0       10.107098    0.578361    3.407780
    126          1           0       11.605944    1.333079    3.518273
    127          1           0       11.530614   -0.421782    3.328076
    128          1           0       13.131947    1.055091    1.772808
    129          1           0       12.221970    2.207427    0.715955
    130          1           0       12.648238   -0.455021   -0.547599
    131          1           0       14.195144    0.123392    0.098192
    132          1           0       14.503955    1.649962   -1.487801
    133          1           0       12.901146    2.275358   -1.109100
    134          1           0       12.564325   -0.232274   -2.699988
    135          1           0       13.971078    0.270876   -4.555507
    136          1           0       14.928781    1.178658   -3.456398
    137          1           0       13.560755    2.089899   -4.311152
    138          1           0       10.752816    0.884286   -2.553845
    139          1           0       11.316590    1.318269   -4.174698
    140          1           0       11.521718    2.505290   -2.833131
 ---------------------------------------------------------------------

 SCF Done:  E(RPBE1PBE) =  -3005.30893696     A.U. after   16 cycles

 Excitation energies and oscillator strengths:

 Excited State   1:      Singlet-A      1.7634 eV  703.08 nm  f=0.3600  <S**2>=0.000
     245 -> 248        0.15695
     246 -> 247        0.69967
     246 <- 247       -0.12127
 This state for optimization and/or second-order correction.
 Total Energy, E(TD-HF/TD-DFT) =  -3005.24413188
 Copying the excited state density for this state as the 1-particle RhoCI density.

 Excited State   2:      Singlet-A      2.2017 eV  563.12 nm  f=0.1050  <S**2>=0.000
     245 -> 247        0.65292
     246 -> 248       -0.25595

 Excited State   3:      Singlet-A      2.7444 eV  451.77 nm  f=0.0084  <S**2>=0.000
     241 -> 247       -0.12260
     243 -> 247        0.67968

 Excited State   4:      Singlet-A      2.9035 eV  427.01 nm  f=0.0000  <S**2>=0.000
     242 -> 247        0.66626
     242 -> 249        0.15753
     242 -> 250       -0.10454

 Excited State   5:      Singlet-A      2.9050 eV  426.80 nm  f=0.0000  <S**2>=0.000
     244 -> 247        0.69966

 The electronic state is 1-A.
 Alpha  occ. eigenvalues --  -46.92628 -19.26088 -19.24587 -19.19847 -19.19166
 Alpha  occ. eigenvalues --  -19.18971 -19.18357 -14.42716 -14.41736 -14.40143
 Alpha  occ. eigenvalues --  -14.39256 -10.36770 -10.36000 -10.32915 -10.30851
 Alpha  occ. eigenvalues --  -10.30293 -10.29951 -10.29916 -10.29597 -10.28628
 Alpha  occ. eigenvalues --  -10.28461 -10.28350 -10.28253 -10.27602 -10.26828
 Alpha  occ. eigenvalues --  -10.26569 -10.26462 -10.26396 -10.26297 -10.26206
 Alpha  occ. eigenvalues --  -10.26089 -10.26077 -10.25958 -10.25675 -10.25632
 Alpha  occ. eigenvalues --  -10.25189 -10.24529 -10.24496 -10.24473 -10.24372
 Alpha  occ. eigenvalues --  -10.24322 -10.24139 -10.24117 -10.23922 -10.23781
 Alpha  occ. eigenvalues --  -10.23170 -10.23055 -10.22979 -10.22857 -10.22675
 Alpha  occ. eigenvalues --  -10.22494 -10.22435 -10.22428 -10.22389 -10.22288
 Alpha  occ. eigenvalues --  -10.22156 -10.21933 -10.21856 -10.21768 -10.21751
 Alpha  occ. eigenvalues --  -10.21712 -10.21711 -10.21649 -10.21343 -10.21325
 Alpha  occ. eigenvalues --  -10.21103  -3.14700  -1.87518  -1.87086  -1.86923
 Alpha  occ. eigenvalues --   -1.11241  -1.09582  -1.04432  -1.03902  -1.01526
 Alpha  occ. eigenvalues --   -1.00501  -0.98468  -0.97462  -0.96167  -0.95553
 Alpha  occ. eigenvalues --   -0.88531  -0.84006  -0.83997  -0.83316  -0.83108
 Alpha  occ. eigenvalues --   -0.82666  -0.82104  -0.81460  -0.80926  -0.80894
 Alpha  occ. eigenvalues --   -0.80192  -0.79112  -0.78389  -0.78242  -0.77477
 Alpha  occ. eigenvalues --   -0.76777  -0.76219  -0.75741  -0.75415  -0.74588
 Alpha  occ. eigenvalues --   -0.73815  -0.72540  -0.72013  -0.71511  -0.71104
 Alpha  occ. eigenvalues --   -0.69551  -0.69419  -0.69217  -0.68718  -0.67473
 Alpha  occ. eigenvalues --   -0.67386  -0.66598  -0.66056  -0.64476  -0.63906
 Alpha  occ. eigenvalues --   -0.63315  -0.62220  -0.62064  -0.60617  -0.59596
 Alpha  occ. eigenvalues --   -0.59577  -0.59255  -0.59002  -0.58816  -0.57644
 Alpha  occ. eigenvalues --   -0.57056  -0.56553  -0.56298  -0.55076  -0.54779
 Alpha  occ. eigenvalues --   -0.54174  -0.53841  -0.53659  -0.53254  -0.52932
 Alpha  occ. eigenvalues --   -0.51928  -0.51021  -0.50816  -0.50543  -0.49981
 Alpha  occ. eigenvalues --   -0.49744  -0.48951  -0.48821  -0.48430  -0.48120
 Alpha  occ. eigenvalues --   -0.48099  -0.47844  -0.47582  -0.47432  -0.47126
 Alpha  occ. eigenvalues --   -0.46962  -0.46912  -0.46762  -0.46592  -0.46312
 Alpha  occ. eigenvalues --   -0.46107  -0.45747  -0.45422  -0.45161  -0.45010
 Alpha  occ. eigenvalues --   -0.44917  -0.44607  -0.44372  -0.44279  -0.43813
 Alpha  occ. eigenvalues --   -0.43793  -0.43626  -0.43516  -0.43422  -0.43224
 Alpha  occ. eigenvalues --   -0.43057  -0.42540  -0.42409  -0.42232  -0.41772
 Alpha  occ. eigenvalues --   -0.41699  -0.41428  -0.41315  -0.41169  -0.40971
 Alpha  occ. eigenvalues --   -0.40894  -0.40696  -0.40511  -0.40378  -0.40174
 Alpha  occ. eigenvalues --   -0.40068  -0.40000  -0.39818  -0.39498  -0.39381
 Alpha  occ. eigenvalues --   -0.39157  -0.38969  -0.38811  -0.38659  -0.38426
 Alpha  occ. eigenvalues --   -0.38188  -0.38112  -0.37944  -0.37610  -0.37439
 Alpha  occ. eigenvalues --   -0.37310  -0.36853  -0.36619  -0.36528  -0.36389
 Alpha  occ. eigenvalues --   -0.36181  -0.36058  -0.35935  -0.35846  -0.35608
 Alpha  occ. eigenvalues --   -0.35421  -0.35290  -0.34792  -0.34635  -0.34386
 Alpha  occ. eigenvalues --   -0.34227  -0.34004  -0.33783  -0.33727  -0.33682
 Alpha  occ. eigenvalues --   -0.33055  -0.32735  -0.32587  -0.32509  -0.32382
 Alpha  occ. eigenvalues --   -0.32158  -0.31987  -0.31829  -0.31268  -0.30833
 Alpha  occ. eigenvalues --   -0.30240  -0.29992  -0.29489  -0.29001  -0.28648
 Alpha  occ. eigenvalues --   -0.28638  -0.27811  -0.27710  -0.27563  -0.26363
 Alpha  occ. eigenvalues --   -0.25862  -0.25635  -0.24682  -0.23948  -0.21596
 Alpha  occ. eigenvalues --   -0.19065
 Alpha virt. eigenvalues --   -0.11881  -0.05506  -0.04595  -0.02804  -0.01184
 Alpha virt. eigenvalues --   -0.00038   0.00334   0.00695   0.01572   0.02772
 Alpha virt. eigenvalues --    0.04318   0.04327   0.04959   0.05378   0.05564

 Mulliken charges:
               1
     1  Mg   0.963146
     2  C   -0.071302
     3  C   -0.037312
     4  C   -0.083881
     5  C   -0.053932
     6  N   -0.389145
     7  C    0.023047
     8  C   -0.059950
     9  C   -0.127298
    10  C    0.096454
    11  C    0.010963
    12  C   -0.029945
    13  C   -0.048015
    14  C    0.242494
    15  O   -0.289822
    16  O   -0.353367
    17  N   -0.479608
    18  C    0.127823
    19  C   -0.143158
    20  C   -0.071264
    21  C    0.190804
    22  C    0.037149
    23  C    0.041507
    24  O   -0.248447
    25  C   -0.013128
    26  N   -0.470273
    27  C    0.109407
    28  C   -0.133298
    29  C   -0.046635
    30  C    0.033889
    31  C    0.014721
    32  C   -0.025165
    33  C   -0.074170
    34  N   -0.455937
    35  C    0.132302
    36  C   -0.145404
    37  C   -0.060252
    38  C    0.186906
    39  C    0.057264
    40  C    0.068437
    41  O   -0.238785
    42  C    0.016138
    43  C    0.293535
    44  O   -0.281184
    45  O   -0.344478
    46  C    0.128283
    47  C    0.277917
    48  C   -0.176337
    49  C   -0.164909
    50  C    0.027441
    51  C   -0.034265
    52  C   -0.031654
    53  C   -0.023078
    54  C   -0.256873
    55  C    0.017759
    56  C    0.018047
    57  C   -0.082702
    58  C   -0.007102
    59  C   -0.176732
    60  C   -0.018878
    61  C   -0.010966
    62  C   -0.048431
    63  C   -0.037404
    64  C   -0.266670
    65  C   -0.021547
    66  C   -0.020426
    67  H    0.019206
    68  H   -0.016813
    69  H   -0.001730
    70  H    0.039471
    71  H    0.055360
    72  H    0.047105
    73  H    0.046042
    74  H    0.056871
    75  H    0.048189
    76  H    0.047398
    77  H    0.076292
    78  H    0.075694
    79  H    0.043292
    80  H    0.071962
    81  H    0.033128
    82  H    0.062509
    83  H    0.061442
    84  H    0.069558
    85  H    0.056376
    86  H    0.044381
    87  H    0.046884
    88  H    0.035401
    89  H    0.050438
    90  H    0.047993
    91  H    0.038381
    92  H    0.031723
    93  H    0.049865
    94  H    0.062923
    95  H    0.059142
    96  H    0.061365
    97  H    0.051376
    98  H    0.070147
    99  H    0.050371
   100  H    0.059190
   101  H    0.065416
   102  H    0.026199
   103  H    0.057247
   104  H    0.025113
   105  H    0.060929
   106  H    0.041582
   107  H    0.027656
   108  H    0.018543
   109  H    0.026488
   110  H    0.040635
   111  H    0.046811
   112  H    0.035026
   113  H    0.041344
   114  H    0.029300
   115  H    0.030858
   116  H    0.035838
   117  H    0.040667
   118  H    0.025557
   119  H    0.025251
   120  H    0.035989
   121  H    0.031026
   122  H    0.026581
   123  H    0.015318
   124  H    0.029661
   125  H    0.021739
   126  H    0.035778
   127  H    0.029243
   128  H    0.025784
   129  H    0.040642
   130  H    0.028053
   131  H    0.032927
   132  H    0.030720
   133  H    0.018055
   134  H    0.035882
   135  H    0.037844
   136  H    0.037141
   137  H    0.047039
   138  H    0.052783
   139  H    0.035801
   140  H    0.038298
 Sum of Mulliken charges =  -0.00000

 Dipole moment (field-independent basis, Debye):
    X=             -2.2461    Y=              3.0792    Z=              1.1110  Tot=              3.9700
 Quadrupole moment (field-independent basis, Debye-Ang):
   XX=           -392.4049   YY=           -378.0811   ZZ=           -397.1667
   XY=            -43.5174   XZ=            -12.2977   YZ=            -25.0448

 Normal termination of Gaussian 16 at Wed May  4 11:48:09 2022.
