 Gaussian 16, Revision A.03,
 Gaussian 16:  ES64L-G16RevA.03 25-Dec-2016

 --------------------------------
 #p wB97XD/Def2SVP td=(nstates=5)
 --------------------------------

 -----------------------------------------------------
 step_1701_chromophore_11 TDDFT with wB97XD functional
 -----------------------------------------------------
 Symbolic Z-matrix:
 Charge =  0 Multiplicity = 1

                         Standard orientation:
 ---------------------------------------------------------------------
 Center     Atomic      Atomic             Coordinates (Angstroms)
 Number     Number       Type             X           Y           Z
 ---------------------------------------------------------------------
      1         12           0       -4.665996    1.506545    0.599512
      2          6           0       -5.207497   -2.087627    0.147666
      3          6           0       -2.537080    0.719836    3.253251
      4          6           0       -3.699073    4.643611    0.594453
      5          6           0       -6.639369    1.978707   -2.232008
      6          7           0       -3.828676   -0.440168    1.372085
      7          6           0       -4.325816   -1.759787    1.177390
      8          6           0       -3.883077   -2.699198    2.352061
      9          6           0       -3.434672   -1.701337    3.427220
     10          6           0       -3.217398   -0.375266    2.642507
     11          6           0       -4.582274   -1.462432    4.519752
     12          6           0       -2.868867   -3.780277    1.942826
     13          6           0       -1.753139   -3.383784    0.951616
     14          6           0       -0.297147   -4.066324    1.156971
     15          8           0        0.448482   -3.959594    2.137050
     16          8           0        0.115498   -4.813271    0.075713
     17          7           0       -3.305119    2.542746    1.836931
     18          6           0       -2.475128    2.050284    2.779358
     19          6           0       -1.701192    3.183364    3.303925
     20          6           0       -1.822847    4.274008    2.419073
     21          6           0       -2.992266    3.863435    1.555619
     22          6           0       -0.710384    3.011675    4.435053
     23          6           0       -1.016731    5.569571    2.484496
     24          8           0        0.107516    5.608439    2.991325
     25          6           0       -1.421883    6.828533    1.759470
     26          7           0       -4.967406    3.021790   -0.783878
     27          6           0       -4.559136    4.307870   -0.434810
     28          6           0       -5.049607    5.309167   -1.603250
     29          6           0       -5.973801    4.410314   -2.530792
     30          6           0       -5.884870    3.058210   -1.874706
     31          6           0       -5.517421    6.709192   -1.202556
     32          6           0       -5.605291    4.432559   -4.034842
     33          6           0       -4.886555    3.174193   -4.520437
     34          7           0       -5.725558    0.296667   -0.746832
     35          6           0       -6.506320    0.619550   -1.817608
     36          6           0       -7.092720   -0.531719   -2.513290
     37          6           0       -6.639850   -1.633953   -1.645517
     38          6           0       -5.710230   -1.099779   -0.711141
     39          6           0       -8.030233   -0.490468   -3.700403
     40          6           0       -6.807408   -3.024394   -1.418813
     41          8           0       -7.401981   -3.878195   -2.081629
     42          6           0       -5.902721   -3.347394   -0.330642
     43          6           0       -4.996699   -4.333969   -0.940267
     44          8           0       -4.120373   -4.060156   -1.794683
     45          8           0       -5.209375   -5.581083   -0.427611
     46          6           0       -4.607568   -6.684131   -1.116785
     47          6           0        1.432864   -5.446965    0.163617
     48          6           0        2.442136   -4.578893   -0.553034
     49          6           0        3.519231   -3.941887    0.039646
     50          6           0        4.013084   -4.055928    1.454410
     51          6           0        4.486260   -3.171637   -0.839041
     52          6           0        5.008679   -1.767659   -0.438242
     53          6           0        6.518546   -1.608935   -0.686679
     54          6           0        6.813883   -0.089101   -1.127923
     55          6           0        7.459724   -0.000363   -2.517137
     56          6           0        7.464799    0.721423   -0.007699
     57          6           0        8.757092    0.043887    0.437095
     58          6           0        9.873340    1.063246    0.812518
     59          6           0       11.145859    0.445919    1.459413
     60          6           0       11.109073    0.522881    2.984197
     61          6           0       12.412600    1.162571    0.960603
     62          6           0       13.189923    0.422687   -0.194242
     63          6           0       13.448047    1.387554   -1.423839
     64          6           0       12.830353    0.819012   -2.804515
     65          6           0       13.938367    1.149642   -3.909881
     66          6           0       11.500849    1.450774   -3.108922
     67          1           0       -1.986712    0.623256    4.191587
     68          1           0       -3.417739    5.699210    0.559699
     69          1           0       -7.379090    2.224308   -2.996900
     70          1           0       -4.707892   -3.330731    2.681528
     71          1           0       -2.506616   -2.069907    3.864439
     72          1           0       -5.417475   -2.156896    4.431377
     73          1           0       -5.073965   -0.495505    4.417427
     74          1           0       -4.071033   -1.475080    5.482036
     75          1           0       -3.332794   -4.654341    1.484974
     76          1           0       -2.410519   -4.214723    2.830450
     77          1           0       -1.605722   -2.305801    1.027253
     78          1           0       -2.103620   -3.571205   -0.063193
     79          1           0       -0.423313    3.949796    4.909141
     80          1           0        0.274391    2.584001    4.251876
     81          1           0       -1.161012    2.509906    5.291466
     82          1           0       -0.804063    7.722338    1.853255
     83          1           0       -2.466962    6.914208    2.056074
     84          1           0       -1.367577    6.579135    0.700138
     85          1           0       -4.131470    5.505983   -2.156912
     86          1           0       -6.977958    4.806361   -2.382098
     87          1           0       -6.489283    6.923176   -1.647339
     88          1           0       -4.780360    7.394847   -1.619340
     89          1           0       -5.492692    6.879540   -0.126424
     90          1           0       -5.001869    5.284500   -4.351897
     91          1           0       -6.565712    4.383688   -4.547496
     92          1           0       -4.236025    3.517677   -5.325296
     93          1           0       -5.471899    2.370076   -4.966282
     94          1           0       -4.230918    2.776287   -3.746216
     95          1           0       -9.005987   -0.069803   -3.459550
     96          1           0       -8.268368   -1.450040   -4.160165
     97          1           0       -7.484499    0.112532   -4.427011
     98          1           0       -6.441901   -3.694315    0.551519
     99          1           0       -5.126173   -7.586970   -0.792775
    100          1           0       -3.548563   -6.801022   -0.890336
    101          1           0       -4.795237   -6.623580   -2.188702
    102          1           0        1.294101   -6.263731   -0.545184
    103          1           0        1.894676   -5.795690    1.086932
    104          1           0        2.464530   -4.601257   -1.643105
    105          1           0        3.922593   -3.197903    2.120043
    106          1           0        5.050353   -4.388286    1.410694
    107          1           0        3.451382   -4.825232    1.984029
    108          1           0        4.239138   -3.370372   -1.881672
    109          1           0        5.386435   -3.783365   -0.780276
    110          1           0        4.705855   -1.487881    0.570336
    111          1           0        4.361258   -1.263756   -1.156221
    112          1           0        6.878480   -2.301055   -1.447704
    113          1           0        6.993925   -1.821003    0.270245
    114          1           0        5.864190    0.422815   -1.286779
    115          1           0        6.598705    0.316155   -3.105070
    116          1           0        7.782524   -1.000339   -2.805047
    117          1           0        8.157699    0.836746   -2.544294
    118          1           0        6.714147    0.738205    0.782322
    119          1           0        7.621734    1.741814   -0.356564
    120          1           0        9.122937   -0.684802   -0.286490
    121          1           0        8.555671   -0.501883    1.358223
    122          1           0        9.346797    1.879238    1.308148
    123          1           0       10.172522    1.531286   -0.125180
    124          1           0       11.179345   -0.619181    1.229767
    125          1           0       10.107098    0.578361    3.407780
    126          1           0       11.605944    1.333079    3.518273
    127          1           0       11.530614   -0.421782    3.328076
    128          1           0       13.131947    1.055091    1.772808
    129          1           0       12.221970    2.207427    0.715955
    130          1           0       12.648238   -0.455021   -0.547599
    131          1           0       14.195144    0.123392    0.098192
    132          1           0       14.503955    1.649962   -1.487801
    133          1           0       12.901146    2.275358   -1.109100
    134          1           0       12.564325   -0.232274   -2.699988
    135          1           0       13.971078    0.270876   -4.555507
    136          1           0       14.928781    1.178658   -3.456398
    137          1           0       13.560755    2.089899   -4.311152
    138          1           0       10.752816    0.884286   -2.553845
    139          1           0       11.316590    1.318269   -4.174698
    140          1           0       11.521718    2.505290   -2.833131
 ---------------------------------------------------------------------

 SCF Done:  E(RwB97XD) =  -3007.82035605     A.U. after   18 cycles

 Excitation energies and oscillator strengths:

 Excited State   1:      Singlet-A      1.5835 eV  782.97 nm  f=0.3701  <S**2>=0.000
     245 -> 248        0.16238
     246 -> 247        0.68917
     245 <- 248        0.11223
 This state for optimization and/or second-order correction.
 Total Energy, E(TD-HF/TD-DFT) =  -3007.76216345
 Copying the excited state density for this state as the 1-particle RhoCI density.

 Excited State   2:      Singlet-A      2.1538 eV  575.66 nm  f=0.1055  <S**2>=0.000
     245 -> 247        0.63876
     246 -> 248       -0.28024

 Excited State   3:      Singlet-A      3.2144 eV  385.72 nm  f=0.0098  <S**2>=0.000
     240 -> 247        0.10592
     243 -> 247        0.66939
     243 -> 249       -0.10204

 Excited State   4:      Singlet-A      3.4079 eV  363.81 nm  f=0.0568  <S**2>=0.000
     240 -> 247       -0.24122
     241 -> 247        0.47064
     241 -> 249        0.17142
     242 -> 247       -0.24622
     246 -> 248        0.28484

 Excited State   5:      Singlet-A      3.4682 eV  357.48 nm  f=0.0312  <S**2>=0.000
     239 -> 247       -0.11008
     240 -> 247        0.42405
     240 -> 249        0.21507
     240 -> 250       -0.11399
     241 -> 247        0.24900
     241 -> 249        0.25037
     241 -> 250       -0.19727
     242 -> 247        0.10920
     246 -> 248       -0.17884

 The electronic state is 1-A.
 Alpha  occ. eigenvalues --  -46.95601 -19.30564 -19.29122 -19.24430 -19.24274
 Alpha  occ. eigenvalues --  -19.23636 -19.22863 -14.47903 -14.46745 -14.45337
 Alpha  occ. eigenvalues --  -14.43956 -10.43489 -10.42767 -10.40021 -10.37454
 Alpha  occ. eigenvalues --  -10.36916 -10.36850 -10.36593 -10.35583 -10.35132
 Alpha  occ. eigenvalues --  -10.34891 -10.34833 -10.34579 -10.33864 -10.33408
 Alpha  occ. eigenvalues --  -10.33049 -10.32766 -10.32745 -10.32452 -10.32353
 Alpha  occ. eigenvalues --  -10.32318 -10.32286 -10.32157 -10.32100 -10.31952
 Alpha  occ. eigenvalues --  -10.31711 -10.30903 -10.30876 -10.30847 -10.30714
 Alpha  occ. eigenvalues --  -10.30706 -10.30644 -10.30585 -10.30278 -10.30011
 Alpha  occ. eigenvalues --  -10.29879 -10.29321 -10.29296 -10.29033 -10.28860
 Alpha  occ. eigenvalues --  -10.28774 -10.28749 -10.28738 -10.28699 -10.28678
 Alpha  occ. eigenvalues --  -10.28496 -10.28296 -10.28227 -10.28163 -10.28139
 Alpha  occ. eigenvalues --  -10.28118 -10.28102 -10.28042 -10.27778 -10.27777
 Alpha  occ. eigenvalues --  -10.27558  -3.21540  -1.95104  -1.94675  -1.94510
 Alpha  occ. eigenvalues --   -1.18536  -1.16944  -1.12209  -1.11127  -1.08798
 Alpha  occ. eigenvalues --   -1.07840  -1.06229  -1.04595  -1.03632  -1.02915
 Alpha  occ. eigenvalues --   -0.95929  -0.91675  -0.91620  -0.90954  -0.90778
 Alpha  occ. eigenvalues --   -0.90361  -0.89779  -0.89173  -0.88964  -0.88571
 Alpha  occ. eigenvalues --   -0.87674  -0.86637  -0.85991  -0.85802  -0.85165
 Alpha  occ. eigenvalues --   -0.84680  -0.83903  -0.83306  -0.83017  -0.82225
 Alpha  occ. eigenvalues --   -0.81473  -0.80161  -0.79738  -0.79219  -0.78596
 Alpha  occ. eigenvalues --   -0.77225  -0.77108  -0.76928  -0.76406  -0.75109
 Alpha  occ. eigenvalues --   -0.74861  -0.74212  -0.73642  -0.72148  -0.71382
 Alpha  occ. eigenvalues --   -0.70780  -0.69980  -0.69754  -0.68220  -0.67136
 Alpha  occ. eigenvalues --   -0.66978  -0.66910  -0.66494  -0.66263  -0.65353
 Alpha  occ. eigenvalues --   -0.64350  -0.64020  -0.63942  -0.62621  -0.62394
 Alpha  occ. eigenvalues --   -0.61668  -0.61279  -0.61070  -0.60673  -0.60443
 Alpha  occ. eigenvalues --   -0.59390  -0.58505  -0.58217  -0.57902  -0.57306
 Alpha  occ. eigenvalues --   -0.57123  -0.56322  -0.56174  -0.55903  -0.55590
 Alpha  occ. eigenvalues --   -0.55418  -0.55201  -0.55003  -0.54895  -0.54725
 Alpha  occ. eigenvalues --   -0.54425  -0.54392  -0.54136  -0.53924  -0.53700
 Alpha  occ. eigenvalues --   -0.53423  -0.52932  -0.52674  -0.52651  -0.52511
 Alpha  occ. eigenvalues --   -0.52198  -0.52005  -0.51775  -0.51628  -0.51111
 Alpha  occ. eigenvalues --   -0.50968  -0.50880  -0.50834  -0.50711  -0.50543
 Alpha  occ. eigenvalues --   -0.50405  -0.49870  -0.49850  -0.49612  -0.49130
 Alpha  occ. eigenvalues --   -0.49013  -0.48559  -0.48482  -0.48283  -0.48258
 Alpha  occ. eigenvalues --   -0.48115  -0.48024  -0.47803  -0.47593  -0.47390
 Alpha  occ. eigenvalues --   -0.47303  -0.47018  -0.46869  -0.46643  -0.46545
 Alpha  occ. eigenvalues --   -0.46390  -0.46160  -0.45975  -0.45810  -0.45600
 Alpha  occ. eigenvalues --   -0.45473  -0.45356  -0.44874  -0.44756  -0.44558
 Alpha  occ. eigenvalues --   -0.44417  -0.44014  -0.43797  -0.43705  -0.43605
 Alpha  occ. eigenvalues --   -0.43222  -0.43162  -0.43023  -0.42940  -0.42607
 Alpha  occ. eigenvalues --   -0.42394  -0.42356  -0.41808  -0.41664  -0.41393
 Alpha  occ. eigenvalues --   -0.41233  -0.41081  -0.40810  -0.40715  -0.40670
 Alpha  occ. eigenvalues --   -0.40042  -0.39809  -0.39653  -0.39565  -0.39416
 Alpha  occ. eigenvalues --   -0.39145  -0.39068  -0.38766  -0.38228  -0.37846
 Alpha  occ. eigenvalues --   -0.37270  -0.36726  -0.36441  -0.36025  -0.35527
 Alpha  occ. eigenvalues --   -0.35278  -0.34822  -0.34678  -0.34246  -0.33333
 Alpha  occ. eigenvalues --   -0.33072  -0.32708  -0.30877  -0.30595  -0.26702
 Alpha  occ. eigenvalues --   -0.23259
 Alpha virt. eigenvalues --   -0.07760  -0.00054   0.01671   0.03698   0.04695
 Alpha virt. eigenvalues --    0.06686   0.07282   0.07364   0.08453   0.09365
 Alpha virt. eigenvalues --    0.10863   0.11286   0.11482   0.11961   0.12313

 Mulliken charges:
               1
     1  Mg   0.952374
     2  C   -0.066772
     3  C   -0.056134
     4  C   -0.097143
     5  C   -0.071316
     6  N   -0.360014
     7  C   -0.012577
     8  C   -0.037606
     9  C   -0.103983
    10  C    0.093330
    11  C    0.018452
    12  C   -0.020499
    13  C   -0.024249
    14  C    0.231406
    15  O   -0.287477
    16  O   -0.353294
    17  N   -0.451022
    18  C    0.122445
    19  C   -0.131822
    20  C   -0.066143
    21  C    0.193646
    22  C    0.045897
    23  C    0.039075
    24  O   -0.242695
    25  C    0.002265
    26  N   -0.443738
    27  C    0.101779
    28  C   -0.111411
    29  C   -0.024627
    30  C    0.029811
    31  C    0.025439
    32  C   -0.014000
    33  C   -0.052144
    34  N   -0.422257
    35  C    0.121518
    36  C   -0.152822
    37  C   -0.059024
    38  C    0.163564
    39  C    0.069383
    40  C    0.057013
    41  O   -0.231066
    42  C    0.058181
    43  C    0.265409
    44  O   -0.274747
    45  O   -0.341837
    46  C    0.142705
    47  C    0.297371
    48  C   -0.185457
    49  C   -0.157728
    50  C    0.040474
    51  C   -0.008954
    52  C   -0.019180
    53  C   -0.007542
    54  C   -0.224109
    55  C    0.030087
    56  C    0.032946
    57  C   -0.063515
    58  C    0.013590
    59  C   -0.147579
    60  C   -0.009578
    61  C    0.008089
    62  C   -0.035820
    63  C   -0.018867
    64  C   -0.239325
    65  C   -0.006024
    66  C   -0.001975
    67  H    0.015708
    68  H   -0.031036
    69  H   -0.007820
    70  H    0.028806
    71  H    0.048674
    72  H    0.043266
    73  H    0.038961
    74  H    0.052179
    75  H    0.038140
    76  H    0.040037
    77  H    0.064079
    78  H    0.067955
    79  H    0.040287
    80  H    0.071032
    81  H    0.029459
    82  H    0.063379
    83  H    0.054833
    84  H    0.064022
    85  H    0.044484
    86  H    0.033751
    87  H    0.042543
    88  H    0.030280
    89  H    0.044191
    90  H    0.040889
    91  H    0.031106
    92  H    0.025343
    93  H    0.043868
    94  H    0.051265
    95  H    0.052448
    96  H    0.057173
    97  H    0.042650
    98  H    0.064515
    99  H    0.046569
   100  H    0.054918
   101  H    0.061572
   102  H    0.022372
   103  H    0.051151
   104  H    0.021997
   105  H    0.056686
   106  H    0.035588
   107  H    0.021070
   108  H    0.012277
   109  H    0.011986
   110  H    0.032841
   111  H    0.037324
   112  H    0.025460
   113  H    0.030386
   114  H    0.016385
   115  H    0.025596
   116  H    0.029923
   117  H    0.032031
   118  H    0.016849
   119  H    0.016963
   120  H    0.024315
   121  H    0.019670
   122  H    0.018422
   123  H   -0.004411
   124  H    0.018755
   125  H    0.015718
   126  H    0.030336
   127  H    0.023514
   128  H    0.016672
   129  H    0.032196
   130  H    0.016474
   131  H    0.026440
   132  H    0.023117
   133  H    0.002883
   134  H    0.025126
   135  H    0.032464
   136  H    0.030518
   137  H    0.040534
   138  H    0.039063
   139  H    0.029954
   140  H    0.031650
 Sum of Mulliken charges =  -0.00000

 Dipole moment (field-independent basis, Debye):
    X=             -1.7445    Y=              3.6087    Z=              1.7690  Tot=              4.3812
 Quadrupole moment (field-independent basis, Debye-Ang):
   XX=           -396.7576   YY=           -375.8311   ZZ=           -396.4007
   XY=            -44.4060   XZ=            -15.2780   YZ=            -23.6047

 Normal termination of Gaussian 16 at Wed May  4 12:17:45 2022.
