 Gaussian 16, Revision A.03,
 Gaussian 16:  ES64L-G16RevA.03 25-Dec-2016

 --------------------
 #p ZINDO=(nstates=5)
 --------------------

 ------------------------------
 step_1701_chromophore_11 ZINDO
 ------------------------------
 Symbolic Z-matrix:
 Charge =  0 Multiplicity = 1

                         Standard orientation:
 ---------------------------------------------------------------------
 Center     Atomic      Atomic             Coordinates (Angstroms)
 Number     Number       Type             X           Y           Z
 ---------------------------------------------------------------------
      1         12           0       -4.665996    1.506545    0.599512
      2          6           0       -5.207497   -2.087627    0.147666
      3          6           0       -2.537080    0.719836    3.253251
      4          6           0       -3.699073    4.643611    0.594453
      5          6           0       -6.639369    1.978707   -2.232008
      6          7           0       -3.828676   -0.440168    1.372085
      7          6           0       -4.325816   -1.759787    1.177390
      8          6           0       -3.883077   -2.699198    2.352061
      9          6           0       -3.434672   -1.701337    3.427220
     10          6           0       -3.217398   -0.375266    2.642507
     11          6           0       -4.582274   -1.462432    4.519752
     12          6           0       -2.868867   -3.780277    1.942826
     13          6           0       -1.753139   -3.383784    0.951616
     14          6           0       -0.297147   -4.066324    1.156971
     15          8           0        0.448482   -3.959594    2.137050
     16          8           0        0.115498   -4.813271    0.075713
     17          7           0       -3.305119    2.542746    1.836931
     18          6           0       -2.475128    2.050284    2.779358
     19          6           0       -1.701192    3.183364    3.303925
     20          6           0       -1.822847    4.274008    2.419073
     21          6           0       -2.992266    3.863435    1.555619
     22          6           0       -0.710384    3.011675    4.435053
     23          6           0       -1.016731    5.569571    2.484496
     24          8           0        0.107516    5.608439    2.991325
     25          6           0       -1.421883    6.828533    1.759470
     26          7           0       -4.967406    3.021790   -0.783878
     27          6           0       -4.559136    4.307870   -0.434810
     28          6           0       -5.049607    5.309167   -1.603250
     29          6           0       -5.973801    4.410314   -2.530792
     30          6           0       -5.884870    3.058210   -1.874706
     31          6           0       -5.517421    6.709192   -1.202556
     32          6           0       -5.605291    4.432559   -4.034842
     33          6           0       -4.886555    3.174193   -4.520437
     34          7           0       -5.725558    0.296667   -0.746832
     35          6           0       -6.506320    0.619550   -1.817608
     36          6           0       -7.092720   -0.531719   -2.513290
     37          6           0       -6.639850   -1.633953   -1.645517
     38          6           0       -5.710230   -1.099779   -0.711141
     39          6           0       -8.030233   -0.490468   -3.700403
     40          6           0       -6.807408   -3.024394   -1.418813
     41          8           0       -7.401981   -3.878195   -2.081629
     42          6           0       -5.902721   -3.347394   -0.330642
     43          6           0       -4.996699   -4.333969   -0.940267
     44          8           0       -4.120373   -4.060156   -1.794683
     45          8           0       -5.209375   -5.581083   -0.427611
     46          6           0       -4.607568   -6.684131   -1.116785
     47          6           0        1.432864   -5.446965    0.163617
     48          6           0        2.442136   -4.578893   -0.553034
     49          6           0        3.519231   -3.941887    0.039646
     50          6           0        4.013084   -4.055928    1.454410
     51          6           0        4.486260   -3.171637   -0.839041
     52          6           0        5.008679   -1.767659   -0.438242
     53          6           0        6.518546   -1.608935   -0.686679
     54          6           0        6.813883   -0.089101   -1.127923
     55          6           0        7.459724   -0.000363   -2.517137
     56          6           0        7.464799    0.721423   -0.007699
     57          6           0        8.757092    0.043887    0.437095
     58          6           0        9.873340    1.063246    0.812518
     59          6           0       11.145859    0.445919    1.459413
     60          6           0       11.109073    0.522881    2.984197
     61          6           0       12.412600    1.162571    0.960603
     62          6           0       13.189923    0.422687   -0.194242
     63          6           0       13.448047    1.387554   -1.423839
     64          6           0       12.830353    0.819012   -2.804515
     65          6           0       13.938367    1.149642   -3.909881
     66          6           0       11.500849    1.450774   -3.108922
     67          1           0       -1.986712    0.623256    4.191587
     68          1           0       -3.417739    5.699210    0.559699
     69          1           0       -7.379090    2.224308   -2.996900
     70          1           0       -4.707892   -3.330731    2.681528
     71          1           0       -2.506616   -2.069907    3.864439
     72          1           0       -5.417475   -2.156896    4.431377
     73          1           0       -5.073965   -0.495505    4.417427
     74          1           0       -4.071033   -1.475080    5.482036
     75          1           0       -3.332794   -4.654341    1.484974
     76          1           0       -2.410519   -4.214723    2.830450
     77          1           0       -1.605722   -2.305801    1.027253
     78          1           0       -2.103620   -3.571205   -0.063193
     79          1           0       -0.423313    3.949796    4.909141
     80          1           0        0.274391    2.584001    4.251876
     81          1           0       -1.161012    2.509906    5.291466
     82          1           0       -0.804063    7.722338    1.853255
     83          1           0       -2.466962    6.914208    2.056074
     84          1           0       -1.367577    6.579135    0.700138
     85          1           0       -4.131470    5.505983   -2.156912
     86          1           0       -6.977958    4.806361   -2.382098
     87          1           0       -6.489283    6.923176   -1.647339
     88          1           0       -4.780360    7.394847   -1.619340
     89          1           0       -5.492692    6.879540   -0.126424
     90          1           0       -5.001869    5.284500   -4.351897
     91          1           0       -6.565712    4.383688   -4.547496
     92          1           0       -4.236025    3.517677   -5.325296
     93          1           0       -5.471899    2.370076   -4.966282
     94          1           0       -4.230918    2.776287   -3.746216
     95          1           0       -9.005987   -0.069803   -3.459550
     96          1           0       -8.268368   -1.450040   -4.160165
     97          1           0       -7.484499    0.112532   -4.427011
     98          1           0       -6.441901   -3.694315    0.551519
     99          1           0       -5.126173   -7.586970   -0.792775
    100          1           0       -3.548563   -6.801022   -0.890336
    101          1           0       -4.795237   -6.623580   -2.188702
    102          1           0        1.294101   -6.263731   -0.545184
    103          1           0        1.894676   -5.795690    1.086932
    104          1           0        2.464530   -4.601257   -1.643105
    105          1           0        3.922593   -3.197903    2.120043
    106          1           0        5.050353   -4.388286    1.410694
    107          1           0        3.451382   -4.825232    1.984029
    108          1           0        4.239138   -3.370372   -1.881672
    109          1           0        5.386435   -3.783365   -0.780276
    110          1           0        4.705855   -1.487881    0.570336
    111          1           0        4.361258   -1.263756   -1.156221
    112          1           0        6.878480   -2.301055   -1.447704
    113          1           0        6.993925   -1.821003    0.270245
    114          1           0        5.864190    0.422815   -1.286779
    115          1           0        6.598705    0.316155   -3.105070
    116          1           0        7.782524   -1.000339   -2.805047
    117          1           0        8.157699    0.836746   -2.544294
    118          1           0        6.714147    0.738205    0.782322
    119          1           0        7.621734    1.741814   -0.356564
    120          1           0        9.122937   -0.684802   -0.286490
    121          1           0        8.555671   -0.501883    1.358223
    122          1           0        9.346797    1.879238    1.308148
    123          1           0       10.172522    1.531286   -0.125180
    124          1           0       11.179345   -0.619181    1.229767
    125          1           0       10.107098    0.578361    3.407780
    126          1           0       11.605944    1.333079    3.518273
    127          1           0       11.530614   -0.421782    3.328076
    128          1           0       13.131947    1.055091    1.772808
    129          1           0       12.221970    2.207427    0.715955
    130          1           0       12.648238   -0.455021   -0.547599
    131          1           0       14.195144    0.123392    0.098192
    132          1           0       14.503955    1.649962   -1.487801
    133          1           0       12.901146    2.275358   -1.109100
    134          1           0       12.564325   -0.232274   -2.699988
    135          1           0       13.971078    0.270876   -4.555507
    136          1           0       14.928781    1.178658   -3.456398
    137          1           0       13.560755    2.089899   -4.311152
    138          1           0       10.752816    0.884286   -2.553845
    139          1           0       11.316590    1.318269   -4.174698
    140          1           0       11.521718    2.505290   -2.833131
 ---------------------------------------------------------------------

 SCF Done:  E(RZINDO/S) =  -473.934377074     A.U. after   19 cycles

 Excitation energies and oscillator strengths:

 Excited State   1:      Singlet-A      1.2253 eV 1011.84 nm  f=0.5478  <S**2>=0.000
     175 ->178         0.14851
     176 ->177         0.67389
 This state for optimization and/or second-order correction.
 Total Energy, E(CIS/TDA) =  -473.889346938
 Copying the excited state density for this state as the 1-particle RhoCI density.

 Excited State   2:      Singlet-A      1.8927 eV  655.08 nm  f=0.0362  <S**2>=0.000
     175 ->177         0.53886
     176 ->178        -0.41475

 Excited State   3:      Singlet-A      2.8313 eV  437.90 nm  f=0.4498  <S**2>=0.000
     173 ->177        -0.12686
     175 ->177         0.27257
     176 ->178         0.37023
     176 ->179         0.39303
     176 ->180        -0.25227

 Excited State   4:      Singlet-A      2.8734 eV  431.49 nm  f=0.0100  <S**2>=0.000
     168 ->177         0.28574
     168 ->178        -0.15376
     168 ->179         0.44624
     168 ->180         0.26370
     168 ->184         0.14611
     168 ->185         0.22233
     168 ->192         0.11316

 Excited State   5:      Singlet-A      2.8862 eV  429.58 nm  f=0.0372  <S**2>=0.000
     170 ->177         0.13350
     170 ->179        -0.14451
     170 ->180         0.17090
     171 ->177         0.23339
     171 ->178        -0.17996
     171 ->179        -0.26478
     171 ->180         0.29441
     171 ->185        -0.11350
     171 ->188         0.16446
     173 ->177         0.17969

 The electronic state is 1-A.
 Alpha  occ. eigenvalues --   -1.82379  -1.80214  -1.77230  -1.73069  -1.70681
 Alpha  occ. eigenvalues --   -1.68603  -1.65029  -1.60508  -1.60133  -1.59782
 Alpha  occ. eigenvalues --   -1.53889  -1.50788  -1.47887  -1.47250  -1.45906
 Alpha  occ. eigenvalues --   -1.42648  -1.41610  -1.39535  -1.37493  -1.37389
 Alpha  occ. eigenvalues --   -1.35488  -1.32357  -1.31744  -1.30817  -1.28668
 Alpha  occ. eigenvalues --   -1.27847  -1.26744  -1.23048  -1.19823  -1.17796
 Alpha  occ. eigenvalues --   -1.16963  -1.16063  -1.14996  -1.14093  -1.13207
 Alpha  occ. eigenvalues --   -1.11991  -1.10292  -1.09168  -1.04292  -1.03922
 Alpha  occ. eigenvalues --   -1.02336  -1.00623  -1.00300  -0.98726  -0.97997
 Alpha  occ. eigenvalues --   -0.96709  -0.93966  -0.93468  -0.93073  -0.91705
 Alpha  occ. eigenvalues --   -0.89646  -0.89315  -0.87816  -0.86806  -0.84848
 Alpha  occ. eigenvalues --   -0.83736  -0.82986  -0.81460  -0.80925  -0.80161
 Alpha  occ. eigenvalues --   -0.79323  -0.78819  -0.78323  -0.77008  -0.76657
 Alpha  occ. eigenvalues --   -0.75996  -0.75924  -0.75459  -0.74982  -0.73952
 Alpha  occ. eigenvalues --   -0.73203  -0.72564  -0.72245  -0.71788  -0.70999
 Alpha  occ. eigenvalues --   -0.70603  -0.70250  -0.69770  -0.69167  -0.68425
 Alpha  occ. eigenvalues --   -0.67025  -0.65971  -0.65946  -0.65563  -0.65239
 Alpha  occ. eigenvalues --   -0.64916  -0.64531  -0.64196  -0.63731  -0.63356
 Alpha  occ. eigenvalues --   -0.63186  -0.62932  -0.62674  -0.62083  -0.62042
 Alpha  occ. eigenvalues --   -0.61466  -0.60921  -0.60796  -0.60724  -0.59701
 Alpha  occ. eigenvalues --   -0.58975  -0.58651  -0.58449  -0.58273  -0.57672
 Alpha  occ. eigenvalues --   -0.57388  -0.56939  -0.56852  -0.56519  -0.56210
 Alpha  occ. eigenvalues --   -0.56027  -0.55604  -0.55240  -0.55119  -0.54620
 Alpha  occ. eigenvalues --   -0.54279  -0.53752  -0.53291  -0.52429  -0.52371
 Alpha  occ. eigenvalues --   -0.52215  -0.52095  -0.51374  -0.51079  -0.50936
 Alpha  occ. eigenvalues --   -0.50803  -0.50356  -0.50115  -0.50058  -0.49620
 Alpha  occ. eigenvalues --   -0.49492  -0.49312  -0.48955  -0.48920  -0.48817
 Alpha  occ. eigenvalues --   -0.48517  -0.48018  -0.47837  -0.47606  -0.47462
 Alpha  occ. eigenvalues --   -0.47167  -0.47026  -0.46879  -0.46747  -0.46265
 Alpha  occ. eigenvalues --   -0.46212  -0.45936  -0.45859  -0.45727  -0.45322
 Alpha  occ. eigenvalues --   -0.45115  -0.44922  -0.44095  -0.43950  -0.43710
 Alpha  occ. eigenvalues --   -0.43360  -0.42695  -0.42422  -0.42263  -0.41399
 Alpha  occ. eigenvalues --   -0.40760  -0.40244  -0.40043  -0.39046  -0.38344
 Alpha  occ. eigenvalues --   -0.38050  -0.37670  -0.36515  -0.34884  -0.34478
 Alpha  occ. eigenvalues --   -0.33941  -0.33188  -0.30876  -0.30687  -0.27370
 Alpha  occ. eigenvalues --   -0.22000
 Alpha virt. eigenvalues --   -0.09011  -0.02504  -0.01325   0.00541   0.01467
 Alpha virt. eigenvalues --    0.02223   0.02539   0.03128   0.04159   0.05224
 Alpha virt. eigenvalues --    0.05252   0.06300   0.06917   0.07171   0.07526

 Mulliken charges:
               1
     1  Mg   0.432854
     2  C   -0.015633
     3  C   -0.078843
     4  C   -0.091954
     5  C   -0.060902
     6  N   -0.300047
     7  C    0.080394
     8  C    0.006969
     9  C    0.008368
    10  C    0.175694
    11  C   -0.050595
    12  C   -0.018381
    13  C    0.008181
    14  C    0.454304
    15  O   -0.526312
    16  O   -0.253750
    17  N   -0.324943
    18  C    0.147245
    19  C    0.060076
    20  C   -0.032472
    21  C    0.157377
    22  C   -0.044803
    23  C    0.333394
    24  O   -0.514878
    25  C   -0.024307
    26  N   -0.302915
    27  C    0.162253
    28  C   -0.005036
    29  C    0.011148
    30  C    0.100804
    31  C   -0.049425
    32  C   -0.022917
    33  C   -0.056054
    34  N   -0.321827
    35  C    0.087410
    36  C   -0.011774
    37  C   -0.067469
    38  C    0.081252
    39  C   -0.031623
    40  C    0.346857
    41  O   -0.547557
    42  C    0.080711
    43  C    0.504415
    44  O   -0.547091
    45  O   -0.264726
    46  C    0.080614
    47  C    0.106816
    48  C   -0.103739
    49  C    0.002036
    50  C   -0.038108
    51  C   -0.037913
    52  C   -0.032244
    53  C   -0.034285
    54  C   -0.025403
    55  C   -0.064788
    56  C   -0.027443
    57  C   -0.035258
    58  C   -0.042521
    59  C   -0.000492
    60  C   -0.058170
    61  C   -0.036014
    62  C   -0.049787
    63  C   -0.056123
    64  C   -0.025919
    65  C   -0.067510
    66  C   -0.053551
    67  H    0.038517
    68  H    0.019737
    69  H    0.018997
    70  H    0.022378
    71  H    0.039528
    72  H    0.029652
    73  H    0.023468
    74  H    0.024729
    75  H    0.022020
    76  H    0.022344
    77  H    0.041104
    78  H    0.048868
    79  H    0.026824
    80  H    0.048541
    81  H    0.019310
    82  H    0.051372
    83  H    0.031941
    84  H    0.038281
    85  H    0.027299
    86  H    0.025658
    87  H    0.026972
    88  H    0.015893
    89  H    0.024520
    90  H    0.028757
    91  H    0.017794
    92  H    0.001022
    93  H    0.030285
    94  H    0.026280
    95  H    0.029421
    96  H    0.032176
    97  H    0.026141
    98  H    0.050104
    99  H    0.024511
   100  H    0.042973
   101  H    0.050184
   102  H    0.023975
   103  H    0.067690
   104  H    0.034755
   105  H    0.036086
   106  H    0.024521
   107  H    0.015723
   108  H    0.023417
   109  H    0.007047
   110  H    0.031635
   111  H    0.022068
   112  H    0.027807
   113  H    0.023744
   114  H    0.007203
   115  H    0.014745
   116  H    0.031441
   117  H    0.026292
   118  H    0.016702
   119  H    0.018509
   120  H    0.023342
   121  H    0.013291
   122  H    0.024932
   123  H    0.006205
   124  H    0.026570
   125  H    0.009140
   126  H    0.022144
   127  H    0.010463
   128  H    0.011482
   129  H    0.034235
   130  H    0.023178
   131  H    0.018158
   132  H    0.024469
   133  H    0.018332
   134  H    0.026241
   135  H    0.019250
   136  H    0.023080
   137  H    0.035549
   138  H    0.017454
   139  H    0.014464
   140  H    0.023384
 Sum of Mulliken charges =  -0.00000

 Dipole moment (field-independent basis, Debye):
    X=             -1.8950    Y=              6.2562    Z=              4.9249  Tot=              8.1845
 N-N= 4.391393620472D+03 E-N= 0.000000000000D+00  KE=-9.457499687517D+03
 Leave Link  601 at Wed May  4 12:32:00 2022, MaxMem=  6710886400 cpu:               0.8 elap:               0.0
 (Enter /sw/apps/gaussian-16.0/g16/l9999.exe)
 1\1\GINC-BP1-COMPUTE123\SP\RZINDO CIS\STO-3G\C55H74Mg1N4O6\OF15641\04-
 May-2022\0\\#p ZINDO=(nstates=5)\\step_1701_chromophore_11 ZINDO\\0,1\
 Mg,0,53.35,23.995,45.507\C,0,50.567,26.219,44.656\C,0,51.249,21.302,44
 .781\C,0,55.992,22.052,45.651\C,0,55.281,26.864,45.925\N,0,51.29,23.85
 5,44.599\C,0,50.285,24.86,44.519\C,0,48.859,24.214,44.432\C,0,49.119,2
 2.769,44.876\C,0,50.658,22.599,44.721\C,0,48.737,22.552,46.417\C,0,48.
 164,24.408,43.074\C,0,49.027,24.289,41.799\C,0,48.335,23.629,40.49\O,0

 Normal termination of Gaussian 16 at Wed May  4 12:32:00 2022.
