 Gaussian 16, Revision A.03,
 Gaussian 16:  ES64L-G16RevA.03 25-Dec-2016

 ------------------------------
 #p blyp/Def2SVP td=(nstates=5)
 ------------------------------

 --------------------------------------------------
 step_951_chromophore_21 TDDFT with blyp functional
 --------------------------------------------------
 Symbolic Z-matrix:
 Charge =  0 Multiplicity = 1

                         Standard orientation:
 ---------------------------------------------------------------------
 Center     Atomic      Atomic             Coordinates (Angstroms)
 Number     Number       Type             X           Y           Z
 ---------------------------------------------------------------------
      1         12           0        5.384973    1.004698    0.388806
      2          6           0        5.116347   -2.452654    0.116920
      3          6           0        1.963070    1.288965    0.163165
      4          6           0        5.789668    4.411386    0.005086
      5          6           0        8.771588    0.575882   -0.009362
      6          7           0        3.744526   -0.378769    0.322478
      7          6           0        3.870248   -1.789600    0.270380
      8          6           0        2.421523   -2.410389    0.220430
      9          6           0        1.489613   -1.177971    0.037127
     10          6           0        2.488258   -0.025137    0.167930
     11          6           0        0.695238   -1.081430   -1.237044
     12          6           0        2.222443   -3.206148    1.546501
     13          6           0        0.873437   -3.845427    1.799687
     14          6           0       -0.080023   -4.007033    0.542600
     15          8           0        0.212462   -4.768440   -0.328493
     16          8           0       -1.319652   -3.363355    0.589281
     17          7           0        4.082894    2.647646    0.192221
     18          6           0        2.695375    2.534994    0.166798
     19          6           0        2.069321    3.879316    0.148855
     20          6           0        3.147968    4.728349    0.184693
     21          6           0        4.434498    3.927796    0.179480
     22          6           0        0.553627    4.095489    0.251189
     23          6           0        3.199671    6.245156    0.206998
     24          8           0        4.188657    6.945109    0.296913
     25          6           0        1.963623    7.108656   -0.017458
     26          7           0        7.090566    2.292050    0.166658
     27          6           0        6.998934    3.686539    0.011572
     28          6           0        8.412269    4.291604   -0.257898
     29          6           0        9.328756    2.999385   -0.170093
     30          6           0        8.382487    1.917170    0.128905
     31          6           0        8.647620    5.098346   -1.519519
     32          6           0       10.578855    3.133246    0.799972
     33          6           0       11.622671    4.007650    0.168516
     34          7           0        6.752381   -0.600258    0.351044
     35          6           0        8.045890   -0.626604    0.108977
     36          6           0        8.513256   -1.884634    0.057799
     37          6           0        7.374952   -2.679434    0.109396
     38          6           0        6.308166   -1.836653    0.210544
     39          6           0        9.918874   -2.289159    0.025348
     40          6           0        7.010204   -4.035488    0.029559
     41          8           0        7.641301   -5.072416    0.043475
     42          6           0        5.480027   -3.940200    0.023823
     43          6           0        4.897227   -4.729468   -1.097149
     44          8           0        5.085643   -4.512585   -2.278289
     45          8           0        4.067592   -5.572220   -0.541583
     46          6           0        3.163657   -6.356941   -1.354536
     47          6           0       -2.196671   -3.594411   -0.491234
     48          6           0       -3.503255   -2.880585   -0.185544
     49          6           0       -4.196924   -1.920054   -0.872389
     50          6           0       -3.956610   -1.553470   -2.339818
     51          6           0       -5.455490   -1.281387   -0.305572
     52          6           0       -6.673139   -2.230711   -0.423302
     53          6           0       -7.534898   -2.254837    0.917339
     54          6           0       -8.438487   -0.956870    0.952901
     55          6           0       -8.198523   -0.131463    2.196635
     56          6           0       -9.931687   -1.237597    0.787897
     57          6           0      -10.815390   -0.248968    0.086189
     58          6           0      -12.270106   -0.457245    0.420911
     59          6           0      -12.846761    0.535542    1.389103
     60          6           0      -12.751666    0.134954    2.969889
     61          6           0      -14.366478    0.795605    1.022811
     62          6           0      -14.341470    1.743992   -0.168154
     63          6           0      -15.326860    1.340493   -1.262952
     64          6           0      -16.153672    2.468343   -1.902975
     65          6           0      -15.418517    3.825296   -2.033747
     66          6           0      -17.623004    2.546294   -1.264346
     67          1           0        0.886727    1.452124    0.072615
     68          1           0        5.938978    5.480587   -0.159960
     69          1           0        9.847815    0.539468   -0.191079
     70          1           0        2.434783   -3.012341   -0.687984
     71          1           0        0.834947   -1.227703    0.907339
     72          1           0        0.578183   -2.039808   -1.742359
     73          1           0        1.259754   -0.430334   -1.904544
     74          1           0       -0.312440   -0.795282   -0.933711
     75          1           0        2.570286   -2.582032    2.369207
     76          1           0        2.928495   -4.035384    1.558516
     77          1           0        0.383266   -3.135506    2.466135
     78          1           0        0.995893   -4.786381    2.337275
     79          1           0       -0.010319    3.219070    0.569812
     80          1           0        0.103549    4.451196   -0.674837
     81          1           0        0.219609    4.733021    1.070223
     82          1           0        1.835413    7.303899   -1.082044
     83          1           0        1.985973    8.097032    0.440900
     84          1           0        1.068602    6.643551    0.397323
     85          1           0        8.652936    5.038458    0.499603
     86          1           0        9.702260    2.702782   -1.149532
     87          1           0        7.773178    5.131559   -2.169308
     88          1           0        9.572140    4.797452   -2.011554
     89          1           0        8.756034    6.127288   -1.175219
     90          1           0       11.022303    2.232981    1.227096
     91          1           0       10.202108    3.664015    1.673905
     92          1           0       11.438618    5.057459    0.397608
     93          1           0       11.639016    3.818702   -0.904573
     94          1           0       12.584918    3.718716    0.592293
     95          1           0       10.423920   -1.632735    0.733614
     96          1           0       10.372115   -2.101306   -0.948587
     97          1           0       10.106721   -3.329848    0.288561
     98          1           0        5.090436   -4.298080    0.976556
     99          1           0        2.490241   -6.922753   -0.711188
    100          1           0        3.717071   -6.987615   -2.050823
    101          1           0        2.521922   -5.759523   -2.002438
    102          1           0       -2.451368   -4.630489   -0.713406
    103          1           0       -1.668074   -3.164724   -1.342438
    104          1           0       -3.913571   -3.094620    0.800922
    105          1           0       -4.692141   -2.060721   -2.964365
    106          1           0       -2.906861   -1.761140   -2.543892
    107          1           0       -4.096840   -0.473120   -2.369729
    108          1           0       -5.667379   -0.342211   -0.815676
    109          1           0       -5.143125   -1.037972    0.710238
    110          1           0       -6.266550   -3.230510   -0.573942
    111          1           0       -7.270425   -1.961128   -1.294260
    112          1           0       -6.812888   -2.313287    1.731239
    113          1           0       -8.135244   -3.156791    1.035167
    114          1           0       -8.185162   -0.287459    0.131002
    115          1           0       -9.095716    0.003269    2.799012
    116          1           0       -7.818933    0.858139    1.939917
    117          1           0       -7.522744   -0.585176    2.921388
    118          1           0      -10.411008   -1.568130    1.709075
    119          1           0       -9.951294   -2.055488    0.068163
    120          1           0      -10.703267   -0.336744   -0.994519
    121          1           0      -10.485579    0.746849    0.384228
    122          1           0      -12.287733   -1.441364    0.888026
    123          1           0      -12.704438   -0.386712   -0.576308
    124          1           0      -12.255472    1.433799    1.206235
    125          1           0      -12.432625    1.032791    3.498411
    126          1           0      -12.182227   -0.786108    3.094184
    127          1           0      -13.693884   -0.060467    3.483355
    128          1           0      -14.895179    1.316873    1.819798
    129          1           0      -14.836594   -0.136574    0.710220
    130          1           0      -13.371002    1.959288   -0.614606
    131          1           0      -14.651664    2.693293    0.269239
    132          1           0      -15.895163    0.484256   -0.901204
    133          1           0      -14.838749    0.934936   -2.149100
    134          1           0      -16.316059    2.212082   -2.949517
    135          1           0      -16.016740    4.674879   -1.702590
    136          1           0      -15.408166    4.098217   -3.088756
    137          1           0      -14.446601    3.653840   -1.571053
    138          1           0      -17.473028    2.396414   -0.195021
    139          1           0      -17.992742    1.607356   -1.677861
    140          1           0      -18.257873    3.411249   -1.460334
 ---------------------------------------------------------------------

 SCF Done:  E(RB-LYP) =  -3007.33443008     A.U. after   20 cycles

 Excitation energies and oscillator strengths:

 Excited State   1:      Singlet-A      1.7722 eV  699.59 nm  f=0.0700  <S**2>=0.000
     244 -> 247        0.56889
     245 -> 247        0.18218
     246 -> 247       -0.36992
 This state for optimization and/or second-order correction.
 Total Energy, E(TD-HF/TD-DFT) =  -3007.26930185
 Copying the excited state density for this state as the 1-particle RhoCI density.

 Excited State   2:      Singlet-A      1.8160 eV  682.73 nm  f=0.2233  <S**2>=0.000
     244 -> 247        0.36168
     245 -> 248       -0.17039
     246 -> 247        0.57758
     246 <- 247       -0.12896

 Excited State   3:      Singlet-A      1.8542 eV  668.67 nm  f=0.0079  <S**2>=0.000
     243 -> 247        0.70057

 Excited State   4:      Singlet-A      2.0305 eV  610.62 nm  f=0.0879  <S**2>=0.000
     244 -> 247       -0.20136
     245 -> 247        0.61594
     246 -> 248        0.25144

 Excited State   5:      Singlet-A      2.5085 eV  494.25 nm  f=0.0027  <S**2>=0.000
     241 -> 247       -0.31410
     242 -> 247        0.60691
     246 -> 248       -0.11942

 The electronic state is 1-A.
 Alpha  occ. eigenvalues --  -46.27062 -18.83089 -18.82475 -18.78415 -18.75609
 Alpha  occ. eigenvalues --  -18.75136 -18.74936 -14.03864 -14.02796 -14.01633
 Alpha  occ. eigenvalues --  -13.99679 -10.05485 -10.03012  -9.99492  -9.98700
 Alpha  occ. eigenvalues --   -9.98044  -9.97215  -9.96923  -9.96568  -9.96546
 Alpha  occ. eigenvalues --   -9.96345  -9.96148  -9.95585  -9.94633  -9.94467
 Alpha  occ. eigenvalues --   -9.94047  -9.93932  -9.93835  -9.93737  -9.93639
 Alpha  occ. eigenvalues --   -9.93599  -9.93595  -9.93499  -9.93380  -9.93108
 Alpha  occ. eigenvalues --   -9.93055  -9.92753  -9.92736  -9.92703  -9.92553
 Alpha  occ. eigenvalues --   -9.92502  -9.92465  -9.92393  -9.92354  -9.92353
 Alpha  occ. eigenvalues --   -9.92329  -9.92147  -9.92080  -9.91871  -9.91791
 Alpha  occ. eigenvalues --   -9.91751  -9.91736  -9.91456  -9.91307  -9.91291
 Alpha  occ. eigenvalues --   -9.91261  -9.91024  -9.90918  -9.90902  -9.90826
 Alpha  occ. eigenvalues --   -9.90819  -9.90814  -9.90787  -9.90631  -9.90553
 Alpha  occ. eigenvalues --   -9.89049  -2.91654  -1.72106  -1.71496  -1.71387
 Alpha  occ. eigenvalues --   -0.99758  -0.99435  -0.92490  -0.91799  -0.91095
 Alpha  occ. eigenvalues --   -0.89824  -0.88686  -0.86334  -0.85684  -0.84955
 Alpha  occ. eigenvalues --   -0.76595  -0.74292  -0.73686  -0.73326  -0.72428
 Alpha  occ. eigenvalues --   -0.72420  -0.71656  -0.70989  -0.70863  -0.70715
 Alpha  occ. eigenvalues --   -0.70172  -0.69192  -0.68358  -0.68010  -0.67468
 Alpha  occ. eigenvalues --   -0.67134  -0.65892  -0.65279  -0.65018  -0.64173
 Alpha  occ. eigenvalues --   -0.63862  -0.62827  -0.62625  -0.62482  -0.60696
 Alpha  occ. eigenvalues --   -0.60468  -0.60143  -0.60078  -0.60034  -0.59102
 Alpha  occ. eigenvalues --   -0.58703  -0.57858  -0.56740  -0.55794  -0.54457
 Alpha  occ. eigenvalues --   -0.54315  -0.53947  -0.53004  -0.52636  -0.51804
 Alpha  occ. eigenvalues --   -0.51613  -0.51245  -0.50797  -0.50526  -0.50346
 Alpha  occ. eigenvalues --   -0.50217  -0.49413  -0.49221  -0.47323  -0.46827
 Alpha  occ. eigenvalues --   -0.46701  -0.46566  -0.45990  -0.45692  -0.44646
 Alpha  occ. eigenvalues --   -0.44321  -0.43626  -0.43422  -0.43094  -0.42763
 Alpha  occ. eigenvalues --   -0.42577  -0.42295  -0.41762  -0.41687  -0.41566
 Alpha  occ. eigenvalues --   -0.41383  -0.41272  -0.41136  -0.40550  -0.40411
 Alpha  occ. eigenvalues --   -0.40227  -0.40011  -0.39717  -0.39316  -0.39277
 Alpha  occ. eigenvalues --   -0.39227  -0.39156  -0.39009  -0.38612  -0.38433
 Alpha  occ. eigenvalues --   -0.38349  -0.37727  -0.37577  -0.37492  -0.37392
 Alpha  occ. eigenvalues --   -0.37141  -0.37101  -0.37054  -0.36865  -0.36662
 Alpha  occ. eigenvalues --   -0.36514  -0.36206  -0.35990  -0.35624  -0.35549
 Alpha  occ. eigenvalues --   -0.35379  -0.35314  -0.35274  -0.35040  -0.34670
 Alpha  occ. eigenvalues --   -0.34566  -0.34490  -0.34314  -0.34069  -0.33982
 Alpha  occ. eigenvalues --   -0.33910  -0.33791  -0.33419  -0.33372  -0.33282
 Alpha  occ. eigenvalues --   -0.33111  -0.33037  -0.32968  -0.32759  -0.32497
 Alpha  occ. eigenvalues --   -0.32150  -0.32045  -0.31927  -0.31801  -0.31630
 Alpha  occ. eigenvalues --   -0.31498  -0.31249  -0.31159  -0.31091  -0.30730
 Alpha  occ. eigenvalues --   -0.30643  -0.30234  -0.30147  -0.30062  -0.29966
 Alpha  occ. eigenvalues --   -0.29825  -0.29655  -0.29222  -0.29181  -0.29069
 Alpha  occ. eigenvalues --   -0.28827  -0.28344  -0.28023  -0.27975  -0.27827
 Alpha  occ. eigenvalues --   -0.27692  -0.27532  -0.27221  -0.26839  -0.26318
 Alpha  occ. eigenvalues --   -0.26273  -0.26181  -0.26042  -0.25886  -0.25562
 Alpha  occ. eigenvalues --   -0.25138  -0.25011  -0.24354  -0.23805  -0.23526
 Alpha  occ. eigenvalues --   -0.23470  -0.23201  -0.22377  -0.21539  -0.20892
 Alpha  occ. eigenvalues --   -0.20633  -0.20019  -0.18102  -0.17901  -0.17112
 Alpha  occ. eigenvalues --   -0.15626
 Alpha virt. eigenvalues --   -0.11389  -0.06702  -0.05935  -0.04210  -0.03938
 Alpha virt. eigenvalues --   -0.02831  -0.01940  -0.01294  -0.01095   0.00272
 Alpha virt. eigenvalues --    0.01261   0.01681   0.02134   0.02583   0.02830

 Mulliken charges:
               1
     1  Mg   0.698435
     2  C   -0.026711
     3  C   -0.052765
     4  C   -0.027110
     5  C   -0.138887
     6  N   -0.213859
     7  C   -0.120794
     8  C    0.037748
     9  C   -0.023197
    10  C    0.028252
    11  C    0.139590
    12  C    0.082231
    13  C    0.170953
    14  C    0.069128
    15  O   -0.172169
    16  O   -0.267072
    17  N   -0.258342
    18  C    0.079058
    19  C   -0.096031
    20  C    0.038068
    21  C    0.087990
    22  C    0.141881
    23  C   -0.067060
    24  O   -0.162746
    25  C    0.118193
    26  N   -0.234702
    27  C    0.029063
    28  C    0.012492
    29  C    0.013167
    30  C    0.037899
    31  C    0.136425
    32  C    0.072402
    33  C    0.085455
    34  N   -0.185067
    35  C    0.145022
    36  C   -0.172164
    37  C    0.073792
    38  C    0.113727
    39  C    0.195882
    40  C   -0.056237
    41  O   -0.114537
    42  C    0.031260
    43  C    0.097819
    44  O   -0.179247
    45  O   -0.224205
    46  C    0.223249
    47  C    0.335204
    48  C   -0.085304
    49  C   -0.214121
    50  C    0.159401
    51  C    0.129983
    52  C    0.064721
    53  C    0.120476
    54  C   -0.054495
    55  C    0.112817
    56  C    0.070902
    57  C    0.075033
    58  C    0.120025
    59  C   -0.087440
    60  C    0.097162
    61  C    0.149672
    62  C    0.021431
    63  C    0.085005
    64  C   -0.101149
    65  C    0.120823
    66  C    0.087609
    67  H   -0.067750
    68  H   -0.045155
    69  H   -0.072461
    70  H   -0.014905
    71  H   -0.025832
    72  H    0.001448
    73  H    0.003199
    74  H    0.004407
    75  H   -0.021140
    76  H   -0.013743
    77  H   -0.019334
    78  H    0.010119
    79  H   -0.019509
    80  H    0.011642
    81  H    0.011761
    82  H    0.011661
    83  H   -0.010202
    84  H   -0.039337
    85  H   -0.016043
    86  H   -0.015963
    87  H   -0.005459
    88  H   -0.002969
    89  H   -0.018448
    90  H   -0.015250
    91  H   -0.032770
    92  H   -0.002452
    93  H   -0.010188
    94  H   -0.013976
    95  H   -0.013818
    96  H   -0.007255
    97  H    0.003276
    98  H    0.002229
    99  H    0.017540
   100  H    0.009384
   101  H    0.011816
   102  H    0.005366
   103  H   -0.028387
   104  H   -0.041557
   105  H    0.016703
   106  H   -0.011357
   107  H   -0.015511
   108  H   -0.033857
   109  H   -0.015877
   110  H   -0.025996
   111  H   -0.020127
   112  H   -0.034814
   113  H   -0.033593
   114  H   -0.039235
   115  H   -0.025512
   116  H   -0.017251
   117  H   -0.028112
   118  H   -0.027108
   119  H   -0.046579
   120  H   -0.040591
   121  H   -0.045178
   122  H   -0.034143
   123  H   -0.034585
   124  H   -0.035349
   125  H   -0.010301
   126  H   -0.011811
   127  H   -0.022520
   128  H   -0.032286
   129  H   -0.021857
   130  H   -0.009745
   131  H   -0.023087
   132  H   -0.041441
   133  H   -0.038960
   134  H   -0.042569
   135  H   -0.030273
   136  H   -0.030820
   137  H   -0.004588
   138  H   -0.016011
   139  H   -0.014375
   140  H   -0.005265
 Sum of Mulliken charges =  -0.00000

 Dipole moment (field-independent basis, Debye):
    X=             -5.4307    Y=              2.1117    Z=              1.5194  Tot=              6.0217
 Quadrupole moment (field-independent basis, Debye-Ang):
   XX=           -404.2857   YY=           -438.8898   ZZ=           -405.1876
   XY=             34.6114   XZ=             12.8175   YZ=            -10.8943

 Normal termination of Gaussian 16 at Thu May  5 15:51:49 2022.
