 Gaussian 16, Revision A.03,
 Gaussian 16:  ES64L-G16RevA.03 25-Dec-2016

 -----------------------------------
 #p cam-b3lyp/Def2SVP td=(nstates=5)
 -----------------------------------

 -------------------------------------------------------
 step_951_chromophore_21 TDDFT with cam-b3lyp functional
 -------------------------------------------------------
 Symbolic Z-matrix:
 Charge =  0 Multiplicity = 1

                         Standard orientation:
 ---------------------------------------------------------------------
 Center     Atomic      Atomic             Coordinates (Angstroms)
 Number     Number       Type             X           Y           Z
 ---------------------------------------------------------------------
      1         12           0        5.384973    1.004698    0.388806
      2          6           0        5.116347   -2.452654    0.116920
      3          6           0        1.963070    1.288965    0.163165
      4          6           0        5.789668    4.411386    0.005086
      5          6           0        8.771588    0.575882   -0.009362
      6          7           0        3.744526   -0.378769    0.322478
      7          6           0        3.870248   -1.789600    0.270380
      8          6           0        2.421523   -2.410389    0.220430
      9          6           0        1.489613   -1.177971    0.037127
     10          6           0        2.488258   -0.025137    0.167930
     11          6           0        0.695238   -1.081430   -1.237044
     12          6           0        2.222443   -3.206148    1.546501
     13          6           0        0.873437   -3.845427    1.799687
     14          6           0       -0.080023   -4.007033    0.542600
     15          8           0        0.212462   -4.768440   -0.328493
     16          8           0       -1.319652   -3.363355    0.589281
     17          7           0        4.082894    2.647646    0.192221
     18          6           0        2.695375    2.534994    0.166798
     19          6           0        2.069321    3.879316    0.148855
     20          6           0        3.147968    4.728349    0.184693
     21          6           0        4.434498    3.927796    0.179480
     22          6           0        0.553627    4.095489    0.251189
     23          6           0        3.199671    6.245156    0.206998
     24          8           0        4.188657    6.945109    0.296913
     25          6           0        1.963623    7.108656   -0.017458
     26          7           0        7.090566    2.292050    0.166658
     27          6           0        6.998934    3.686539    0.011572
     28          6           0        8.412269    4.291604   -0.257898
     29          6           0        9.328756    2.999385   -0.170093
     30          6           0        8.382487    1.917170    0.128905
     31          6           0        8.647620    5.098346   -1.519519
     32          6           0       10.578855    3.133246    0.799972
     33          6           0       11.622671    4.007650    0.168516
     34          7           0        6.752381   -0.600258    0.351044
     35          6           0        8.045890   -0.626604    0.108977
     36          6           0        8.513256   -1.884634    0.057799
     37          6           0        7.374952   -2.679434    0.109396
     38          6           0        6.308166   -1.836653    0.210544
     39          6           0        9.918874   -2.289159    0.025348
     40          6           0        7.010204   -4.035488    0.029559
     41          8           0        7.641301   -5.072416    0.043475
     42          6           0        5.480027   -3.940200    0.023823
     43          6           0        4.897227   -4.729468   -1.097149
     44          8           0        5.085643   -4.512585   -2.278289
     45          8           0        4.067592   -5.572220   -0.541583
     46          6           0        3.163657   -6.356941   -1.354536
     47          6           0       -2.196671   -3.594411   -0.491234
     48          6           0       -3.503255   -2.880585   -0.185544
     49          6           0       -4.196924   -1.920054   -0.872389
     50          6           0       -3.956610   -1.553470   -2.339818
     51          6           0       -5.455490   -1.281387   -0.305572
     52          6           0       -6.673139   -2.230711   -0.423302
     53          6           0       -7.534898   -2.254837    0.917339
     54          6           0       -8.438487   -0.956870    0.952901
     55          6           0       -8.198523   -0.131463    2.196635
     56          6           0       -9.931687   -1.237597    0.787897
     57          6           0      -10.815390   -0.248968    0.086189
     58          6           0      -12.270106   -0.457245    0.420911
     59          6           0      -12.846761    0.535542    1.389103
     60          6           0      -12.751666    0.134954    2.969889
     61          6           0      -14.366478    0.795605    1.022811
     62          6           0      -14.341470    1.743992   -0.168154
     63          6           0      -15.326860    1.340493   -1.262952
     64          6           0      -16.153672    2.468343   -1.902975
     65          6           0      -15.418517    3.825296   -2.033747
     66          6           0      -17.623004    2.546294   -1.264346
     67          1           0        0.886727    1.452124    0.072615
     68          1           0        5.938978    5.480587   -0.159960
     69          1           0        9.847815    0.539468   -0.191079
     70          1           0        2.434783   -3.012341   -0.687984
     71          1           0        0.834947   -1.227703    0.907339
     72          1           0        0.578183   -2.039808   -1.742359
     73          1           0        1.259754   -0.430334   -1.904544
     74          1           0       -0.312440   -0.795282   -0.933711
     75          1           0        2.570286   -2.582032    2.369207
     76          1           0        2.928495   -4.035384    1.558516
     77          1           0        0.383266   -3.135506    2.466135
     78          1           0        0.995893   -4.786381    2.337275
     79          1           0       -0.010319    3.219070    0.569812
     80          1           0        0.103549    4.451196   -0.674837
     81          1           0        0.219609    4.733021    1.070223
     82          1           0        1.835413    7.303899   -1.082044
     83          1           0        1.985973    8.097032    0.440900
     84          1           0        1.068602    6.643551    0.397323
     85          1           0        8.652936    5.038458    0.499603
     86          1           0        9.702260    2.702782   -1.149532
     87          1           0        7.773178    5.131559   -2.169308
     88          1           0        9.572140    4.797452   -2.011554
     89          1           0        8.756034    6.127288   -1.175219
     90          1           0       11.022303    2.232981    1.227096
     91          1           0       10.202108    3.664015    1.673905
     92          1           0       11.438618    5.057459    0.397608
     93          1           0       11.639016    3.818702   -0.904573
     94          1           0       12.584918    3.718716    0.592293
     95          1           0       10.423920   -1.632735    0.733614
     96          1           0       10.372115   -2.101306   -0.948587
     97          1           0       10.106721   -3.329848    0.288561
     98          1           0        5.090436   -4.298080    0.976556
     99          1           0        2.490241   -6.922753   -0.711188
    100          1           0        3.717071   -6.987615   -2.050823
    101          1           0        2.521922   -5.759523   -2.002438
    102          1           0       -2.451368   -4.630489   -0.713406
    103          1           0       -1.668074   -3.164724   -1.342438
    104          1           0       -3.913571   -3.094620    0.800922
    105          1           0       -4.692141   -2.060721   -2.964365
    106          1           0       -2.906861   -1.761140   -2.543892
    107          1           0       -4.096840   -0.473120   -2.369729
    108          1           0       -5.667379   -0.342211   -0.815676
    109          1           0       -5.143125   -1.037972    0.710238
    110          1           0       -6.266550   -3.230510   -0.573942
    111          1           0       -7.270425   -1.961128   -1.294260
    112          1           0       -6.812888   -2.313287    1.731239
    113          1           0       -8.135244   -3.156791    1.035167
    114          1           0       -8.185162   -0.287459    0.131002
    115          1           0       -9.095716    0.003269    2.799012
    116          1           0       -7.818933    0.858139    1.939917
    117          1           0       -7.522744   -0.585176    2.921388
    118          1           0      -10.411008   -1.568130    1.709075
    119          1           0       -9.951294   -2.055488    0.068163
    120          1           0      -10.703267   -0.336744   -0.994519
    121          1           0      -10.485579    0.746849    0.384228
    122          1           0      -12.287733   -1.441364    0.888026
    123          1           0      -12.704438   -0.386712   -0.576308
    124          1           0      -12.255472    1.433799    1.206235
    125          1           0      -12.432625    1.032791    3.498411
    126          1           0      -12.182227   -0.786108    3.094184
    127          1           0      -13.693884   -0.060467    3.483355
    128          1           0      -14.895179    1.316873    1.819798
    129          1           0      -14.836594   -0.136574    0.710220
    130          1           0      -13.371002    1.959288   -0.614606
    131          1           0      -14.651664    2.693293    0.269239
    132          1           0      -15.895163    0.484256   -0.901204
    133          1           0      -14.838749    0.934936   -2.149100
    134          1           0      -16.316059    2.212082   -2.949517
    135          1           0      -16.016740    4.674879   -1.702590
    136          1           0      -15.408166    4.098217   -3.088756
    137          1           0      -14.446601    3.653840   -1.571053
    138          1           0      -17.473028    2.396414   -0.195021
    139          1           0      -17.992742    1.607356   -1.677861
    140          1           0      -18.257873    3.411249   -1.460334
 ---------------------------------------------------------------------

 SCF Done:  E(RCAM-B3LYP) =  -3007.14824018     A.U. after   17 cycles

 Excitation energies and oscillator strengths:

 Excited State   1:      Singlet-A      1.7083 eV  725.77 nm  f=0.3760  <S**2>=0.000
     245 -> 248        0.17691
     246 -> 247        0.68642
     245 <- 248        0.10705
 This state for optimization and/or second-order correction.
 Total Energy, E(TD-HF/TD-DFT) =  -3007.08546077
 Copying the excited state density for this state as the 1-particle RhoCI density.

 Excited State   2:      Singlet-A      2.2337 eV  555.06 nm  f=0.1124  <S**2>=0.000
     245 -> 247        0.63569
     246 -> 248       -0.29774

 Excited State   3:      Singlet-A      3.3699 eV  367.91 nm  f=0.0166  <S**2>=0.000
     244 -> 247        0.65315
     246 -> 248        0.20506

 Excited State   4:      Singlet-A      3.4469 eV  359.69 nm  f=0.0249  <S**2>=0.000
     240 -> 247       -0.18223
     240 -> 249       -0.13240
     241 -> 247       -0.15316
     242 -> 247        0.48645
     242 -> 249        0.30527
     242 -> 250        0.11821
     242 -> 251       -0.10043
     246 -> 248        0.13990

 Excited State   5:      Singlet-A      3.5281 eV  351.42 nm  f=0.0347  <S**2>=0.000
     243 -> 247        0.57249
     243 -> 248       -0.11682
     243 -> 249       -0.25148
     243 -> 250        0.21232
     246 -> 248       -0.14189

 The electronic state is 1-A.
 Alpha  occ. eigenvalues --  -46.88597 -19.25924 -19.25369 -19.21465 -19.18620
 Alpha  occ. eigenvalues --  -19.18532 -19.17910 -14.42902 -14.41530 -14.40308
 Alpha  occ. eigenvalues --  -14.37822 -10.40835 -10.38218 -10.34920 -10.33110
 Alpha  occ. eigenvalues --  -10.32691 -10.31347 -10.31220 -10.31172 -10.31170
 Alpha  occ. eigenvalues --  -10.31093 -10.30885 -10.29698 -10.29469 -10.28660
 Alpha  occ. eigenvalues --  -10.28125 -10.28048 -10.27944 -10.27841 -10.27815
 Alpha  occ. eigenvalues --  -10.27684 -10.27640 -10.27502 -10.27490 -10.27364
 Alpha  occ. eigenvalues --  -10.27272 -10.26630 -10.26574 -10.26531 -10.26443
 Alpha  occ. eigenvalues --  -10.26382 -10.26307 -10.26275 -10.26210 -10.26179
 Alpha  occ. eigenvalues --  -10.26115 -10.25914 -10.25824 -10.25588 -10.25542
 Alpha  occ. eigenvalues --  -10.25498 -10.25300 -10.25261 -10.25145 -10.25131
 Alpha  occ. eigenvalues --  -10.24985 -10.24722 -10.24586 -10.24576 -10.24476
 Alpha  occ. eigenvalues --  -10.24456 -10.24447 -10.24438 -10.24226 -10.24181
 Alpha  occ. eigenvalues --  -10.22765  -3.17093  -1.92021  -1.91516  -1.91414
 Alpha  occ. eigenvalues --   -1.18268  -1.17942  -1.10495  -1.10403  -1.09320
 Alpha  occ. eigenvalues --   -1.07748  -1.06211  -1.04154  -1.03438  -1.02493
 Alpha  occ. eigenvalues --   -0.93685  -0.91208  -0.90550  -0.90159  -0.89171
 Alpha  occ. eigenvalues --   -0.89034  -0.88441  -0.87676  -0.87454  -0.87229
 Alpha  occ. eigenvalues --   -0.86697  -0.85620  -0.84650  -0.84037  -0.83559
 Alpha  occ. eigenvalues --   -0.83117  -0.81925  -0.81129  -0.80925  -0.80071
 Alpha  occ. eigenvalues --   -0.79993  -0.78732  -0.78363  -0.77996  -0.76074
 Alpha  occ. eigenvalues --   -0.75819  -0.75548  -0.75404  -0.75345  -0.74356
 Alpha  occ. eigenvalues --   -0.73763  -0.72861  -0.71652  -0.70590  -0.69125
 Alpha  occ. eigenvalues --   -0.68933  -0.68385  -0.67468  -0.67238  -0.66050
 Alpha  occ. eigenvalues --   -0.65760  -0.65336  -0.64893  -0.64393  -0.64302
 Alpha  occ. eigenvalues --   -0.64187  -0.63379  -0.62940  -0.61076  -0.60548
 Alpha  occ. eigenvalues --   -0.60389  -0.60105  -0.59490  -0.59148  -0.58095
 Alpha  occ. eigenvalues --   -0.57765  -0.57124  -0.56788  -0.56180  -0.55975
 Alpha  occ. eigenvalues --   -0.55682  -0.55345  -0.54911  -0.54830  -0.54613
 Alpha  occ. eigenvalues --   -0.54349  -0.54081  -0.53904  -0.53301  -0.53196
 Alpha  occ. eigenvalues --   -0.53024  -0.52606  -0.52444  -0.52121  -0.52084
 Alpha  occ. eigenvalues --   -0.51770  -0.51674  -0.51556  -0.51249  -0.50817
 Alpha  occ. eigenvalues --   -0.50754  -0.50258  -0.50150  -0.49747  -0.49536
 Alpha  occ. eigenvalues --   -0.49451  -0.49329  -0.49266  -0.49148  -0.48967
 Alpha  occ. eigenvalues --   -0.48725  -0.48576  -0.48423  -0.48085  -0.47967
 Alpha  occ. eigenvalues --   -0.47781  -0.47503  -0.47185  -0.47097  -0.46894
 Alpha  occ. eigenvalues --   -0.46494  -0.46328  -0.46270  -0.46069  -0.45850
 Alpha  occ. eigenvalues --   -0.45618  -0.45568  -0.45283  -0.45079  -0.45068
 Alpha  occ. eigenvalues --   -0.44689  -0.44669  -0.44616  -0.44511  -0.44187
 Alpha  occ. eigenvalues --   -0.43822  -0.43621  -0.43513  -0.43272  -0.43190
 Alpha  occ. eigenvalues --   -0.42964  -0.42748  -0.42607  -0.42470  -0.42370
 Alpha  occ. eigenvalues --   -0.42283  -0.41793  -0.41657  -0.41447  -0.41423
 Alpha  occ. eigenvalues --   -0.41258  -0.41030  -0.40669  -0.40310  -0.40143
 Alpha  occ. eigenvalues --   -0.39912  -0.39593  -0.38945  -0.38898  -0.38733
 Alpha  occ. eigenvalues --   -0.38697  -0.38415  -0.37996  -0.37763  -0.37561
 Alpha  occ. eigenvalues --   -0.37470  -0.36980  -0.36826  -0.36787  -0.36336
 Alpha  occ. eigenvalues --   -0.36227  -0.35718  -0.35127  -0.34927  -0.34408
 Alpha  occ. eigenvalues --   -0.33913  -0.33877  -0.32749  -0.31976  -0.30633
 Alpha  occ. eigenvalues --   -0.30319  -0.30281  -0.30058  -0.29095  -0.23886
 Alpha  occ. eigenvalues --   -0.20925
 Alpha virt. eigenvalues --   -0.08487  -0.01522   0.00540   0.02887   0.03449
 Alpha virt. eigenvalues --    0.03750   0.04675   0.05092   0.06606   0.06749
 Alpha virt. eigenvalues --    0.07900   0.08304   0.08829   0.09095   0.09175

 Mulliken charges:
               1
     1  Mg   0.831618
     2  C   -0.041867
     3  C   -0.062969
     4  C   -0.051395
     5  C   -0.137869
     6  N   -0.285349
     7  C   -0.076322
     8  C   -0.015983
     9  C   -0.074288
    10  C    0.046308
    11  C    0.077618
    12  C    0.037096
    13  C    0.106659
    14  C    0.139373
    15  O   -0.208842
    16  O   -0.330661
    17  N   -0.345802
    18  C    0.089322
    19  C   -0.100176
    20  C   -0.035286
    21  C    0.117912
    22  C    0.084114
    23  C    0.007009
    24  O   -0.200637
    25  C    0.046441
    26  N   -0.309653
    27  C    0.052140
    28  C   -0.036629
    29  C   -0.054873
    30  C    0.065051
    31  C    0.075385
    32  C    0.021169
    33  C    0.022256
    34  N   -0.277900
    35  C    0.140892
    36  C   -0.164660
    37  C   -0.006660
    38  C    0.136941
    39  C    0.138731
    40  C    0.045029
    41  O   -0.155653
    42  C   -0.045910
    43  C    0.184624
    44  O   -0.217833
    45  O   -0.287644
    46  C    0.182296
    47  C    0.301330
    48  C   -0.106695
    49  C   -0.233035
    50  C    0.101447
    51  C    0.069085
    52  C    0.010370
    53  C    0.068358
    54  C   -0.113393
    55  C    0.054720
    56  C    0.021582
    57  C    0.026105
    58  C    0.060441
    59  C   -0.141560
    60  C    0.041111
    61  C    0.096069
    62  C   -0.039427
    63  C    0.031569
    64  C   -0.158535
    65  C    0.058381
    66  C    0.032236
    67  H   -0.030649
    68  H   -0.004377
    69  H   -0.037665
    70  H    0.017847
    71  H    0.009530
    72  H    0.024843
    73  H    0.031516
    74  H    0.026581
    75  H    0.011317
    76  H    0.014453
    77  H    0.014103
    78  H    0.043026
    79  H    0.010506
    80  H    0.040048
    81  H    0.038195
    82  H    0.040212
    83  H    0.023960
    84  H   -0.011461
    85  H    0.017552
    86  H    0.018691
    87  H    0.021193
    88  H    0.020635
    89  H    0.006151
    90  H    0.013813
    91  H   -0.004081
    92  H    0.019552
    93  H    0.010813
    94  H    0.011918
    95  H    0.009930
    96  H    0.018833
    97  H    0.031529
    98  H    0.045429
    99  H    0.041475
   100  H    0.034300
   101  H    0.034417
   102  H    0.033256
   103  H   -0.002875
   104  H   -0.008182
   105  H    0.039931
   106  H    0.010495
   107  H    0.008288
   108  H   -0.004443
   109  H    0.013729
   110  H    0.004641
   111  H    0.006319
   112  H   -0.007485
   113  H   -0.002776
   114  H   -0.008416
   115  H   -0.001959
   116  H    0.006426
   117  H   -0.002867
   118  H   -0.002975
   119  H   -0.016880
   120  H   -0.010775
   121  H   -0.018518
   122  H   -0.004558
   123  H   -0.004381
   124  H   -0.003896
   125  H    0.013303
   126  H    0.008686
   127  H    0.002847
   128  H   -0.002290
   129  H    0.005758
   130  H    0.015106
   131  H    0.005986
   132  H   -0.011378
   133  H   -0.009218
   134  H   -0.009096
   135  H   -0.003898
   136  H   -0.004694
   137  H    0.017797
   138  H    0.004883
   139  H    0.008397
   140  H    0.018302
 Sum of Mulliken charges =  -0.00000

 Dipole moment (field-independent basis, Debye):
    X=             -6.3505    Y=              2.9217    Z=              1.6327  Tot=              7.1785
 Quadrupole moment (field-independent basis, Debye-Ang):
   XX=           -410.1453   YY=           -434.2312   ZZ=           -405.1287
   XY=             36.6449   XZ=             13.4499   YZ=            -11.5510

 Normal termination of Gaussian 16 at Thu May  5 14:25:34 2022.
