 Gaussian 16, Revision A.03,
 Gaussian 16:  ES64L-G16RevA.03 25-Dec-2016

 ---------------------------------
 #p PBE1PBE/Def2SVP td=(nstates=5)
 ---------------------------------

 -----------------------------------------------------
 step_951_chromophore_21 TDDFT with PBE1PBE functional
 -----------------------------------------------------
 Symbolic Z-matrix:
 Charge =  0 Multiplicity = 1

                         Standard orientation:
 ---------------------------------------------------------------------
 Center     Atomic      Atomic             Coordinates (Angstroms)
 Number     Number       Type             X           Y           Z
 ---------------------------------------------------------------------
      1         12           0        5.384973    1.004698    0.388806
      2          6           0        5.116347   -2.452654    0.116920
      3          6           0        1.963070    1.288965    0.163165
      4          6           0        5.789668    4.411386    0.005086
      5          6           0        8.771588    0.575882   -0.009362
      6          7           0        3.744526   -0.378769    0.322478
      7          6           0        3.870248   -1.789600    0.270380
      8          6           0        2.421523   -2.410389    0.220430
      9          6           0        1.489613   -1.177971    0.037127
     10          6           0        2.488258   -0.025137    0.167930
     11          6           0        0.695238   -1.081430   -1.237044
     12          6           0        2.222443   -3.206148    1.546501
     13          6           0        0.873437   -3.845427    1.799687
     14          6           0       -0.080023   -4.007033    0.542600
     15          8           0        0.212462   -4.768440   -0.328493
     16          8           0       -1.319652   -3.363355    0.589281
     17          7           0        4.082894    2.647646    0.192221
     18          6           0        2.695375    2.534994    0.166798
     19          6           0        2.069321    3.879316    0.148855
     20          6           0        3.147968    4.728349    0.184693
     21          6           0        4.434498    3.927796    0.179480
     22          6           0        0.553627    4.095489    0.251189
     23          6           0        3.199671    6.245156    0.206998
     24          8           0        4.188657    6.945109    0.296913
     25          6           0        1.963623    7.108656   -0.017458
     26          7           0        7.090566    2.292050    0.166658
     27          6           0        6.998934    3.686539    0.011572
     28          6           0        8.412269    4.291604   -0.257898
     29          6           0        9.328756    2.999385   -0.170093
     30          6           0        8.382487    1.917170    0.128905
     31          6           0        8.647620    5.098346   -1.519519
     32          6           0       10.578855    3.133246    0.799972
     33          6           0       11.622671    4.007650    0.168516
     34          7           0        6.752381   -0.600258    0.351044
     35          6           0        8.045890   -0.626604    0.108977
     36          6           0        8.513256   -1.884634    0.057799
     37          6           0        7.374952   -2.679434    0.109396
     38          6           0        6.308166   -1.836653    0.210544
     39          6           0        9.918874   -2.289159    0.025348
     40          6           0        7.010204   -4.035488    0.029559
     41          8           0        7.641301   -5.072416    0.043475
     42          6           0        5.480027   -3.940200    0.023823
     43          6           0        4.897227   -4.729468   -1.097149
     44          8           0        5.085643   -4.512585   -2.278289
     45          8           0        4.067592   -5.572220   -0.541583
     46          6           0        3.163657   -6.356941   -1.354536
     47          6           0       -2.196671   -3.594411   -0.491234
     48          6           0       -3.503255   -2.880585   -0.185544
     49          6           0       -4.196924   -1.920054   -0.872389
     50          6           0       -3.956610   -1.553470   -2.339818
     51          6           0       -5.455490   -1.281387   -0.305572
     52          6           0       -6.673139   -2.230711   -0.423302
     53          6           0       -7.534898   -2.254837    0.917339
     54          6           0       -8.438487   -0.956870    0.952901
     55          6           0       -8.198523   -0.131463    2.196635
     56          6           0       -9.931687   -1.237597    0.787897
     57          6           0      -10.815390   -0.248968    0.086189
     58          6           0      -12.270106   -0.457245    0.420911
     59          6           0      -12.846761    0.535542    1.389103
     60          6           0      -12.751666    0.134954    2.969889
     61          6           0      -14.366478    0.795605    1.022811
     62          6           0      -14.341470    1.743992   -0.168154
     63          6           0      -15.326860    1.340493   -1.262952
     64          6           0      -16.153672    2.468343   -1.902975
     65          6           0      -15.418517    3.825296   -2.033747
     66          6           0      -17.623004    2.546294   -1.264346
     67          1           0        0.886727    1.452124    0.072615
     68          1           0        5.938978    5.480587   -0.159960
     69          1           0        9.847815    0.539468   -0.191079
     70          1           0        2.434783   -3.012341   -0.687984
     71          1           0        0.834947   -1.227703    0.907339
     72          1           0        0.578183   -2.039808   -1.742359
     73          1           0        1.259754   -0.430334   -1.904544
     74          1           0       -0.312440   -0.795282   -0.933711
     75          1           0        2.570286   -2.582032    2.369207
     76          1           0        2.928495   -4.035384    1.558516
     77          1           0        0.383266   -3.135506    2.466135
     78          1           0        0.995893   -4.786381    2.337275
     79          1           0       -0.010319    3.219070    0.569812
     80          1           0        0.103549    4.451196   -0.674837
     81          1           0        0.219609    4.733021    1.070223
     82          1           0        1.835413    7.303899   -1.082044
     83          1           0        1.985973    8.097032    0.440900
     84          1           0        1.068602    6.643551    0.397323
     85          1           0        8.652936    5.038458    0.499603
     86          1           0        9.702260    2.702782   -1.149532
     87          1           0        7.773178    5.131559   -2.169308
     88          1           0        9.572140    4.797452   -2.011554
     89          1           0        8.756034    6.127288   -1.175219
     90          1           0       11.022303    2.232981    1.227096
     91          1           0       10.202108    3.664015    1.673905
     92          1           0       11.438618    5.057459    0.397608
     93          1           0       11.639016    3.818702   -0.904573
     94          1           0       12.584918    3.718716    0.592293
     95          1           0       10.423920   -1.632735    0.733614
     96          1           0       10.372115   -2.101306   -0.948587
     97          1           0       10.106721   -3.329848    0.288561
     98          1           0        5.090436   -4.298080    0.976556
     99          1           0        2.490241   -6.922753   -0.711188
    100          1           0        3.717071   -6.987615   -2.050823
    101          1           0        2.521922   -5.759523   -2.002438
    102          1           0       -2.451368   -4.630489   -0.713406
    103          1           0       -1.668074   -3.164724   -1.342438
    104          1           0       -3.913571   -3.094620    0.800922
    105          1           0       -4.692141   -2.060721   -2.964365
    106          1           0       -2.906861   -1.761140   -2.543892
    107          1           0       -4.096840   -0.473120   -2.369729
    108          1           0       -5.667379   -0.342211   -0.815676
    109          1           0       -5.143125   -1.037972    0.710238
    110          1           0       -6.266550   -3.230510   -0.573942
    111          1           0       -7.270425   -1.961128   -1.294260
    112          1           0       -6.812888   -2.313287    1.731239
    113          1           0       -8.135244   -3.156791    1.035167
    114          1           0       -8.185162   -0.287459    0.131002
    115          1           0       -9.095716    0.003269    2.799012
    116          1           0       -7.818933    0.858139    1.939917
    117          1           0       -7.522744   -0.585176    2.921388
    118          1           0      -10.411008   -1.568130    1.709075
    119          1           0       -9.951294   -2.055488    0.068163
    120          1           0      -10.703267   -0.336744   -0.994519
    121          1           0      -10.485579    0.746849    0.384228
    122          1           0      -12.287733   -1.441364    0.888026
    123          1           0      -12.704438   -0.386712   -0.576308
    124          1           0      -12.255472    1.433799    1.206235
    125          1           0      -12.432625    1.032791    3.498411
    126          1           0      -12.182227   -0.786108    3.094184
    127          1           0      -13.693884   -0.060467    3.483355
    128          1           0      -14.895179    1.316873    1.819798
    129          1           0      -14.836594   -0.136574    0.710220
    130          1           0      -13.371002    1.959288   -0.614606
    131          1           0      -14.651664    2.693293    0.269239
    132          1           0      -15.895163    0.484256   -0.901204
    133          1           0      -14.838749    0.934936   -2.149100
    134          1           0      -16.316059    2.212082   -2.949517
    135          1           0      -16.016740    4.674879   -1.702590
    136          1           0      -15.408166    4.098217   -3.088756
    137          1           0      -14.446601    3.653840   -1.571053
    138          1           0      -17.473028    2.396414   -0.195021
    139          1           0      -17.992742    1.607356   -1.677861
    140          1           0      -18.257873    3.411249   -1.460334
 ---------------------------------------------------------------------

 SCF Done:  E(RPBE1PBE) =  -3005.33636417     A.U. after   15 cycles

 Excitation energies and oscillator strengths:

 Excited State   1:      Singlet-A      1.8540 eV  668.75 nm  f=0.3606  <S**2>=0.000
     245 -> 248        0.17466
     246 -> 247        0.69356
     246 <- 247       -0.11005
 This state for optimization and/or second-order correction.
 Total Energy, E(TD-HF/TD-DFT) =  -3005.26823222
 Copying the excited state density for this state as the 1-particle RhoCI density.

 Excited State   2:      Singlet-A      2.2417 eV  553.08 nm  f=0.1137  <S**2>=0.000
     245 -> 247        0.64853
     246 -> 248       -0.27086

 Excited State   3:      Singlet-A      2.9082 eV  426.32 nm  f=0.0002  <S**2>=0.000
     242 -> 247       -0.11389
     243 -> 247        0.59910
     243 -> 249        0.17128
     244 -> 247       -0.28656

 Excited State   4:      Singlet-A      2.9380 eV  422.01 nm  f=0.0003  <S**2>=0.000
     242 -> 247        0.42568
     242 -> 249       -0.11358
     243 -> 247        0.28848
     244 -> 247        0.44573

 Excited State   5:      Singlet-A      3.0394 eV  407.92 nm  f=0.0001  <S**2>=0.000
     242 -> 247        0.51952
     244 -> 247       -0.43847
     246 -> 248       -0.13203

 The electronic state is 1-A.
 Alpha  occ. eigenvalues --  -46.91988 -19.26609 -19.26032 -19.21685 -19.18809
 Alpha  occ. eigenvalues --  -19.18658 -19.18261 -14.42332 -14.41136 -14.39836
 Alpha  occ. eigenvalues --  -14.37538 -10.37910 -10.35234 -10.31888 -10.30321
 Alpha  occ. eigenvalues --  -10.30079 -10.29296 -10.28872 -10.28731 -10.28593
 Alpha  occ. eigenvalues --  -10.28396 -10.28393 -10.27535 -10.26880 -10.26159
 Alpha  occ. eigenvalues --  -10.25958 -10.25662 -10.25638 -10.25443 -10.25341
 Alpha  occ. eigenvalues --  -10.25313 -10.25289 -10.25205 -10.25200 -10.25116
 Alpha  occ. eigenvalues --  -10.25019 -10.24419 -10.24266 -10.24215 -10.24009
 Alpha  occ. eigenvalues --  -10.23970 -10.23915 -10.23863 -10.23823 -10.23774
 Alpha  occ. eigenvalues --  -10.23518 -10.23508 -10.23504 -10.23349 -10.23257
 Alpha  occ. eigenvalues --  -10.22996 -10.22970 -10.22730 -10.22571 -10.22567
 Alpha  occ. eigenvalues --  -10.22422 -10.22293 -10.22144 -10.22134 -10.21993
 Alpha  occ. eigenvalues --  -10.21984 -10.21955 -10.21864 -10.21588 -10.21564
 Alpha  occ. eigenvalues --  -10.20611  -3.14066  -1.86936  -1.86408  -1.86309
 Alpha  occ. eigenvalues --   -1.13081  -1.12789  -1.05285  -1.05067  -1.04171
 Alpha  occ. eigenvalues --   -1.02605  -1.01116  -0.98690  -0.97994  -0.97137
 Alpha  occ. eigenvalues --   -0.88169  -0.85301  -0.84686  -0.84346  -0.83334
 Alpha  occ. eigenvalues --   -0.83272  -0.82677  -0.81961  -0.81602  -0.81535
 Alpha  occ. eigenvalues --   -0.81042  -0.79847  -0.78817  -0.78394  -0.77828
 Alpha  occ. eigenvalues --   -0.77386  -0.76221  -0.75345  -0.75266  -0.74171
 Alpha  occ. eigenvalues --   -0.74131  -0.72849  -0.72621  -0.72368  -0.70264
 Alpha  occ. eigenvalues --   -0.70186  -0.69731  -0.69612  -0.69516  -0.68518
 Alpha  occ. eigenvalues --   -0.68060  -0.67353  -0.66052  -0.64930  -0.63524
 Alpha  occ. eigenvalues --   -0.63253  -0.62763  -0.61754  -0.61511  -0.60372
 Alpha  occ. eigenvalues --   -0.60136  -0.59757  -0.59383  -0.58966  -0.58682
 Alpha  occ. eigenvalues --   -0.58375  -0.57560  -0.57544  -0.55343  -0.54986
 Alpha  occ. eigenvalues --   -0.54901  -0.54511  -0.54098  -0.53727  -0.52675
 Alpha  occ. eigenvalues --   -0.52258  -0.51606  -0.51234  -0.50782  -0.50463
 Alpha  occ. eigenvalues --   -0.50087  -0.49796  -0.49431  -0.49391  -0.49150
 Alpha  occ. eigenvalues --   -0.48783  -0.48621  -0.48364  -0.47847  -0.47786
 Alpha  occ. eigenvalues --   -0.47549  -0.47168  -0.46931  -0.46680  -0.46353
 Alpha  occ. eigenvalues --   -0.46317  -0.46207  -0.46130  -0.45809  -0.45438
 Alpha  occ. eigenvalues --   -0.45313  -0.44774  -0.44634  -0.44352  -0.44187
 Alpha  occ. eigenvalues --   -0.44066  -0.43905  -0.43861  -0.43672  -0.43605
 Alpha  occ. eigenvalues --   -0.43322  -0.43199  -0.43064  -0.42707  -0.42544
 Alpha  occ. eigenvalues --   -0.42307  -0.42150  -0.41784  -0.41680  -0.41462
 Alpha  occ. eigenvalues --   -0.41185  -0.41048  -0.40932  -0.40808  -0.40596
 Alpha  occ. eigenvalues --   -0.40419  -0.40207  -0.40081  -0.39835  -0.39649
 Alpha  occ. eigenvalues --   -0.39413  -0.39405  -0.39327  -0.39197  -0.38974
 Alpha  occ. eigenvalues --   -0.38624  -0.38453  -0.38215  -0.38118  -0.38036
 Alpha  occ. eigenvalues --   -0.37718  -0.37543  -0.37401  -0.37232  -0.37070
 Alpha  occ. eigenvalues --   -0.37059  -0.36507  -0.36428  -0.36266  -0.36174
 Alpha  occ. eigenvalues --   -0.35969  -0.35781  -0.35543  -0.35120  -0.35082
 Alpha  occ. eigenvalues --   -0.34863  -0.34509  -0.33864  -0.33709  -0.33660
 Alpha  occ. eigenvalues --   -0.33520  -0.33261  -0.32818  -0.32652  -0.32469
 Alpha  occ. eigenvalues --   -0.32367  -0.32040  -0.31914  -0.31658  -0.31321
 Alpha  occ. eigenvalues --   -0.31061  -0.30604  -0.29955  -0.29756  -0.29644
 Alpha  occ. eigenvalues --   -0.29105  -0.28861  -0.27957  -0.27445  -0.26212
 Alpha  occ. eigenvalues --   -0.25629  -0.25042  -0.24927  -0.24822  -0.20807
 Alpha  occ. eigenvalues --   -0.18552
 Alpha virt. eigenvalues --   -0.10965  -0.05030  -0.03639  -0.01397  -0.00906
 Alpha virt. eigenvalues --    0.00136   0.00563   0.01366   0.01958   0.03040
 Alpha virt. eigenvalues --    0.04058   0.04707   0.05129   0.05557   0.05835

 Mulliken charges:
               1
     1  Mg   0.979388
     2  C   -0.031785
     3  C   -0.047440
     4  C   -0.046689
     5  C   -0.117905
     6  N   -0.396749
     7  C    0.003734
     8  C   -0.100221
     9  C   -0.144336
    10  C    0.079840
    11  C    0.018617
    12  C   -0.008155
    13  C    0.029656
    14  C    0.204159
    15  O   -0.239912
    16  O   -0.362871
    17  N   -0.462674
    18  C    0.108656
    19  C   -0.120501
    20  C   -0.100410
    21  C    0.160649
    22  C    0.029982
    23  C    0.057578
    24  O   -0.237773
    25  C   -0.025712
    26  N   -0.413703
    27  C    0.081234
    28  C   -0.104571
    29  C   -0.142870
    30  C    0.121755
    31  C    0.016844
    32  C   -0.038917
    33  C   -0.049051
    34  N   -0.417159
    35  C    0.151584
    36  C   -0.176847
    37  C   -0.055592
    38  C    0.172510
    39  C    0.085151
    40  C    0.144681
    41  O   -0.206376
    42  C   -0.158625
    43  C    0.282008
    44  O   -0.256027
    45  O   -0.323934
    46  C    0.128035
    47  C    0.256017
    48  C   -0.118711
    49  C   -0.275356
    50  C    0.036180
    51  C    0.010639
    52  C   -0.057850
    53  C    0.013533
    54  C   -0.199828
    55  C    0.000388
    56  C   -0.038234
    57  C   -0.030651
    58  C    0.003281
    59  C   -0.227182
    60  C   -0.018231
    61  C    0.039714
    62  C   -0.106399
    63  C   -0.018543
    64  C   -0.248898
    65  C   -0.003795
    66  C   -0.033641
    67  H    0.001138
    68  H    0.027687
    69  H   -0.004884
    70  H    0.059052
    71  H    0.047913
    72  H    0.050907
    73  H    0.060313
    74  H    0.054124
    75  H    0.043994
    76  H    0.051133
    77  H    0.046761
    78  H    0.073724
    79  H    0.035238
    80  H    0.066464
    81  H    0.062929
    82  H    0.066590
    83  H    0.050286
    84  H    0.016093
    85  H    0.053759
    86  H    0.056279
    87  H    0.049355
    88  H    0.047622
    89  H    0.033357
    90  H    0.043755
    91  H    0.031081
    92  H    0.047323
    93  H    0.037888
    94  H    0.040852
    95  H    0.038085
    96  H    0.048273
    97  H    0.059651
    98  H    0.085293
    99  H    0.062725
   100  H    0.056173
   101  H    0.055775
   102  H    0.059961
   103  H    0.027772
   104  H    0.022679
   105  H    0.067489
   106  H    0.038376
   107  H    0.036820
   108  H    0.027088
   109  H    0.045564
   110  H    0.038893
   111  H    0.038754
   112  H    0.024355
   113  H    0.028652
   114  H    0.030162
   115  H    0.025865
   116  H    0.033199
   117  H    0.023857
   118  H    0.030512
   119  H    0.019214
   120  H    0.021570
   121  H    0.014738
   122  H    0.029138
   123  H    0.029349
   124  H    0.033322
   125  H    0.040514
   126  H    0.035170
   127  H    0.029748
   128  H    0.030514
   129  H    0.037877
   130  H    0.046496
   131  H    0.041004
   132  H    0.019760
   133  H    0.023765
   134  H    0.029638
   135  H    0.023967
   136  H    0.023432
   137  H    0.045984
   138  H    0.034321
   139  H    0.037188
   140  H    0.044900
 Sum of Mulliken charges =  -0.00000

 Dipole moment (field-independent basis, Debye):
    X=             -5.9790    Y=              2.6392    Z=              1.6090  Tot=              6.7307
 Quadrupole moment (field-independent basis, Debye-Ang):
   XX=           -400.2392   YY=           -432.2050   ZZ=           -402.6101
   XY=             36.6394   XZ=             13.4771   YZ=            -11.7906

 Normal termination of Gaussian 16 at Thu May  5 14:49:50 2022.
