 Gaussian 16, Revision A.03,
 Gaussian 16:  ES64L-G16RevA.03 25-Dec-2016

 --------------------------------
 #p wB97XD/Def2SVP td=(nstates=5)
 --------------------------------

 ----------------------------------------------------
 step_951_chromophore_21 TDDFT with wB97XD functional
 ----------------------------------------------------
 Symbolic Z-matrix:
 Charge =  0 Multiplicity = 1

                         Standard orientation:
 ---------------------------------------------------------------------
 Center     Atomic      Atomic             Coordinates (Angstroms)
 Number     Number       Type             X           Y           Z
 ---------------------------------------------------------------------
      1         12           0        5.384973    1.004698    0.388806
      2          6           0        5.116347   -2.452654    0.116920
      3          6           0        1.963070    1.288965    0.163165
      4          6           0        5.789668    4.411386    0.005086
      5          6           0        8.771588    0.575882   -0.009362
      6          7           0        3.744526   -0.378769    0.322478
      7          6           0        3.870248   -1.789600    0.270380
      8          6           0        2.421523   -2.410389    0.220430
      9          6           0        1.489613   -1.177971    0.037127
     10          6           0        2.488258   -0.025137    0.167930
     11          6           0        0.695238   -1.081430   -1.237044
     12          6           0        2.222443   -3.206148    1.546501
     13          6           0        0.873437   -3.845427    1.799687
     14          6           0       -0.080023   -4.007033    0.542600
     15          8           0        0.212462   -4.768440   -0.328493
     16          8           0       -1.319652   -3.363355    0.589281
     17          7           0        4.082894    2.647646    0.192221
     18          6           0        2.695375    2.534994    0.166798
     19          6           0        2.069321    3.879316    0.148855
     20          6           0        3.147968    4.728349    0.184693
     21          6           0        4.434498    3.927796    0.179480
     22          6           0        0.553627    4.095489    0.251189
     23          6           0        3.199671    6.245156    0.206998
     24          8           0        4.188657    6.945109    0.296913
     25          6           0        1.963623    7.108656   -0.017458
     26          7           0        7.090566    2.292050    0.166658
     27          6           0        6.998934    3.686539    0.011572
     28          6           0        8.412269    4.291604   -0.257898
     29          6           0        9.328756    2.999385   -0.170093
     30          6           0        8.382487    1.917170    0.128905
     31          6           0        8.647620    5.098346   -1.519519
     32          6           0       10.578855    3.133246    0.799972
     33          6           0       11.622671    4.007650    0.168516
     34          7           0        6.752381   -0.600258    0.351044
     35          6           0        8.045890   -0.626604    0.108977
     36          6           0        8.513256   -1.884634    0.057799
     37          6           0        7.374952   -2.679434    0.109396
     38          6           0        6.308166   -1.836653    0.210544
     39          6           0        9.918874   -2.289159    0.025348
     40          6           0        7.010204   -4.035488    0.029559
     41          8           0        7.641301   -5.072416    0.043475
     42          6           0        5.480027   -3.940200    0.023823
     43          6           0        4.897227   -4.729468   -1.097149
     44          8           0        5.085643   -4.512585   -2.278289
     45          8           0        4.067592   -5.572220   -0.541583
     46          6           0        3.163657   -6.356941   -1.354536
     47          6           0       -2.196671   -3.594411   -0.491234
     48          6           0       -3.503255   -2.880585   -0.185544
     49          6           0       -4.196924   -1.920054   -0.872389
     50          6           0       -3.956610   -1.553470   -2.339818
     51          6           0       -5.455490   -1.281387   -0.305572
     52          6           0       -6.673139   -2.230711   -0.423302
     53          6           0       -7.534898   -2.254837    0.917339
     54          6           0       -8.438487   -0.956870    0.952901
     55          6           0       -8.198523   -0.131463    2.196635
     56          6           0       -9.931687   -1.237597    0.787897
     57          6           0      -10.815390   -0.248968    0.086189
     58          6           0      -12.270106   -0.457245    0.420911
     59          6           0      -12.846761    0.535542    1.389103
     60          6           0      -12.751666    0.134954    2.969889
     61          6           0      -14.366478    0.795605    1.022811
     62          6           0      -14.341470    1.743992   -0.168154
     63          6           0      -15.326860    1.340493   -1.262952
     64          6           0      -16.153672    2.468343   -1.902975
     65          6           0      -15.418517    3.825296   -2.033747
     66          6           0      -17.623004    2.546294   -1.264346
     67          1           0        0.886727    1.452124    0.072615
     68          1           0        5.938978    5.480587   -0.159960
     69          1           0        9.847815    0.539468   -0.191079
     70          1           0        2.434783   -3.012341   -0.687984
     71          1           0        0.834947   -1.227703    0.907339
     72          1           0        0.578183   -2.039808   -1.742359
     73          1           0        1.259754   -0.430334   -1.904544
     74          1           0       -0.312440   -0.795282   -0.933711
     75          1           0        2.570286   -2.582032    2.369207
     76          1           0        2.928495   -4.035384    1.558516
     77          1           0        0.383266   -3.135506    2.466135
     78          1           0        0.995893   -4.786381    2.337275
     79          1           0       -0.010319    3.219070    0.569812
     80          1           0        0.103549    4.451196   -0.674837
     81          1           0        0.219609    4.733021    1.070223
     82          1           0        1.835413    7.303899   -1.082044
     83          1           0        1.985973    8.097032    0.440900
     84          1           0        1.068602    6.643551    0.397323
     85          1           0        8.652936    5.038458    0.499603
     86          1           0        9.702260    2.702782   -1.149532
     87          1           0        7.773178    5.131559   -2.169308
     88          1           0        9.572140    4.797452   -2.011554
     89          1           0        8.756034    6.127288   -1.175219
     90          1           0       11.022303    2.232981    1.227096
     91          1           0       10.202108    3.664015    1.673905
     92          1           0       11.438618    5.057459    0.397608
     93          1           0       11.639016    3.818702   -0.904573
     94          1           0       12.584918    3.718716    0.592293
     95          1           0       10.423920   -1.632735    0.733614
     96          1           0       10.372115   -2.101306   -0.948587
     97          1           0       10.106721   -3.329848    0.288561
     98          1           0        5.090436   -4.298080    0.976556
     99          1           0        2.490241   -6.922753   -0.711188
    100          1           0        3.717071   -6.987615   -2.050823
    101          1           0        2.521922   -5.759523   -2.002438
    102          1           0       -2.451368   -4.630489   -0.713406
    103          1           0       -1.668074   -3.164724   -1.342438
    104          1           0       -3.913571   -3.094620    0.800922
    105          1           0       -4.692141   -2.060721   -2.964365
    106          1           0       -2.906861   -1.761140   -2.543892
    107          1           0       -4.096840   -0.473120   -2.369729
    108          1           0       -5.667379   -0.342211   -0.815676
    109          1           0       -5.143125   -1.037972    0.710238
    110          1           0       -6.266550   -3.230510   -0.573942
    111          1           0       -7.270425   -1.961128   -1.294260
    112          1           0       -6.812888   -2.313287    1.731239
    113          1           0       -8.135244   -3.156791    1.035167
    114          1           0       -8.185162   -0.287459    0.131002
    115          1           0       -9.095716    0.003269    2.799012
    116          1           0       -7.818933    0.858139    1.939917
    117          1           0       -7.522744   -0.585176    2.921388
    118          1           0      -10.411008   -1.568130    1.709075
    119          1           0       -9.951294   -2.055488    0.068163
    120          1           0      -10.703267   -0.336744   -0.994519
    121          1           0      -10.485579    0.746849    0.384228
    122          1           0      -12.287733   -1.441364    0.888026
    123          1           0      -12.704438   -0.386712   -0.576308
    124          1           0      -12.255472    1.433799    1.206235
    125          1           0      -12.432625    1.032791    3.498411
    126          1           0      -12.182227   -0.786108    3.094184
    127          1           0      -13.693884   -0.060467    3.483355
    128          1           0      -14.895179    1.316873    1.819798
    129          1           0      -14.836594   -0.136574    0.710220
    130          1           0      -13.371002    1.959288   -0.614606
    131          1           0      -14.651664    2.693293    0.269239
    132          1           0      -15.895163    0.484256   -0.901204
    133          1           0      -14.838749    0.934936   -2.149100
    134          1           0      -16.316059    2.212082   -2.949517
    135          1           0      -16.016740    4.674879   -1.702590
    136          1           0      -15.408166    4.098217   -3.088756
    137          1           0      -14.446601    3.653840   -1.571053
    138          1           0      -17.473028    2.396414   -0.195021
    139          1           0      -17.992742    1.607356   -1.677861
    140          1           0      -18.257873    3.411249   -1.460334
 ---------------------------------------------------------------------

 SCF Done:  E(RwB97XD) =  -3007.84869734     A.U. after   18 cycles

 Excitation energies and oscillator strengths:

 Excited State   1:      Singlet-A      1.6558 eV  748.78 nm  f=0.3749  <S**2>=0.000
     245 -> 248        0.18168
     246 -> 247        0.68431
     245 <- 248        0.11586
 This state for optimization and/or second-order correction.
 Total Energy, E(TD-HF/TD-DFT) =  -3007.78784692
 Copying the excited state density for this state as the 1-particle RhoCI density.

 Excited State   2:      Singlet-A      2.1791 eV  568.98 nm  f=0.1095  <S**2>=0.000
     245 -> 247        0.63409
     246 -> 248       -0.29953

 Excited State   3:      Singlet-A      3.4027 eV  364.37 nm  f=0.0276  <S**2>=0.000
     244 -> 247        0.63701
     246 -> 248        0.23019

 Excited State   4:      Singlet-A      3.4577 eV  358.58 nm  f=0.0226  <S**2>=0.000
     242 -> 247        0.51920
     242 -> 249        0.36122
     242 -> 250        0.16815
     246 -> 248        0.13235

 Excited State   5:      Singlet-A      3.5705 eV  347.25 nm  f=0.3176  <S**2>=0.000
     243 -> 247        0.42383
     243 -> 248       -0.10128
     243 -> 249       -0.21440
     243 -> 250        0.19433
     244 -> 247        0.10152
     245 -> 247       -0.18906
     246 -> 248       -0.38933

 The electronic state is 1-A.
 Alpha  occ. eigenvalues --  -46.94944 -19.31154 -19.30567 -19.26353 -19.23675
 Alpha  occ. eigenvalues --  -19.23479 -19.22932 -14.47520 -14.46119 -14.44918
 Alpha  occ. eigenvalues --  -14.42385 -10.44673 -10.42037 -10.38918 -10.37079
 Alpha  occ. eigenvalues --  -10.36586 -10.35392 -10.35307 -10.35206 -10.35196
 Alpha  occ. eigenvalues --  -10.35010 -10.34886 -10.33672 -10.33647 -10.32571
 Alpha  occ. eigenvalues --  -10.32185 -10.32031 -10.31967 -10.31952 -10.31881
 Alpha  occ. eigenvalues --  -10.31791 -10.31668 -10.31619 -10.31453 -10.31308
 Alpha  occ. eigenvalues --  -10.31283 -10.30646 -10.30560 -10.30545 -10.30350
 Alpha  occ. eigenvalues --  -10.30291 -10.30233 -10.30224 -10.30197 -10.30163
 Alpha  occ. eigenvalues --  -10.29982 -10.29882 -10.29817 -10.29541 -10.29537
 Alpha  occ. eigenvalues --  -10.29353 -10.29178 -10.29144 -10.29069 -10.29008
 Alpha  occ. eigenvalues --  -10.28932 -10.28560 -10.28512 -10.28507 -10.28382
 Alpha  occ. eigenvalues --  -10.28372 -10.28352 -10.28300 -10.28043 -10.27997
 Alpha  occ. eigenvalues --  -10.26735  -3.20871  -1.94491  -1.93963  -1.93867
 Alpha  occ. eigenvalues --   -1.20429  -1.20130  -1.12740  -1.12602  -1.11514
 Alpha  occ. eigenvalues --   -1.09924  -1.08249  -1.06183  -1.05482  -1.04499
 Alpha  occ. eigenvalues --   -0.95664  -0.92981  -0.92361  -0.91992  -0.90948
 Alpha  occ. eigenvalues --   -0.90892  -0.90374  -0.89611  -0.89249  -0.89136
 Alpha  occ. eigenvalues --   -0.88624  -0.87534  -0.86495  -0.85936  -0.85451
 Alpha  occ. eigenvalues --   -0.84999  -0.83852  -0.83014  -0.82887  -0.82010
 Alpha  occ. eigenvalues --   -0.81820  -0.80695  -0.80263  -0.79911  -0.77929
 Alpha  occ. eigenvalues --   -0.77740  -0.77333  -0.77314  -0.77212  -0.76195
 Alpha  occ. eigenvalues --   -0.75682  -0.74834  -0.73610  -0.72528  -0.71060
 Alpha  occ. eigenvalues --   -0.70864  -0.70275  -0.69410  -0.69182  -0.67938
 Alpha  occ. eigenvalues --   -0.67697  -0.67261  -0.66884  -0.66369  -0.66168
 Alpha  occ. eigenvalues --   -0.66077  -0.65220  -0.64897  -0.62942  -0.62541
 Alpha  occ. eigenvalues --   -0.62370  -0.62019  -0.61483  -0.61101  -0.60053
 Alpha  occ. eigenvalues --   -0.59700  -0.59083  -0.58703  -0.58150  -0.57892
 Alpha  occ. eigenvalues --   -0.57554  -0.57252  -0.56844  -0.56798  -0.56530
 Alpha  occ. eigenvalues --   -0.56222  -0.55986  -0.55793  -0.55191  -0.55134
 Alpha  occ. eigenvalues --   -0.54918  -0.54516  -0.54328  -0.54083  -0.54007
 Alpha  occ. eigenvalues --   -0.53671  -0.53567  -0.53485  -0.53212  -0.52714
 Alpha  occ. eigenvalues --   -0.52667  -0.52223  -0.52073  -0.51646  -0.51447
 Alpha  occ. eigenvalues --   -0.51363  -0.51247  -0.51166  -0.51011  -0.50893
 Alpha  occ. eigenvalues --   -0.50613  -0.50528  -0.50310  -0.50026  -0.49867
 Alpha  occ. eigenvalues --   -0.49774  -0.49415  -0.49101  -0.48971  -0.48824
 Alpha  occ. eigenvalues --   -0.48410  -0.48260  -0.48169  -0.47984  -0.47747
 Alpha  occ. eigenvalues --   -0.47494  -0.47435  -0.47213  -0.46972  -0.46912
 Alpha  occ. eigenvalues --   -0.46631  -0.46537  -0.46522  -0.46402  -0.46117
 Alpha  occ. eigenvalues --   -0.45733  -0.45539  -0.45380  -0.45155  -0.45104
 Alpha  occ. eigenvalues --   -0.44883  -0.44649  -0.44523  -0.44372  -0.44303
 Alpha  occ. eigenvalues --   -0.44214  -0.43812  -0.43596  -0.43336  -0.43282
 Alpha  occ. eigenvalues --   -0.43108  -0.42902  -0.42554  -0.42179  -0.42046
 Alpha  occ. eigenvalues --   -0.41836  -0.41494  -0.40793  -0.40773  -0.40616
 Alpha  occ. eigenvalues --   -0.40565  -0.40281  -0.39845  -0.39714  -0.39437
 Alpha  occ. eigenvalues --   -0.39389  -0.38982  -0.38884  -0.38648  -0.38361
 Alpha  occ. eigenvalues --   -0.38077  -0.37578  -0.37029  -0.36777  -0.36391
 Alpha  occ. eigenvalues --   -0.36014  -0.35724  -0.34855  -0.34202  -0.32833
 Alpha  occ. eigenvalues --   -0.32365  -0.32268  -0.32003  -0.31236  -0.25811
 Alpha  occ. eigenvalues --   -0.22742
 Alpha virt. eigenvalues --   -0.06835   0.00403   0.02609   0.05120   0.05937
 Alpha virt. eigenvalues --    0.06511   0.06853   0.07741   0.08863   0.09395
 Alpha virt. eigenvalues --    0.10668   0.11506   0.11926   0.12301   0.12602

 Mulliken charges:
               1
     1  Mg   0.969665
     2  C   -0.042959
     3  C   -0.067846
     4  C   -0.064318
     5  C   -0.137236
     6  N   -0.359922
     7  C   -0.031548
     8  C   -0.066079
     9  C   -0.123297
    10  C    0.071275
    11  C    0.029489
    12  C    0.002345
    13  C    0.047296
    14  C    0.187873
    15  O   -0.236130
    16  O   -0.359442
    17  N   -0.429215
    18  C    0.104849
    19  C   -0.113356
    20  C   -0.087009
    21  C    0.148731
    22  C    0.038099
    23  C    0.052659
    24  O   -0.230755
    25  C   -0.011662
    26  N   -0.383050
    27  C    0.072063
    28  C   -0.084383
    29  C   -0.106386
    30  C    0.098756
    31  C    0.027410
    32  C   -0.025885
    33  C   -0.034094
    34  N   -0.372609
    35  C    0.147582
    36  C   -0.174102
    37  C   -0.053176
    38  C    0.159694
    39  C    0.093335
    40  C    0.125017
    41  O   -0.195366
    42  C   -0.113946
    43  C    0.252788
    44  O   -0.249070
    45  O   -0.319817
    46  C    0.140315
    47  C    0.274337
    48  C   -0.129794
    49  C   -0.257571
    50  C    0.052316
    51  C    0.023617
    52  C   -0.037138
    53  C    0.028824
    54  C   -0.171048
    55  C    0.010040
    56  C   -0.014695
    57  C   -0.016462
    58  C    0.019074
    59  C   -0.194203
    60  C   -0.005108
    61  C    0.056079
    62  C   -0.088146
    63  C   -0.005983
    64  C   -0.220841
    65  C    0.008802
    66  C   -0.017772
    67  H   -0.006651
    68  H    0.023505
    69  H   -0.013350
    70  H    0.043498
    71  H    0.035848
    72  H    0.044872
    73  H    0.054632
    74  H    0.048077
    75  H    0.037101
    76  H    0.037919
    77  H    0.040319
    78  H    0.070339
    79  H    0.032728
    80  H    0.063906
    81  H    0.059281
    82  H    0.063477
    83  H    0.049211
    84  H    0.008552
    85  H    0.043545
    86  H    0.042570
    87  H    0.043701
    88  H    0.040890
    89  H    0.028193
    90  H    0.037938
    91  H    0.021317
    92  H    0.041056
    93  H    0.029864
    94  H    0.035987
    95  H    0.030736
    96  H    0.042650
    97  H    0.056486
    98  H    0.075115
    99  H    0.060874
   100  H    0.052938
   101  H    0.052486
   102  H    0.056022
   103  H    0.014702
   104  H    0.018973
   105  H    0.062330
   106  H    0.031437
   107  H    0.029922
   108  H    0.019600
   109  H    0.036265
   110  H    0.028929
   111  H    0.030439
   112  H    0.013965
   113  H    0.022506
   114  H    0.015460
   115  H    0.018370
   116  H    0.028275
   117  H    0.018044
   118  H    0.015578
   119  H    0.007419
   120  H    0.015321
   121  H    0.002776
   122  H    0.017675
   123  H    0.019648
   124  H    0.018144
   125  H    0.035125
   126  H    0.027776
   127  H    0.024392
   128  H    0.023535
   129  H    0.027439
   130  H    0.035107
   131  H    0.029339
   132  H    0.010089
   133  H    0.015894
   134  H    0.019118
   135  H    0.018534
   136  H    0.018217
   137  H    0.037403
   138  H    0.025328
   139  H    0.029474
   140  H    0.040909
 Sum of Mulliken charges =  -0.00000

 Dipole moment (field-independent basis, Debye):
    X=             -6.5121    Y=              3.0726    Z=              1.6431  Tot=              7.3857
 Quadrupole moment (field-independent basis, Debye-Ang):
   XX=           -405.4715   YY=           -429.8864   ZZ=           -402.2843
   XY=             37.1163   XZ=             13.6095   YZ=            -11.8142

 Normal termination of Gaussian 16 at Thu May  5 15:31:38 2022.
