 Gaussian 16, Revision A.03,
 Gaussian 16:  ES64L-G16RevA.03 25-Dec-2016

 --------------------
 #p ZINDO=(nstates=5)
 --------------------

 -----------------------------
 step_951_chromophore_21 ZINDO
 -----------------------------
 Symbolic Z-matrix:
 Charge =  0 Multiplicity = 1

                         Standard orientation:
 ---------------------------------------------------------------------
 Center     Atomic      Atomic             Coordinates (Angstroms)
 Number     Number       Type             X           Y           Z
 ---------------------------------------------------------------------
      1         12           0        5.384973    1.004698    0.388806
      2          6           0        5.116347   -2.452654    0.116920
      3          6           0        1.963070    1.288965    0.163165
      4          6           0        5.789668    4.411386    0.005086
      5          6           0        8.771588    0.575882   -0.009362
      6          7           0        3.744526   -0.378769    0.322478
      7          6           0        3.870248   -1.789600    0.270380
      8          6           0        2.421523   -2.410389    0.220430
      9          6           0        1.489613   -1.177971    0.037127
     10          6           0        2.488258   -0.025137    0.167930
     11          6           0        0.695238   -1.081430   -1.237044
     12          6           0        2.222443   -3.206148    1.546501
     13          6           0        0.873437   -3.845427    1.799687
     14          6           0       -0.080023   -4.007033    0.542600
     15          8           0        0.212462   -4.768440   -0.328493
     16          8           0       -1.319652   -3.363355    0.589281
     17          7           0        4.082894    2.647646    0.192221
     18          6           0        2.695375    2.534994    0.166798
     19          6           0        2.069321    3.879316    0.148855
     20          6           0        3.147968    4.728349    0.184693
     21          6           0        4.434498    3.927796    0.179480
     22          6           0        0.553627    4.095489    0.251189
     23          6           0        3.199671    6.245156    0.206998
     24          8           0        4.188657    6.945109    0.296913
     25          6           0        1.963623    7.108656   -0.017458
     26          7           0        7.090566    2.292050    0.166658
     27          6           0        6.998934    3.686539    0.011572
     28          6           0        8.412269    4.291604   -0.257898
     29          6           0        9.328756    2.999385   -0.170093
     30          6           0        8.382487    1.917170    0.128905
     31          6           0        8.647620    5.098346   -1.519519
     32          6           0       10.578855    3.133246    0.799972
     33          6           0       11.622671    4.007650    0.168516
     34          7           0        6.752381   -0.600258    0.351044
     35          6           0        8.045890   -0.626604    0.108977
     36          6           0        8.513256   -1.884634    0.057799
     37          6           0        7.374952   -2.679434    0.109396
     38          6           0        6.308166   -1.836653    0.210544
     39          6           0        9.918874   -2.289159    0.025348
     40          6           0        7.010204   -4.035488    0.029559
     41          8           0        7.641301   -5.072416    0.043475
     42          6           0        5.480027   -3.940200    0.023823
     43          6           0        4.897227   -4.729468   -1.097149
     44          8           0        5.085643   -4.512585   -2.278289
     45          8           0        4.067592   -5.572220   -0.541583
     46          6           0        3.163657   -6.356941   -1.354536
     47          6           0       -2.196671   -3.594411   -0.491234
     48          6           0       -3.503255   -2.880585   -0.185544
     49          6           0       -4.196924   -1.920054   -0.872389
     50          6           0       -3.956610   -1.553470   -2.339818
     51          6           0       -5.455490   -1.281387   -0.305572
     52          6           0       -6.673139   -2.230711   -0.423302
     53          6           0       -7.534898   -2.254837    0.917339
     54          6           0       -8.438487   -0.956870    0.952901
     55          6           0       -8.198523   -0.131463    2.196635
     56          6           0       -9.931687   -1.237597    0.787897
     57          6           0      -10.815390   -0.248968    0.086189
     58          6           0      -12.270106   -0.457245    0.420911
     59          6           0      -12.846761    0.535542    1.389103
     60          6           0      -12.751666    0.134954    2.969889
     61          6           0      -14.366478    0.795605    1.022811
     62          6           0      -14.341470    1.743992   -0.168154
     63          6           0      -15.326860    1.340493   -1.262952
     64          6           0      -16.153672    2.468343   -1.902975
     65          6           0      -15.418517    3.825296   -2.033747
     66          6           0      -17.623004    2.546294   -1.264346
     67          1           0        0.886727    1.452124    0.072615
     68          1           0        5.938978    5.480587   -0.159960
     69          1           0        9.847815    0.539468   -0.191079
     70          1           0        2.434783   -3.012341   -0.687984
     71          1           0        0.834947   -1.227703    0.907339
     72          1           0        0.578183   -2.039808   -1.742359
     73          1           0        1.259754   -0.430334   -1.904544
     74          1           0       -0.312440   -0.795282   -0.933711
     75          1           0        2.570286   -2.582032    2.369207
     76          1           0        2.928495   -4.035384    1.558516
     77          1           0        0.383266   -3.135506    2.466135
     78          1           0        0.995893   -4.786381    2.337275
     79          1           0       -0.010319    3.219070    0.569812
     80          1           0        0.103549    4.451196   -0.674837
     81          1           0        0.219609    4.733021    1.070223
     82          1           0        1.835413    7.303899   -1.082044
     83          1           0        1.985973    8.097032    0.440900
     84          1           0        1.068602    6.643551    0.397323
     85          1           0        8.652936    5.038458    0.499603
     86          1           0        9.702260    2.702782   -1.149532
     87          1           0        7.773178    5.131559   -2.169308
     88          1           0        9.572140    4.797452   -2.011554
     89          1           0        8.756034    6.127288   -1.175219
     90          1           0       11.022303    2.232981    1.227096
     91          1           0       10.202108    3.664015    1.673905
     92          1           0       11.438618    5.057459    0.397608
     93          1           0       11.639016    3.818702   -0.904573
     94          1           0       12.584918    3.718716    0.592293
     95          1           0       10.423920   -1.632735    0.733614
     96          1           0       10.372115   -2.101306   -0.948587
     97          1           0       10.106721   -3.329848    0.288561
     98          1           0        5.090436   -4.298080    0.976556
     99          1           0        2.490241   -6.922753   -0.711188
    100          1           0        3.717071   -6.987615   -2.050823
    101          1           0        2.521922   -5.759523   -2.002438
    102          1           0       -2.451368   -4.630489   -0.713406
    103          1           0       -1.668074   -3.164724   -1.342438
    104          1           0       -3.913571   -3.094620    0.800922
    105          1           0       -4.692141   -2.060721   -2.964365
    106          1           0       -2.906861   -1.761140   -2.543892
    107          1           0       -4.096840   -0.473120   -2.369729
    108          1           0       -5.667379   -0.342211   -0.815676
    109          1           0       -5.143125   -1.037972    0.710238
    110          1           0       -6.266550   -3.230510   -0.573942
    111          1           0       -7.270425   -1.961128   -1.294260
    112          1           0       -6.812888   -2.313287    1.731239
    113          1           0       -8.135244   -3.156791    1.035167
    114          1           0       -8.185162   -0.287459    0.131002
    115          1           0       -9.095716    0.003269    2.799012
    116          1           0       -7.818933    0.858139    1.939917
    117          1           0       -7.522744   -0.585176    2.921388
    118          1           0      -10.411008   -1.568130    1.709075
    119          1           0       -9.951294   -2.055488    0.068163
    120          1           0      -10.703267   -0.336744   -0.994519
    121          1           0      -10.485579    0.746849    0.384228
    122          1           0      -12.287733   -1.441364    0.888026
    123          1           0      -12.704438   -0.386712   -0.576308
    124          1           0      -12.255472    1.433799    1.206235
    125          1           0      -12.432625    1.032791    3.498411
    126          1           0      -12.182227   -0.786108    3.094184
    127          1           0      -13.693884   -0.060467    3.483355
    128          1           0      -14.895179    1.316873    1.819798
    129          1           0      -14.836594   -0.136574    0.710220
    130          1           0      -13.371002    1.959288   -0.614606
    131          1           0      -14.651664    2.693293    0.269239
    132          1           0      -15.895163    0.484256   -0.901204
    133          1           0      -14.838749    0.934936   -2.149100
    134          1           0      -16.316059    2.212082   -2.949517
    135          1           0      -16.016740    4.674879   -1.702590
    136          1           0      -15.408166    4.098217   -3.088756
    137          1           0      -14.446601    3.653840   -1.571053
    138          1           0      -17.473028    2.396414   -0.195021
    139          1           0      -17.992742    1.607356   -1.677861
    140          1           0      -18.257873    3.411249   -1.460334
 ---------------------------------------------------------------------

 SCF Done:  E(RZINDO/S) =  -474.815014829     A.U. after   20 cycles

 Excitation energies and oscillator strengths:

 Excited State   1:      Singlet-A      1.2573 eV  986.09 nm  f=0.5894  <S**2>=0.000
     175 ->178        -0.18193
     176 ->177         0.66518
 This state for optimization and/or second-order correction.
 Total Energy, E(CIS/TDA) =  -474.768808670
 Copying the excited state density for this state as the 1-particle RhoCI density.

 Excited State   2:      Singlet-A      1.9194 eV  645.96 nm  f=0.0281  <S**2>=0.000
     175 ->177         0.53183
     176 ->178         0.43988

 Excited State   3:      Singlet-A      2.8080 eV  441.53 nm  f=0.0025  <S**2>=0.000
     168 ->177         0.18812
     168 ->179        -0.28046
     168 ->181         0.16614
     168 ->186        -0.14161
     169 ->177         0.24542
     169 ->179        -0.35109
     169 ->181         0.20636
     169 ->186        -0.17729

 Excited State   4:      Singlet-A      2.9793 eV  416.15 nm  f=0.2628  <S**2>=0.000
     171 ->177         0.26352
     171 ->178         0.18164
     171 ->179         0.21039
     171 ->181         0.26247
     171 ->186         0.15661
     171 ->188         0.14245
     174 ->177        -0.13235
     175 ->177         0.19846
     176 ->178        -0.26658
     176 ->179        -0.15335

 Excited State   5:      Singlet-A      2.9935 eV  414.18 nm  f=0.5304  <S**2>=0.000
     171 ->177         0.19015
     171 ->178         0.13289
     171 ->179         0.15365
     171 ->181         0.19307
     171 ->186         0.11304
     175 ->177        -0.27708
     176 ->178         0.36448
     176 ->179         0.29232
     176 ->181         0.15436

 The electronic state is 1-A.
 Alpha  occ. eigenvalues --   -1.91508  -1.81203  -1.79717  -1.75163  -1.74787
 Alpha  occ. eigenvalues --   -1.71664  -1.68027  -1.61973  -1.61024  -1.60189
 Alpha  occ. eigenvalues --   -1.56636  -1.52850  -1.49748  -1.49126  -1.48428
 Alpha  occ. eigenvalues --   -1.45664  -1.44308  -1.40388  -1.39700  -1.39462
 Alpha  occ. eigenvalues --   -1.37139  -1.35590  -1.31549  -1.30496  -1.28662
 Alpha  occ. eigenvalues --   -1.27032  -1.24771  -1.21450  -1.20719  -1.19358
 Alpha  occ. eigenvalues --   -1.18511  -1.17228  -1.15868  -1.15148  -1.13725
 Alpha  occ. eigenvalues --   -1.13258  -1.11618  -1.10643  -1.04529  -1.03200
 Alpha  occ. eigenvalues --   -1.03134  -1.00867  -0.98846  -0.97862  -0.96805
 Alpha  occ. eigenvalues --   -0.95172  -0.94567  -0.94441  -0.93160  -0.93040
 Alpha  occ. eigenvalues --   -0.92158  -0.91306  -0.88871  -0.88667  -0.86498
 Alpha  occ. eigenvalues --   -0.84797  -0.83626  -0.83407  -0.83258  -0.81414
 Alpha  occ. eigenvalues --   -0.80513  -0.79946  -0.78269  -0.77952  -0.76463
 Alpha  occ. eigenvalues --   -0.76118  -0.75798  -0.75230  -0.73978  -0.73860
 Alpha  occ. eigenvalues --   -0.73334  -0.72151  -0.71908  -0.71357  -0.71056
 Alpha  occ. eigenvalues --   -0.70963  -0.69872  -0.68979  -0.68353  -0.68320
 Alpha  occ. eigenvalues --   -0.67826  -0.67070  -0.66581  -0.65867  -0.65397
 Alpha  occ. eigenvalues --   -0.65166  -0.64671  -0.63883  -0.63606  -0.63240
 Alpha  occ. eigenvalues --   -0.62977  -0.62953  -0.62539  -0.62367  -0.61887
 Alpha  occ. eigenvalues --   -0.61829  -0.61318  -0.61177  -0.61032  -0.60470
 Alpha  occ. eigenvalues --   -0.60021  -0.59211  -0.58854  -0.58371  -0.57998
 Alpha  occ. eigenvalues --   -0.57831  -0.57657  -0.57437  -0.57155  -0.56781
 Alpha  occ. eigenvalues --   -0.56372  -0.55799  -0.55510  -0.55134  -0.54926
 Alpha  occ. eigenvalues --   -0.54823  -0.54392  -0.53539  -0.53391  -0.53005
 Alpha  occ. eigenvalues --   -0.52871  -0.52135  -0.51697  -0.51535  -0.51459
 Alpha  occ. eigenvalues --   -0.51091  -0.50864  -0.50743  -0.50689  -0.50369
 Alpha  occ. eigenvalues --   -0.49947  -0.49293  -0.49272  -0.49001  -0.48919
 Alpha  occ. eigenvalues --   -0.48564  -0.48272  -0.48227  -0.47700  -0.47374
 Alpha  occ. eigenvalues --   -0.47293  -0.46973  -0.46772  -0.46308  -0.46097
 Alpha  occ. eigenvalues --   -0.45943  -0.45867  -0.45731  -0.45493  -0.45310
 Alpha  occ. eigenvalues --   -0.45105  -0.44994  -0.44656  -0.44356  -0.43855
 Alpha  occ. eigenvalues --   -0.43692  -0.43027  -0.42887  -0.42459  -0.42388
 Alpha  occ. eigenvalues --   -0.41460  -0.41163  -0.40733  -0.39486  -0.38813
 Alpha  occ. eigenvalues --   -0.37520  -0.36548  -0.35201  -0.34824  -0.34399
 Alpha  occ. eigenvalues --   -0.33672  -0.32318  -0.32149  -0.31679  -0.26607
 Alpha  occ. eigenvalues --   -0.21604
 Alpha virt. eigenvalues --   -0.08316  -0.02031  -0.00293   0.01467   0.01712
 Alpha virt. eigenvalues --    0.02696   0.03303   0.03515   0.03991   0.05117
 Alpha virt. eigenvalues --    0.06418   0.06720   0.06851   0.07675   0.08111

 Mulliken charges:
               1
     1  Mg   0.421885
     2  C   -0.017871
     3  C   -0.095979
     4  C   -0.074161
     5  C   -0.086000
     6  N   -0.262014
     7  C    0.064313
     8  C   -0.000271
     9  C    0.003088
    10  C    0.162869
    11  C   -0.047533
    12  C   -0.014880
    13  C    0.010568
    14  C    0.457493
    15  O   -0.500681
    16  O   -0.270801
    17  N   -0.302799
    18  C    0.097948
    19  C    0.024353
    20  C   -0.027544
    21  C    0.150707
    22  C   -0.040470
    23  C    0.321848
    24  O   -0.513577
    25  C   -0.031439
    26  N   -0.282672
    27  C    0.133935
    28  C    0.006176
    29  C    0.003935
    30  C    0.119677
    31  C   -0.049959
    32  C   -0.030444
    33  C   -0.055048
    34  N   -0.319741
    35  C    0.114936
    36  C    0.025974
    37  C   -0.057634
    38  C    0.112049
    39  C   -0.038934
    40  C    0.333296
    41  O   -0.527677
    42  C    0.051365
    43  C    0.502373
    44  O   -0.527975
    45  O   -0.251399
    46  C    0.073776
    47  C    0.118841
    48  C   -0.102729
    49  C   -0.011263
    50  C   -0.047828
    51  C   -0.020465
    52  C   -0.029854
    53  C   -0.037343
    54  C   -0.007474
    55  C   -0.056848
    56  C   -0.033221
    57  C   -0.033254
    58  C   -0.032503
    59  C   -0.019147
    60  C   -0.072507
    61  C   -0.037989
    62  C   -0.035376
    63  C   -0.032571
    64  C   -0.018438
    65  C   -0.069155
    66  C   -0.068468
    67  H    0.030322
    68  H    0.047267
    69  H    0.013685
    70  H    0.045117
    71  H    0.027961
    72  H    0.023890
    73  H    0.032691
    74  H    0.023896
    75  H    0.026937
    76  H    0.019186
    77  H    0.020651
    78  H    0.050514
    79  H    0.021643
    80  H    0.035098
    81  H    0.029297
    82  H    0.041706
    83  H    0.038207
    84  H    0.014112
    85  H    0.035103
    86  H    0.034851
    87  H    0.027136
    88  H    0.027472
    89  H    0.013980
    90  H    0.030735
    91  H    0.011449
    92  H    0.023030
    93  H    0.020958
    94  H    0.013868
    95  H    0.019401
    96  H    0.029792
    97  H    0.033079
    98  H    0.045923
    99  H    0.036652
   100  H    0.044972
   101  H    0.041327
   102  H    0.054294
   103  H    0.039865
   104  H    0.023976
   105  H    0.041819
   106  H    0.024986
   107  H    0.021497
   108  H    0.019101
   109  H    0.024392
   110  H    0.017067
   111  H    0.024912
   112  H    0.020628
   113  H    0.020703
   114  H    0.019330
   115  H    0.013453
   116  H    0.014589
   117  H    0.014512
   118  H    0.025194
   119  H    0.002492
   120  H    0.014309
   121  H    0.012905
   122  H    0.024319
   123  H    0.022578
   124  H    0.024653
   125  H    0.021667
   126  H    0.026376
   127  H    0.016851
   128  H    0.023333
   129  H    0.028238
   130  H    0.024896
   131  H    0.012006
   132  H    0.019408
   133  H    0.008546
   134  H    0.008726
   135  H    0.021811
   136  H    0.013816
   137  H    0.036253
   138  H    0.017603
   139  H    0.017398
   140  H    0.032120
 Sum of Mulliken charges =  -0.00000

 Dipole moment (field-independent basis, Debye):
    X=             -9.2070    Y=              5.3113    Z=              2.2405  Tot=             10.8627
 N-N= 4.267927297395D+03 E-N= 0.000000000000D+00  KE=-9.210367839943D+03
 Leave Link  601 at Thu May  5 15:51:55 2022, MaxMem=  6710886400 cpu:               1.2 elap:               0.1
 (Enter /sw/apps/gaussian-16.0/g16/l9999.exe)
 1\1\GINC-BP1-COMPUTE214\SP\RZINDO CIS\STO-3G\C55H74Mg1N4O6\OF15641\05-
 May-2022\0\\#p ZINDO=(nstates=5)\\step_951_chromophore_21 ZINDO\\0,1\M
 g,0,16.128,51.509,25.155\C,0,18.069,50.483,27.853\C,0,13.604,52.411,27
 .313\C,0,14.053,51.878,22.421\C,0,18.478,50.008,23.146\N,0,15.912,51.6
 03,27.289\C,0,16.882,51.167,28.226\C,0,16.308,51.407,29.675\C,0,14.83,
 51.827,29.43\C,0,14.797,51.93,27.903\C,0,13.747,50.92,29.948\C,0,17.20
 7,52.49,30.346\C,0,16.829,52.974,31.73\C,0,15.814,52.067,32.544\O,0,16

 Normal termination of Gaussian 16 at Thu May  5 15:51:55 2022.
