 Gaussian 16, Revision A.03,
 Gaussian 16:  ES64L-G16RevA.03 25-Dec-2016

 ------------------------------
 #p blyp/Def2SVP td=(nstates=5)
 ------------------------------

 ---------------------------------------------------
 step_1101_chromophore_12 TDDFT with blyp functional
 ---------------------------------------------------
 Symbolic Z-matrix:
 Charge =  0 Multiplicity = 1

                         Standard orientation:
 ---------------------------------------------------------------------
 Center     Atomic      Atomic             Coordinates (Angstroms)
 Number     Number       Type             X           Y           Z
 ---------------------------------------------------------------------
      1         12           0       -3.859463    0.649339   -0.329959
      2          6           0       -3.659170   -2.690601    0.525574
      3          6           0       -0.604126    1.004048    0.307230
      4          6           0       -4.205462    4.046672   -0.782109
      5          6           0       -7.332166    0.372339   -0.107926
      6          7           0       -2.357600   -0.703584    0.235127
      7          6           0       -2.438984   -2.111482    0.380957
      8          6           0       -1.064867   -2.828845    0.437756
      9          6           0       -0.223548   -1.532529    0.788047
     10          6           0       -1.064997   -0.301359    0.354430
     11          6           0        0.075560   -1.499961    2.329004
     12          6           0       -0.740785   -3.441187   -0.931523
     13          6           0        0.164931   -4.733812   -0.938777
     14          6           0        1.406856   -4.772681   -1.840466
     15          8           0        1.353280   -4.462115   -3.047450
     16          8           0        2.515035   -5.142840   -1.156323
     17          7           0       -2.585667    2.235499   -0.531323
     18          6           0       -1.226701    2.143942   -0.157705
     19          6           0       -0.632646    3.447402   -0.170929
     20          6           0       -1.614184    4.337186   -0.551066
     21          6           0       -2.916815    3.549973   -0.676424
     22          6           0        0.783933    3.773346    0.214443
     23          6           0       -1.513687    5.871069   -0.891042
     24          8           0       -2.419492    6.555274   -1.314813
     25          6           0       -0.246025    6.661062   -0.752066
     26          7           0       -5.461010    2.044589   -0.439584
     27          6           0       -5.384314    3.374916   -0.702045
     28          6           0       -6.791877    3.996754   -0.794386
     29          6           0       -7.747229    2.868780   -0.512252
     30          6           0       -6.798689    1.681962   -0.361086
     31          6           0       -6.964304    5.270032    0.018273
     32          6           0       -8.801972    2.675102   -1.679280
     33          6           0       -8.322400    2.002322   -2.968570
     34          7           0       -5.333431   -0.775164    0.088092
     35          6           0       -6.717563   -0.863400    0.155194
     36          6           0       -7.173407   -2.176595    0.524132
     37          6           0       -5.992109   -2.936652    0.617352
     38          6           0       -4.911881   -2.028114    0.328080
     39          6           0       -8.609105   -2.666366    0.637570
     40          6           0       -5.449505   -4.311962    0.812936
     41          8           0       -5.994687   -5.395604    1.114449
     42          6           0       -3.977565   -4.161026    0.791967
     43          6           0       -3.397793   -4.526883    2.080765
     44          8           0       -3.616858   -4.023467    3.168002
     45          8           0       -2.554958   -5.533464    1.863346
     46          6           0       -1.553578   -5.792300    2.923892
     47          6           0        3.702731   -5.055530   -2.023284
     48          6           0        4.962856   -5.017397   -1.225001
     49          6           0        6.172319   -4.607709   -1.644689
     50          6           0        6.526353   -4.023070   -3.041733
     51          6           0        7.384003   -4.503849   -0.718682
     52          6           0        7.725258   -3.104766   -0.170593
     53          6           0        9.023405   -2.426159   -0.737910
     54          6           0        9.024454   -0.863087   -0.548051
     55          6           0       10.135232   -0.186872   -1.350307
     56          6           0        9.207400   -0.384541    0.900690
     57          6           0        8.330467    0.700611    1.488440
     58          6           0        9.175477    2.067685    1.362922
     59          6           0        8.480139    3.031099    0.380892
     60          6           0        9.491374    3.752351   -0.527406
     61          6           0        7.577058    4.068623    1.160008
     62          6           0        6.493479    4.672568    0.247663
     63          6           0        5.094316    4.317099    0.623860
     64          6           0        4.553936    4.942161    1.880710
     65          6           0        3.857972    3.958777    2.841540
     66          6           0        3.639148    6.132201    1.560454
     67          1           0        0.454569    1.161865    0.524633
     68          1           0       -4.290732    5.122058   -0.954180
     69          1           0       -8.361721    0.294631    0.247755
     70          1           0       -0.978748   -3.592706    1.211355
     71          1           0        0.672533   -1.527725    0.167076
     72          1           0       -0.567323   -2.190869    2.875763
     73          1           0       -0.220820   -0.478010    2.566410
     74          1           0        1.137875   -1.666820    2.503608
     75          1           0       -0.310186   -2.678440   -1.580574
     76          1           0       -1.687516   -3.733076   -1.386408
     77          1           0       -0.521282   -5.470814   -1.355375
     78          1           0        0.388021   -5.101486    0.063366
     79          1           0        1.342336    3.852653   -0.718565
     80          1           0        1.247128    3.071711    0.907774
     81          1           0        1.001594    4.708391    0.731256
     82          1           0       -0.175506    7.003801    0.279588
     83          1           0       -0.300708    7.515516   -1.427310
     84          1           0        0.657878    6.132721   -1.052318
     85          1           0       -6.984679    4.401418   -1.787400
     86          1           0       -8.273768    2.995117    0.433133
     87          1           0       -6.099173    5.237402    0.680724
     88          1           0       -7.887050    5.413214    0.580362
     89          1           0       -6.918539    6.119066   -0.662874
     90          1           0       -9.179020    3.687463   -1.823882
     91          1           0       -9.618925    2.071897   -1.281505
     92          1           0       -8.452718    2.720104   -3.778405
     93          1           0       -8.841944    1.068293   -3.185879
     94          1           0       -7.244924    1.844482   -2.919161
     95          1           0       -9.069676   -1.915843    1.281125
     96          1           0       -8.750053   -3.666516    1.049195
     97          1           0       -9.174184   -2.577242   -0.289424
     98          1           0       -3.594958   -4.795589   -0.006724
     99          1           0       -2.026872   -6.230281    3.803532
    100          1           0       -1.054710   -4.885580    3.266249
    101          1           0       -0.857704   -6.497155    2.468421
    102          1           0        3.725244   -4.219185   -2.722330
    103          1           0        3.612221   -5.910903   -2.692186
    104          1           0        5.025096   -5.194121   -0.152037
    105          1           0        7.523233   -4.348248   -3.340916
    106          1           0        6.599359   -2.935586   -3.026619
    107          1           0        5.808182   -4.266571   -3.824567
    108          1           0        8.296951   -4.817717   -1.226591
    109          1           0        7.172351   -5.208943    0.084722
    110          1           0        7.856678   -3.245435    0.902147
    111          1           0        6.923242   -2.412469   -0.428931
    112          1           0        9.359088   -2.606844   -1.759437
    113          1           0        9.940816   -2.822174   -0.302628
    114          1           0        8.095364   -0.532965   -1.012793
    115          1           0        9.772130    0.099446   -2.336877
    116          1           0       10.996971   -0.834821   -1.513675
    117          1           0       10.524479    0.774402   -1.016249
    118          1           0       10.263036   -0.128643    0.982417
    119          1           0        9.248977   -1.161846    1.664579
    120          1           0        8.211218    0.487946    2.550495
    121          1           0        7.352064    0.773320    1.012475
    122          1           0       10.247017    1.975381    1.189998
    123          1           0        9.157517    2.466984    2.377448
    124          1           0        7.747159    2.557387   -0.270783
    125          1           0        9.071781    3.729907   -1.533441
    126          1           0       10.440054    3.215870   -0.531548
    127          1           0        9.823451    4.750787   -0.243315
    128          1           0        8.170780    4.811578    1.692860
    129          1           0        7.140393    3.380784    1.885401
    130          1           0        6.663285    4.352956   -0.780644
    131          1           0        6.482007    5.762488    0.265359
    132          1           0        4.960854    3.237719    0.549515
    133          1           0        4.535345    4.738720   -0.211252
    134          1           0        5.328479    5.369454    2.517732
    135          1           0        3.034215    4.373468    3.423073
    136          1           0        4.511940    3.640739    3.652565
    137          1           0        3.522976    3.038753    2.361234
    138          1           0        3.874125    6.878938    0.801980
    139          1           0        3.599079    6.750700    2.457457
    140          1           0        2.676108    5.653270    1.382823
 ---------------------------------------------------------------------

 SCF Done:  E(RB-LYP) =  -3007.37518955     A.U. after   21 cycles

 Excitation energies and oscillator strengths:

 Excited State   1:      Singlet-A      1.7661 eV  702.03 nm  f=0.2996  <S**2>=0.000
     245 -> 248       -0.16907
     246 -> 247        0.69635
     246 <- 247       -0.15633
 This state for optimization and/or second-order correction.
 Total Energy, E(TD-HF/TD-DFT) =  -3007.31028722
 Copying the excited state density for this state as the 1-particle RhoCI density.

 Excited State   2:      Singlet-A      1.9530 eV  634.84 nm  f=0.0001  <S**2>=0.000
     244 -> 247        0.70613

 Excited State   3:      Singlet-A      2.0019 eV  619.35 nm  f=0.0003  <S**2>=0.000
     243 -> 247        0.70651

 Excited State   4:      Singlet-A      2.0932 eV  592.33 nm  f=0.0748  <S**2>=0.000
     245 -> 247        0.63291
     246 -> 248        0.28425

 Excited State   5:      Singlet-A      2.5581 eV  484.67 nm  f=0.0000  <S**2>=0.000
     241 -> 247        0.70709

 The electronic state is 1-A.
 Alpha  occ. eigenvalues --  -46.26174 -18.83848 -18.82712 -18.77045 -18.76395
 Alpha  occ. eigenvalues --  -18.75913 -18.75415 -14.03592 -14.03078 -14.01312
 Alpha  occ. eigenvalues --  -14.00694 -10.04761 -10.03633 -10.00263  -9.99386
 Alpha  occ. eigenvalues --   -9.98626  -9.98579  -9.96776  -9.96540  -9.96403
 Alpha  occ. eigenvalues --   -9.96164  -9.95897  -9.95854  -9.95042  -9.94617
 Alpha  occ. eigenvalues --   -9.94425  -9.94264  -9.93999  -9.93909  -9.93689
 Alpha  occ. eigenvalues --   -9.93616  -9.93561  -9.93355  -9.93322  -9.93269
 Alpha  occ. eigenvalues --   -9.93188  -9.93169  -9.92954  -9.92887  -9.92710
 Alpha  occ. eigenvalues --   -9.92640  -9.92593  -9.92569  -9.92552  -9.92507
 Alpha  occ. eigenvalues --   -9.92469  -9.92418  -9.92406  -9.92286  -9.92112
 Alpha  occ. eigenvalues --   -9.92046  -9.91915  -9.91678  -9.91636  -9.91568
 Alpha  occ. eigenvalues --   -9.91548  -9.91508  -9.91400  -9.91262  -9.91227
 Alpha  occ. eigenvalues --   -9.91215  -9.91155  -9.91022  -9.90931  -9.90732
 Alpha  occ. eigenvalues --   -9.90730  -2.90996  -1.71424  -1.70834  -1.70750
 Alpha  occ. eigenvalues --   -0.99171  -0.98970  -0.92623  -0.90226  -0.89665
 Alpha  occ. eigenvalues --   -0.89591  -0.86281  -0.85543  -0.85326  -0.84378
 Alpha  occ. eigenvalues --   -0.76011  -0.74004  -0.73785  -0.72945  -0.72775
 Alpha  occ. eigenvalues --   -0.72631  -0.72133  -0.71310  -0.70712  -0.70573
 Alpha  occ. eigenvalues --   -0.69563  -0.69435  -0.68448  -0.68035  -0.67409
 Alpha  occ. eigenvalues --   -0.67010  -0.65922  -0.65684  -0.65440  -0.64762
 Alpha  occ. eigenvalues --   -0.64432  -0.62645  -0.62521  -0.62155  -0.61186
 Alpha  occ. eigenvalues --   -0.60975  -0.60891  -0.59968  -0.59937  -0.59214
 Alpha  occ. eigenvalues --   -0.58776  -0.58003  -0.56766  -0.55906  -0.54885
 Alpha  occ. eigenvalues --   -0.54082  -0.53887  -0.53064  -0.52696  -0.52382
 Alpha  occ. eigenvalues --   -0.51239  -0.50873  -0.50731  -0.50666  -0.50589
 Alpha  occ. eigenvalues --   -0.50307  -0.49960  -0.48678  -0.48579  -0.46827
 Alpha  occ. eigenvalues --   -0.46501  -0.46229  -0.46029  -0.45525  -0.45065
 Alpha  occ. eigenvalues --   -0.43914  -0.43878  -0.43109  -0.42880  -0.42728
 Alpha  occ. eigenvalues --   -0.42500  -0.42106  -0.41841  -0.41773  -0.41487
 Alpha  occ. eigenvalues --   -0.41457  -0.41195  -0.40783  -0.40495  -0.40270
 Alpha  occ. eigenvalues --   -0.40068  -0.39971  -0.39781  -0.39682  -0.39527
 Alpha  occ. eigenvalues --   -0.39326  -0.39208  -0.38739  -0.38459  -0.38379
 Alpha  occ. eigenvalues --   -0.38238  -0.37963  -0.37908  -0.37688  -0.37559
 Alpha  occ. eigenvalues --   -0.37266  -0.37069  -0.36827  -0.36745  -0.36492
 Alpha  occ. eigenvalues --   -0.36364  -0.36229  -0.36119  -0.35843  -0.35578
 Alpha  occ. eigenvalues --   -0.35490  -0.35350  -0.35126  -0.34940  -0.34761
 Alpha  occ. eigenvalues --   -0.34736  -0.34473  -0.34203  -0.34187  -0.34076
 Alpha  occ. eigenvalues --   -0.33998  -0.33900  -0.33838  -0.33487  -0.33393
 Alpha  occ. eigenvalues --   -0.33100  -0.32946  -0.32892  -0.32680  -0.32478
 Alpha  occ. eigenvalues --   -0.32454  -0.32007  -0.31749  -0.31611  -0.31528
 Alpha  occ. eigenvalues --   -0.31409  -0.31196  -0.31127  -0.30868  -0.30829
 Alpha  occ. eigenvalues --   -0.30644  -0.30559  -0.30447  -0.30141  -0.30129
 Alpha  occ. eigenvalues --   -0.29769  -0.29663  -0.29533  -0.29283  -0.28938
 Alpha  occ. eigenvalues --   -0.28789  -0.28468  -0.28261  -0.28230  -0.27905
 Alpha  occ. eigenvalues --   -0.27688  -0.27659  -0.27284  -0.27267  -0.26968
 Alpha  occ. eigenvalues --   -0.26688  -0.26478  -0.26361  -0.26129  -0.25955
 Alpha  occ. eigenvalues --   -0.25759  -0.25576  -0.24977  -0.23948  -0.23733
 Alpha  occ. eigenvalues --   -0.22888  -0.22562  -0.22079  -0.21903  -0.21140
 Alpha  occ. eigenvalues --   -0.20904  -0.20544  -0.18774  -0.18566  -0.17673
 Alpha  occ. eigenvalues --   -0.15614
 Alpha virt. eigenvalues --   -0.11503  -0.06921  -0.06143  -0.04774  -0.03716
 Alpha virt. eigenvalues --   -0.02455  -0.02223  -0.02051  -0.01291   0.00466
 Alpha virt. eigenvalues --    0.01100   0.01333   0.01658   0.02188   0.02339

 Mulliken charges:
               1
     1  Mg   0.705754
     2  C   -0.032542
     3  C   -0.087280
     4  C   -0.060824
     5  C   -0.071039
     6  N   -0.277617
     7  C   -0.088202
     8  C    0.017821
     9  C   -0.016391
    10  C    0.067769
    11  C    0.143352
    12  C    0.130343
    13  C    0.150091
    14  C    0.068815
    15  O   -0.223043
    16  O   -0.243955
    17  N   -0.314133
    18  C    0.152416
    19  C   -0.113903
    20  C    0.023627
    21  C    0.100635
    22  C    0.127007
    23  C   -0.061641
    24  O   -0.152234
    25  C    0.126091
    26  N   -0.215915
    27  C    0.037027
    28  C    0.034704
    29  C    0.056597
    30  C    0.023210
    31  C    0.114754
    32  C    0.058700
    33  C    0.085863
    34  N   -0.262187
    35  C    0.063058
    36  C   -0.148173
    37  C    0.017002
    38  C    0.126732
    39  C    0.164658
    40  C   -0.021505
    41  O   -0.159298
    42  C    0.181346
    43  C    0.059856
    44  O   -0.173702
    45  O   -0.252600
    46  C    0.218302
    47  C    0.310777
    48  C   -0.034396
    49  C   -0.183360
    50  C    0.116634
    51  C    0.140949
    52  C    0.108616
    53  C    0.069368
    54  C   -0.047249
    55  C    0.096501
    56  C    0.115652
    57  C    0.097009
    58  C    0.110731
    59  C   -0.101595
    60  C    0.114552
    61  C    0.102502
    62  C    0.085515
    63  C    0.129056
    64  C   -0.059392
    65  C    0.080334
    66  C    0.086907
    67  H   -0.063875
    68  H   -0.049872
    69  H   -0.054682
    70  H   -0.031170
    71  H   -0.039066
    72  H    0.013564
    73  H   -0.011640
    74  H    0.000903
    75  H   -0.010996
    76  H   -0.020261
    77  H    0.002041
    78  H   -0.021531
    79  H    0.014428
    80  H   -0.002437
    81  H    0.012062
    82  H    0.019789
    83  H   -0.005142
    84  H   -0.014943
    85  H   -0.024373
    86  H   -0.026006
    87  H   -0.002530
    88  H   -0.009796
    89  H   -0.008852
    90  H   -0.020585
    91  H   -0.024697
    92  H   -0.013942
    93  H    0.003729
    94  H   -0.000711
    95  H   -0.009753
    96  H    0.014883
    97  H   -0.001780
    98  H   -0.011696
    99  H    0.023381
   100  H    0.018482
   101  H    0.018910
   102  H    0.011413
   103  H    0.001551
   104  H   -0.046680
   105  H   -0.010104
   106  H    0.002326
   107  H   -0.007551
   108  H   -0.028517
   109  H   -0.037080
   110  H   -0.013251
   111  H   -0.019180
   112  H   -0.044665
   113  H   -0.048486
   114  H   -0.039057
   115  H   -0.032989
   116  H   -0.022130
   117  H   -0.017831
   118  H   -0.053696
   119  H   -0.060846
   120  H   -0.037415
   121  H   -0.018262
   122  H   -0.033550
   123  H   -0.045671
   124  H   -0.036296
   125  H   -0.013353
   126  H   -0.025674
   127  H   -0.020478
   128  H   -0.028806
   129  H   -0.037285
   130  H   -0.036559
   131  H   -0.041924
   132  H   -0.045810
   133  H   -0.047606
   134  H   -0.033222
   135  H   -0.025829
   136  H   -0.020540
   137  H   -0.011638
   138  H   -0.008836
   139  H   -0.024369
   140  H   -0.020395
 Sum of Mulliken charges =  -0.00000

 Dipole moment (field-independent basis, Debye):
    X=              5.5975    Y=              2.1825    Z=              0.3606  Tot=              6.0187
 Quadrupole moment (field-independent basis, Debye-Ang):
   XX=           -381.3357   YY=           -428.1800   ZZ=           -416.0853
   XY=            -29.5860   XZ=             16.1510   YZ=              6.3053

 Normal termination of Gaussian 16 at Wed May  4 00:16:16 2022.
