 Gaussian 16, Revision A.03,
 Gaussian 16:  ES64L-G16RevA.03 25-Dec-2016

 -----------------------------------
 #p cam-b3lyp/Def2SVP td=(nstates=5)
 -----------------------------------

 --------------------------------------------------------
 step_1101_chromophore_12 TDDFT with cam-b3lyp functional
 --------------------------------------------------------
 Symbolic Z-matrix:
 Charge =  0 Multiplicity = 1

                         Standard orientation:
 ---------------------------------------------------------------------
 Center     Atomic      Atomic             Coordinates (Angstroms)
 Number     Number       Type             X           Y           Z
 ---------------------------------------------------------------------
      1         12           0       -3.859463    0.649339   -0.329959
      2          6           0       -3.659170   -2.690601    0.525574
      3          6           0       -0.604126    1.004048    0.307230
      4          6           0       -4.205462    4.046672   -0.782109
      5          6           0       -7.332166    0.372339   -0.107926
      6          7           0       -2.357600   -0.703584    0.235127
      7          6           0       -2.438984   -2.111482    0.380957
      8          6           0       -1.064867   -2.828845    0.437756
      9          6           0       -0.223548   -1.532529    0.788047
     10          6           0       -1.064997   -0.301359    0.354430
     11          6           0        0.075560   -1.499961    2.329004
     12          6           0       -0.740785   -3.441187   -0.931523
     13          6           0        0.164931   -4.733812   -0.938777
     14          6           0        1.406856   -4.772681   -1.840466
     15          8           0        1.353280   -4.462115   -3.047450
     16          8           0        2.515035   -5.142840   -1.156323
     17          7           0       -2.585667    2.235499   -0.531323
     18          6           0       -1.226701    2.143942   -0.157705
     19          6           0       -0.632646    3.447402   -0.170929
     20          6           0       -1.614184    4.337186   -0.551066
     21          6           0       -2.916815    3.549973   -0.676424
     22          6           0        0.783933    3.773346    0.214443
     23          6           0       -1.513687    5.871069   -0.891042
     24          8           0       -2.419492    6.555274   -1.314813
     25          6           0       -0.246025    6.661062   -0.752066
     26          7           0       -5.461010    2.044589   -0.439584
     27          6           0       -5.384314    3.374916   -0.702045
     28          6           0       -6.791877    3.996754   -0.794386
     29          6           0       -7.747229    2.868780   -0.512252
     30          6           0       -6.798689    1.681962   -0.361086
     31          6           0       -6.964304    5.270032    0.018273
     32          6           0       -8.801972    2.675102   -1.679280
     33          6           0       -8.322400    2.002322   -2.968570
     34          7           0       -5.333431   -0.775164    0.088092
     35          6           0       -6.717563   -0.863400    0.155194
     36          6           0       -7.173407   -2.176595    0.524132
     37          6           0       -5.992109   -2.936652    0.617352
     38          6           0       -4.911881   -2.028114    0.328080
     39          6           0       -8.609105   -2.666366    0.637570
     40          6           0       -5.449505   -4.311962    0.812936
     41          8           0       -5.994687   -5.395604    1.114449
     42          6           0       -3.977565   -4.161026    0.791967
     43          6           0       -3.397793   -4.526883    2.080765
     44          8           0       -3.616858   -4.023467    3.168002
     45          8           0       -2.554958   -5.533464    1.863346
     46          6           0       -1.553578   -5.792300    2.923892
     47          6           0        3.702731   -5.055530   -2.023284
     48          6           0        4.962856   -5.017397   -1.225001
     49          6           0        6.172319   -4.607709   -1.644689
     50          6           0        6.526353   -4.023070   -3.041733
     51          6           0        7.384003   -4.503849   -0.718682
     52          6           0        7.725258   -3.104766   -0.170593
     53          6           0        9.023405   -2.426159   -0.737910
     54          6           0        9.024454   -0.863087   -0.548051
     55          6           0       10.135232   -0.186872   -1.350307
     56          6           0        9.207400   -0.384541    0.900690
     57          6           0        8.330467    0.700611    1.488440
     58          6           0        9.175477    2.067685    1.362922
     59          6           0        8.480139    3.031099    0.380892
     60          6           0        9.491374    3.752351   -0.527406
     61          6           0        7.577058    4.068623    1.160008
     62          6           0        6.493479    4.672568    0.247663
     63          6           0        5.094316    4.317099    0.623860
     64          6           0        4.553936    4.942161    1.880710
     65          6           0        3.857972    3.958777    2.841540
     66          6           0        3.639148    6.132201    1.560454
     67          1           0        0.454569    1.161865    0.524633
     68          1           0       -4.290732    5.122058   -0.954180
     69          1           0       -8.361721    0.294631    0.247755
     70          1           0       -0.978748   -3.592706    1.211355
     71          1           0        0.672533   -1.527725    0.167076
     72          1           0       -0.567323   -2.190869    2.875763
     73          1           0       -0.220820   -0.478010    2.566410
     74          1           0        1.137875   -1.666820    2.503608
     75          1           0       -0.310186   -2.678440   -1.580574
     76          1           0       -1.687516   -3.733076   -1.386408
     77          1           0       -0.521282   -5.470814   -1.355375
     78          1           0        0.388021   -5.101486    0.063366
     79          1           0        1.342336    3.852653   -0.718565
     80          1           0        1.247128    3.071711    0.907774
     81          1           0        1.001594    4.708391    0.731256
     82          1           0       -0.175506    7.003801    0.279588
     83          1           0       -0.300708    7.515516   -1.427310
     84          1           0        0.657878    6.132721   -1.052318
     85          1           0       -6.984679    4.401418   -1.787400
     86          1           0       -8.273768    2.995117    0.433133
     87          1           0       -6.099173    5.237402    0.680724
     88          1           0       -7.887050    5.413214    0.580362
     89          1           0       -6.918539    6.119066   -0.662874
     90          1           0       -9.179020    3.687463   -1.823882
     91          1           0       -9.618925    2.071897   -1.281505
     92          1           0       -8.452718    2.720104   -3.778405
     93          1           0       -8.841944    1.068293   -3.185879
     94          1           0       -7.244924    1.844482   -2.919161
     95          1           0       -9.069676   -1.915843    1.281125
     96          1           0       -8.750053   -3.666516    1.049195
     97          1           0       -9.174184   -2.577242   -0.289424
     98          1           0       -3.594958   -4.795589   -0.006724
     99          1           0       -2.026872   -6.230281    3.803532
    100          1           0       -1.054710   -4.885580    3.266249
    101          1           0       -0.857704   -6.497155    2.468421
    102          1           0        3.725244   -4.219185   -2.722330
    103          1           0        3.612221   -5.910903   -2.692186
    104          1           0        5.025096   -5.194121   -0.152037
    105          1           0        7.523233   -4.348248   -3.340916
    106          1           0        6.599359   -2.935586   -3.026619
    107          1           0        5.808182   -4.266571   -3.824567
    108          1           0        8.296951   -4.817717   -1.226591
    109          1           0        7.172351   -5.208943    0.084722
    110          1           0        7.856678   -3.245435    0.902147
    111          1           0        6.923242   -2.412469   -0.428931
    112          1           0        9.359088   -2.606844   -1.759437
    113          1           0        9.940816   -2.822174   -0.302628
    114          1           0        8.095364   -0.532965   -1.012793
    115          1           0        9.772130    0.099446   -2.336877
    116          1           0       10.996971   -0.834821   -1.513675
    117          1           0       10.524479    0.774402   -1.016249
    118          1           0       10.263036   -0.128643    0.982417
    119          1           0        9.248977   -1.161846    1.664579
    120          1           0        8.211218    0.487946    2.550495
    121          1           0        7.352064    0.773320    1.012475
    122          1           0       10.247017    1.975381    1.189998
    123          1           0        9.157517    2.466984    2.377448
    124          1           0        7.747159    2.557387   -0.270783
    125          1           0        9.071781    3.729907   -1.533441
    126          1           0       10.440054    3.215870   -0.531548
    127          1           0        9.823451    4.750787   -0.243315
    128          1           0        8.170780    4.811578    1.692860
    129          1           0        7.140393    3.380784    1.885401
    130          1           0        6.663285    4.352956   -0.780644
    131          1           0        6.482007    5.762488    0.265359
    132          1           0        4.960854    3.237719    0.549515
    133          1           0        4.535345    4.738720   -0.211252
    134          1           0        5.328479    5.369454    2.517732
    135          1           0        3.034215    4.373468    3.423073
    136          1           0        4.511940    3.640739    3.652565
    137          1           0        3.522976    3.038753    2.361234
    138          1           0        3.874125    6.878938    0.801980
    139          1           0        3.599079    6.750700    2.457457
    140          1           0        2.676108    5.653270    1.382823
 ---------------------------------------------------------------------

 SCF Done:  E(RCAM-B3LYP) =  -3007.17813181     A.U. after   19 cycles

 Excitation energies and oscillator strengths:

 Excited State   1:      Singlet-A      1.6853 eV  735.69 nm  f=0.3821  <S**2>=0.000
     245 -> 248       -0.16349
     246 -> 247        0.69018
     245 <- 248       -0.10405
 This state for optimization and/or second-order correction.
 Total Energy, E(TD-HF/TD-DFT) =  -3007.11619879
 Copying the excited state density for this state as the 1-particle RhoCI density.

 Excited State   2:      Singlet-A      2.3237 eV  533.56 nm  f=0.0759  <S**2>=0.000
     245 -> 247        0.61352
     246 -> 248        0.33824

 Excited State   3:      Singlet-A      3.4880 eV  355.46 nm  f=0.6014  <S**2>=0.000
     244 -> 247       -0.24626
     245 -> 247       -0.29819
     246 -> 248        0.57703
     245 <- 247        0.10068

 Excited State   4:      Singlet-A      3.5261 eV  351.62 nm  f=0.0685  <S**2>=0.000
     241 -> 247       -0.34211
     242 -> 249        0.11034
     244 -> 247        0.56215
     246 -> 248        0.15043

 Excited State   5:      Singlet-A      3.5651 eV  347.77 nm  f=0.0007  <S**2>=0.000
     242 -> 247        0.53353
     242 -> 249        0.34788
     242 -> 250       -0.21474
     244 -> 247       -0.12650

 The electronic state is 1-A.
 Alpha  occ. eigenvalues --  -46.87615 -19.26787 -19.25619 -19.20021 -19.19472
 Alpha  occ. eigenvalues --  -19.19329 -19.18395 -14.42576 -14.41881 -14.39982
 Alpha  occ. eigenvalues --  -14.38919 -10.40119 -10.38839 -10.35784 -10.34514
 Alpha  occ. eigenvalues --  -10.32710 -10.32652 -10.31619 -10.30980 -10.30711
 Alpha  occ. eigenvalues --  -10.30660 -10.30606 -10.30497 -10.28904 -10.28739
 Alpha  occ. eigenvalues --  -10.28699 -10.28406 -10.28381 -10.28223 -10.27974
 Alpha  occ. eigenvalues --  -10.27762 -10.27580 -10.27579 -10.27563 -10.27530
 Alpha  occ. eigenvalues --  -10.27287 -10.27137 -10.26880 -10.26793 -10.26469
 Alpha  occ. eigenvalues --  -10.26453 -10.26452 -10.26395 -10.26356 -10.26327
 Alpha  occ. eigenvalues --  -10.26282 -10.26169 -10.26132 -10.25961 -10.25897
 Alpha  occ. eigenvalues --  -10.25874 -10.25699 -10.25658 -10.25635 -10.25308
 Alpha  occ. eigenvalues --  -10.25293 -10.25248 -10.25053 -10.25017 -10.24991
 Alpha  occ. eigenvalues --  -10.24973 -10.24938 -10.24799 -10.24601 -10.24416
 Alpha  occ. eigenvalues --  -10.24409  -3.16351  -1.91254  -1.90775  -1.90698
 Alpha  occ. eigenvalues --   -1.17677  -1.17421  -1.11400  -1.08222  -1.07602
 Alpha  occ. eigenvalues --   -1.07559  -1.03948  -1.03158  -1.02897  -1.01965
 Alpha  occ. eigenvalues --   -0.93043  -0.90963  -0.90728  -0.89784  -0.89623
 Alpha  occ. eigenvalues --   -0.89402  -0.88803  -0.87993  -0.87495  -0.87186
 Alpha  occ. eigenvalues --   -0.85888  -0.85709  -0.84745  -0.84140  -0.83569
 Alpha  occ. eigenvalues --   -0.83106  -0.82007  -0.81601  -0.81350  -0.80964
 Alpha  occ. eigenvalues --   -0.80254  -0.78631  -0.78103  -0.77670  -0.76524
 Alpha  occ. eigenvalues --   -0.76461  -0.76370  -0.75394  -0.75231  -0.74527
 Alpha  occ. eigenvalues --   -0.73882  -0.72967  -0.71667  -0.70742  -0.69411
 Alpha  occ. eigenvalues --   -0.68742  -0.68488  -0.67505  -0.67246  -0.66785
 Alpha  occ. eigenvalues --   -0.65499  -0.65002  -0.64846  -0.64660  -0.64511
 Alpha  occ. eigenvalues --   -0.64121  -0.64029  -0.62534  -0.62351  -0.60621
 Alpha  occ. eigenvalues --   -0.60097  -0.59819  -0.59678  -0.58768  -0.58551
 Alpha  occ. eigenvalues --   -0.57305  -0.57111  -0.56468  -0.55995  -0.55930
 Alpha  occ. eigenvalues --   -0.55704  -0.55298  -0.55196  -0.54691  -0.54427
 Alpha  occ. eigenvalues --   -0.54238  -0.54006  -0.53538  -0.53224  -0.53172
 Alpha  occ. eigenvalues --   -0.52921  -0.52819  -0.52639  -0.52156  -0.52001
 Alpha  occ. eigenvalues --   -0.51831  -0.51771  -0.51261  -0.51013  -0.50895
 Alpha  occ. eigenvalues --   -0.50793  -0.50431  -0.50262  -0.50188  -0.49831
 Alpha  occ. eigenvalues --   -0.49552  -0.49419  -0.49314  -0.49069  -0.48954
 Alpha  occ. eigenvalues --   -0.48600  -0.48506  -0.48275  -0.48062  -0.47841
 Alpha  occ. eigenvalues --   -0.47752  -0.47607  -0.47419  -0.47017  -0.46678
 Alpha  occ. eigenvalues --   -0.46637  -0.46345  -0.46026  -0.45999  -0.45919
 Alpha  occ. eigenvalues --   -0.45824  -0.45671  -0.45619  -0.45446  -0.45141
 Alpha  occ. eigenvalues --   -0.44786  -0.44755  -0.44559  -0.44392  -0.44042
 Alpha  occ. eigenvalues --   -0.43992  -0.43672  -0.43429  -0.43394  -0.43246
 Alpha  occ. eigenvalues --   -0.43034  -0.42918  -0.42559  -0.42502  -0.42234
 Alpha  occ. eigenvalues --   -0.42197  -0.41866  -0.41752  -0.41715  -0.41353
 Alpha  occ. eigenvalues --   -0.41186  -0.40953  -0.40637  -0.40329  -0.40016
 Alpha  occ. eigenvalues --   -0.39925  -0.39541  -0.39341  -0.39184  -0.38889
 Alpha  occ. eigenvalues --   -0.38585  -0.38529  -0.38189  -0.38166  -0.37832
 Alpha  occ. eigenvalues --   -0.37777  -0.37672  -0.37462  -0.37097  -0.36932
 Alpha  occ. eigenvalues --   -0.36665  -0.36518  -0.35639  -0.34905  -0.34417
 Alpha  occ. eigenvalues --   -0.34317  -0.33269  -0.33010  -0.31949  -0.31226
 Alpha  occ. eigenvalues --   -0.30759  -0.30657  -0.30560  -0.29532  -0.24591
 Alpha  occ. eigenvalues --   -0.20819
 Alpha virt. eigenvalues --   -0.08471  -0.01699   0.00444   0.02170   0.03332
 Alpha virt. eigenvalues --    0.03933   0.04906   0.05268   0.05987   0.06638
 Alpha virt. eigenvalues --    0.07385   0.08057   0.08201   0.08540   0.08715

 Mulliken charges:
               1
     1  Mg   0.841613
     2  C   -0.057372
     3  C   -0.104618
     4  C   -0.083948
     5  C   -0.068127
     6  N   -0.345819
     7  C   -0.052986
     8  C   -0.026260
     9  C   -0.068401
    10  C    0.082169
    11  C    0.088597
    12  C    0.082215
    13  C    0.079316
    14  C    0.151024
    15  O   -0.265836
    16  O   -0.307845
    17  N   -0.403906
    18  C    0.169340
    19  C   -0.122968
    20  C   -0.040299
    21  C    0.132962
    22  C    0.075986
    23  C    0.018060
    24  O   -0.189819
    25  C    0.046627
    26  N   -0.286996
    27  C    0.055453
    28  C   -0.018560
    29  C    0.002204
    30  C    0.033722
    31  C    0.053397
    32  C    0.008672
    33  C    0.022485
    34  N   -0.346370
    35  C    0.058071
    36  C   -0.147963
    37  C   -0.058340
    38  C    0.156656
    39  C    0.115666
    40  C    0.077805
    41  O   -0.199250
    42  C    0.095832
    43  C    0.151484
    44  O   -0.211118
    45  O   -0.315555
    46  C    0.177119
    47  C    0.277855
    48  C   -0.062590
    49  C   -0.202509
    50  C    0.058248
    51  C    0.079247
    52  C    0.053365
    53  C    0.019367
    54  C   -0.100985
    55  C    0.040454
    56  C    0.054327
    57  C    0.042673
    58  C    0.050395
    59  C   -0.150290
    60  C    0.055880
    61  C    0.052009
    62  C    0.030125
    63  C    0.073936
    64  C   -0.125377
    65  C    0.022383
    66  C    0.039613
    67  H   -0.027844
    68  H   -0.007416
    69  H   -0.024024
    70  H   -0.001266
    71  H   -0.003174
    72  H    0.035359
    73  H    0.014106
    74  H    0.025956
    75  H    0.019557
    76  H    0.011925
    77  H    0.034604
    78  H    0.011578
    79  H    0.041056
    80  H    0.022495
    81  H    0.036587
    82  H    0.046846
    83  H    0.030576
    84  H    0.012691
    85  H    0.011046
    86  H    0.009548
    87  H    0.022906
    88  H    0.016770
    89  H    0.015263
    90  H    0.005519
    91  H    0.003743
    92  H    0.009303
    93  H    0.027739
    94  H    0.020572
    95  H    0.012024
    96  H    0.041334
    97  H    0.022809
    98  H    0.033049
    99  H    0.049946
   100  H    0.037706
   101  H    0.042506
   102  H    0.040248
   103  H    0.031114
   104  H   -0.009932
   105  H    0.014298
   106  H    0.025118
   107  H    0.016518
   108  H    0.001550
   109  H   -0.005264
   110  H    0.015102
   111  H    0.007025
   112  H   -0.015325
   113  H   -0.019854
   114  H   -0.009797
   115  H   -0.007088
   116  H    0.002778
   117  H    0.002944
   118  H   -0.022221
   119  H   -0.029096
   120  H   -0.005671
   121  H    0.006443
   122  H   -0.004963
   123  H   -0.014063
   124  H   -0.007490
   125  H    0.009544
   126  H   -0.003370
   127  H    0.005076
   128  H   -0.000271
   129  H   -0.011487
   130  H   -0.007085
   131  H   -0.013543
   132  H   -0.018297
   133  H   -0.018120
   134  H   -0.000238
   135  H    0.001038
   136  H    0.005883
   137  H    0.009035
   138  H    0.015402
   139  H    0.001678
   140  H   -0.011260
 Sum of Mulliken charges =  -0.00000

 Dipole moment (field-independent basis, Debye):
    X=              6.7426    Y=              3.0851    Z=              0.3482  Tot=              7.4231
 Quadrupole moment (field-independent basis, Debye-Ang):
   XX=           -384.0658   YY=           -424.2638   ZZ=           -416.6145
   XY=            -31.3269   XZ=             16.9688   YZ=              6.0657

 Normal termination of Gaussian 16 at Tue May  3 23:05:44 2022.
