 Gaussian 16, Revision A.03,
 Gaussian 16:  ES64L-G16RevA.03 25-Dec-2016

 ---------------------------------
 #p PBE1PBE/Def2SVP td=(nstates=5)
 ---------------------------------

 ------------------------------------------------------
 step_1101_chromophore_12 TDDFT with PBE1PBE functional
 ------------------------------------------------------
 Symbolic Z-matrix:
 Charge =  0 Multiplicity = 1

                         Standard orientation:
 ---------------------------------------------------------------------
 Center     Atomic      Atomic             Coordinates (Angstroms)
 Number     Number       Type             X           Y           Z
 ---------------------------------------------------------------------
      1         12           0       -3.859463    0.649339   -0.329959
      2          6           0       -3.659170   -2.690601    0.525574
      3          6           0       -0.604126    1.004048    0.307230
      4          6           0       -4.205462    4.046672   -0.782109
      5          6           0       -7.332166    0.372339   -0.107926
      6          7           0       -2.357600   -0.703584    0.235127
      7          6           0       -2.438984   -2.111482    0.380957
      8          6           0       -1.064867   -2.828845    0.437756
      9          6           0       -0.223548   -1.532529    0.788047
     10          6           0       -1.064997   -0.301359    0.354430
     11          6           0        0.075560   -1.499961    2.329004
     12          6           0       -0.740785   -3.441187   -0.931523
     13          6           0        0.164931   -4.733812   -0.938777
     14          6           0        1.406856   -4.772681   -1.840466
     15          8           0        1.353280   -4.462115   -3.047450
     16          8           0        2.515035   -5.142840   -1.156323
     17          7           0       -2.585667    2.235499   -0.531323
     18          6           0       -1.226701    2.143942   -0.157705
     19          6           0       -0.632646    3.447402   -0.170929
     20          6           0       -1.614184    4.337186   -0.551066
     21          6           0       -2.916815    3.549973   -0.676424
     22          6           0        0.783933    3.773346    0.214443
     23          6           0       -1.513687    5.871069   -0.891042
     24          8           0       -2.419492    6.555274   -1.314813
     25          6           0       -0.246025    6.661062   -0.752066
     26          7           0       -5.461010    2.044589   -0.439584
     27          6           0       -5.384314    3.374916   -0.702045
     28          6           0       -6.791877    3.996754   -0.794386
     29          6           0       -7.747229    2.868780   -0.512252
     30          6           0       -6.798689    1.681962   -0.361086
     31          6           0       -6.964304    5.270032    0.018273
     32          6           0       -8.801972    2.675102   -1.679280
     33          6           0       -8.322400    2.002322   -2.968570
     34          7           0       -5.333431   -0.775164    0.088092
     35          6           0       -6.717563   -0.863400    0.155194
     36          6           0       -7.173407   -2.176595    0.524132
     37          6           0       -5.992109   -2.936652    0.617352
     38          6           0       -4.911881   -2.028114    0.328080
     39          6           0       -8.609105   -2.666366    0.637570
     40          6           0       -5.449505   -4.311962    0.812936
     41          8           0       -5.994687   -5.395604    1.114449
     42          6           0       -3.977565   -4.161026    0.791967
     43          6           0       -3.397793   -4.526883    2.080765
     44          8           0       -3.616858   -4.023467    3.168002
     45          8           0       -2.554958   -5.533464    1.863346
     46          6           0       -1.553578   -5.792300    2.923892
     47          6           0        3.702731   -5.055530   -2.023284
     48          6           0        4.962856   -5.017397   -1.225001
     49          6           0        6.172319   -4.607709   -1.644689
     50          6           0        6.526353   -4.023070   -3.041733
     51          6           0        7.384003   -4.503849   -0.718682
     52          6           0        7.725258   -3.104766   -0.170593
     53          6           0        9.023405   -2.426159   -0.737910
     54          6           0        9.024454   -0.863087   -0.548051
     55          6           0       10.135232   -0.186872   -1.350307
     56          6           0        9.207400   -0.384541    0.900690
     57          6           0        8.330467    0.700611    1.488440
     58          6           0        9.175477    2.067685    1.362922
     59          6           0        8.480139    3.031099    0.380892
     60          6           0        9.491374    3.752351   -0.527406
     61          6           0        7.577058    4.068623    1.160008
     62          6           0        6.493479    4.672568    0.247663
     63          6           0        5.094316    4.317099    0.623860
     64          6           0        4.553936    4.942161    1.880710
     65          6           0        3.857972    3.958777    2.841540
     66          6           0        3.639148    6.132201    1.560454
     67          1           0        0.454569    1.161865    0.524633
     68          1           0       -4.290732    5.122058   -0.954180
     69          1           0       -8.361721    0.294631    0.247755
     70          1           0       -0.978748   -3.592706    1.211355
     71          1           0        0.672533   -1.527725    0.167076
     72          1           0       -0.567323   -2.190869    2.875763
     73          1           0       -0.220820   -0.478010    2.566410
     74          1           0        1.137875   -1.666820    2.503608
     75          1           0       -0.310186   -2.678440   -1.580574
     76          1           0       -1.687516   -3.733076   -1.386408
     77          1           0       -0.521282   -5.470814   -1.355375
     78          1           0        0.388021   -5.101486    0.063366
     79          1           0        1.342336    3.852653   -0.718565
     80          1           0        1.247128    3.071711    0.907774
     81          1           0        1.001594    4.708391    0.731256
     82          1           0       -0.175506    7.003801    0.279588
     83          1           0       -0.300708    7.515516   -1.427310
     84          1           0        0.657878    6.132721   -1.052318
     85          1           0       -6.984679    4.401418   -1.787400
     86          1           0       -8.273768    2.995117    0.433133
     87          1           0       -6.099173    5.237402    0.680724
     88          1           0       -7.887050    5.413214    0.580362
     89          1           0       -6.918539    6.119066   -0.662874
     90          1           0       -9.179020    3.687463   -1.823882
     91          1           0       -9.618925    2.071897   -1.281505
     92          1           0       -8.452718    2.720104   -3.778405
     93          1           0       -8.841944    1.068293   -3.185879
     94          1           0       -7.244924    1.844482   -2.919161
     95          1           0       -9.069676   -1.915843    1.281125
     96          1           0       -8.750053   -3.666516    1.049195
     97          1           0       -9.174184   -2.577242   -0.289424
     98          1           0       -3.594958   -4.795589   -0.006724
     99          1           0       -2.026872   -6.230281    3.803532
    100          1           0       -1.054710   -4.885580    3.266249
    101          1           0       -0.857704   -6.497155    2.468421
    102          1           0        3.725244   -4.219185   -2.722330
    103          1           0        3.612221   -5.910903   -2.692186
    104          1           0        5.025096   -5.194121   -0.152037
    105          1           0        7.523233   -4.348248   -3.340916
    106          1           0        6.599359   -2.935586   -3.026619
    107          1           0        5.808182   -4.266571   -3.824567
    108          1           0        8.296951   -4.817717   -1.226591
    109          1           0        7.172351   -5.208943    0.084722
    110          1           0        7.856678   -3.245435    0.902147
    111          1           0        6.923242   -2.412469   -0.428931
    112          1           0        9.359088   -2.606844   -1.759437
    113          1           0        9.940816   -2.822174   -0.302628
    114          1           0        8.095364   -0.532965   -1.012793
    115          1           0        9.772130    0.099446   -2.336877
    116          1           0       10.996971   -0.834821   -1.513675
    117          1           0       10.524479    0.774402   -1.016249
    118          1           0       10.263036   -0.128643    0.982417
    119          1           0        9.248977   -1.161846    1.664579
    120          1           0        8.211218    0.487946    2.550495
    121          1           0        7.352064    0.773320    1.012475
    122          1           0       10.247017    1.975381    1.189998
    123          1           0        9.157517    2.466984    2.377448
    124          1           0        7.747159    2.557387   -0.270783
    125          1           0        9.071781    3.729907   -1.533441
    126          1           0       10.440054    3.215870   -0.531548
    127          1           0        9.823451    4.750787   -0.243315
    128          1           0        8.170780    4.811578    1.692860
    129          1           0        7.140393    3.380784    1.885401
    130          1           0        6.663285    4.352956   -0.780644
    131          1           0        6.482007    5.762488    0.265359
    132          1           0        4.960854    3.237719    0.549515
    133          1           0        4.535345    4.738720   -0.211252
    134          1           0        5.328479    5.369454    2.517732
    135          1           0        3.034215    4.373468    3.423073
    136          1           0        4.511940    3.640739    3.652565
    137          1           0        3.522976    3.038753    2.361234
    138          1           0        3.874125    6.878938    0.801980
    139          1           0        3.599079    6.750700    2.457457
    140          1           0        2.676108    5.653270    1.382823
 ---------------------------------------------------------------------

 SCF Done:  E(RPBE1PBE) =  -3005.36577166     A.U. after   16 cycles

 Excitation energies and oscillator strengths:

 Excited State   1:      Singlet-A      1.8171 eV  682.33 nm  f=0.3687  <S**2>=0.000
     245 -> 248       -0.15748
     246 -> 247        0.69758
     246 <- 247       -0.11288
 This state for optimization and/or second-order correction.
 Total Energy, E(TD-HF/TD-DFT) =  -3005.29899527
 Copying the excited state density for this state as the 1-particle RhoCI density.

 Excited State   2:      Singlet-A      2.3189 eV  534.67 nm  f=0.0829  <S**2>=0.000
     245 -> 247        0.62950
     246 -> 248        0.30915

 Excited State   3:      Singlet-A      3.0511 eV  406.36 nm  f=0.0001  <S**2>=0.000
     243 -> 247        0.56374
     243 -> 249        0.19512
     244 -> 247       -0.35378

 Excited State   4:      Singlet-A      3.1273 eV  396.46 nm  f=0.0000  <S**2>=0.000
     242 -> 247        0.67308
     242 -> 249       -0.13194
     242 -> 250       -0.12727

 Excited State   5:      Singlet-A      3.1530 eV  393.22 nm  f=0.0045  <S**2>=0.000
     240 -> 247       -0.12785
     243 -> 247        0.35413
     244 -> 247        0.57733
     246 -> 248       -0.12479

 The electronic state is 1-A.
 Alpha  occ. eigenvalues --  -46.91038 -19.27483 -19.26316 -19.20359 -19.19632
 Alpha  occ. eigenvalues --  -19.19453 -19.18839 -14.42070 -14.41467 -14.39543
 Alpha  occ. eigenvalues --  -14.38729 -10.37186 -10.35913 -10.32715 -10.31842
 Alpha  occ. eigenvalues --  -10.30105 -10.29915 -10.29084 -10.28666 -10.28607
 Alpha  occ. eigenvalues --  -10.28418 -10.28061 -10.28042 -10.26818 -10.26537
 Alpha  occ. eigenvalues --  -10.26354 -10.26228 -10.26132 -10.25634 -10.25595
 Alpha  occ. eigenvalues --  -10.25510 -10.25421 -10.25395 -10.25227 -10.24993
 Alpha  occ. eigenvalues --  -10.24802 -10.24785 -10.24635 -10.24576 -10.24189
 Alpha  occ. eigenvalues --  -10.24029 -10.23994 -10.23986 -10.23869 -10.23856
 Alpha  occ. eigenvalues --  -10.23846 -10.23718 -10.23695 -10.23540 -10.23457
 Alpha  occ. eigenvalues --  -10.23339 -10.23195 -10.23190 -10.23069 -10.23055
 Alpha  occ. eigenvalues --  -10.22760 -10.22635 -10.22632 -10.22569 -10.22455
 Alpha  occ. eigenvalues --  -10.22444 -10.22434 -10.22241 -10.21978 -10.21955
 Alpha  occ. eigenvalues --  -10.21760  -3.13348  -1.86193  -1.85692  -1.85620
 Alpha  occ. eigenvalues --   -1.12523  -1.12269  -1.05930  -1.03094  -1.02507
 Alpha  occ. eigenvalues --   -1.02430  -0.98580  -0.97779  -0.97564  -0.96564
 Alpha  occ. eigenvalues --   -0.87516  -0.85022  -0.84795  -0.83983  -0.83774
 Alpha  occ. eigenvalues --   -0.83585  -0.83111  -0.82067  -0.81679  -0.81495
 Alpha  occ. eigenvalues --   -0.80322  -0.79984  -0.78963  -0.78471  -0.77763
 Alpha  occ. eigenvalues --   -0.77330  -0.76195  -0.75837  -0.75636  -0.75060
 Alpha  occ. eigenvalues --   -0.74468  -0.72735  -0.72385  -0.72031  -0.70916
 Alpha  occ. eigenvalues --   -0.70532  -0.70469  -0.69585  -0.69468  -0.68660
 Alpha  occ. eigenvalues --   -0.68185  -0.67465  -0.66083  -0.65052  -0.63792
 Alpha  occ. eigenvalues --   -0.63092  -0.62814  -0.61794  -0.61529  -0.60948
 Alpha  occ. eigenvalues --   -0.59896  -0.59546  -0.59160  -0.59094  -0.58894
 Alpha  occ. eigenvalues --   -0.58640  -0.58166  -0.56995  -0.56663  -0.55072
 Alpha  occ. eigenvalues --   -0.54567  -0.54280  -0.54165  -0.53452  -0.53091
 Alpha  occ. eigenvalues --   -0.51921  -0.51607  -0.50847  -0.50557  -0.50487
 Alpha  occ. eigenvalues --   -0.50247  -0.49923  -0.49755  -0.49093  -0.48981
 Alpha  occ. eigenvalues --   -0.48618  -0.48391  -0.47987  -0.47822  -0.47704
 Alpha  occ. eigenvalues --   -0.47481  -0.47144  -0.47049  -0.46785  -0.46561
 Alpha  occ. eigenvalues --   -0.46411  -0.46273  -0.45738  -0.45612  -0.45374
 Alpha  occ. eigenvalues --   -0.45321  -0.45056  -0.44742  -0.44709  -0.44417
 Alpha  occ. eigenvalues --   -0.44141  -0.44001  -0.43850  -0.43674  -0.43493
 Alpha  occ. eigenvalues --   -0.43247  -0.43188  -0.42873  -0.42640  -0.42439
 Alpha  occ. eigenvalues --   -0.42299  -0.42183  -0.42044  -0.41651  -0.41363
 Alpha  occ. eigenvalues --   -0.41207  -0.41062  -0.40734  -0.40672  -0.40549
 Alpha  occ. eigenvalues --   -0.40502  -0.40301  -0.40255  -0.40193  -0.39999
 Alpha  occ. eigenvalues --   -0.39520  -0.39498  -0.39354  -0.39118  -0.38772
 Alpha  occ. eigenvalues --   -0.38709  -0.38551  -0.38234  -0.38194  -0.38118
 Alpha  occ. eigenvalues --   -0.37834  -0.37609  -0.37297  -0.37194  -0.37062
 Alpha  occ. eigenvalues --   -0.36874  -0.36735  -0.36664  -0.36421  -0.36154
 Alpha  occ. eigenvalues --   -0.36080  -0.35714  -0.35607  -0.35249  -0.34835
 Alpha  occ. eigenvalues --   -0.34737  -0.34248  -0.34234  -0.34013  -0.33655
 Alpha  occ. eigenvalues --   -0.33569  -0.33316  -0.33176  -0.32943  -0.32770
 Alpha  occ. eigenvalues --   -0.32720  -0.32539  -0.32460  -0.31962  -0.31898
 Alpha  occ. eigenvalues --   -0.31747  -0.31301  -0.30447  -0.30125  -0.29294
 Alpha  occ. eigenvalues --   -0.29140  -0.28594  -0.28183  -0.27464  -0.26247
 Alpha  occ. eigenvalues --   -0.25836  -0.25808  -0.25649  -0.25364  -0.21431
 Alpha  occ. eigenvalues --   -0.18489
 Alpha virt. eigenvalues --   -0.11028  -0.05238  -0.03833  -0.02206  -0.00623
 Alpha virt. eigenvalues --    0.00410   0.00567   0.01067   0.01190   0.03330
 Alpha virt. eigenvalues --    0.03837   0.04346   0.04480   0.05041   0.05191

 Mulliken charges:
               1
     1  Mg   0.996737
     2  C   -0.069601
     3  C   -0.092108
     4  C   -0.079683
     5  C   -0.059230
     6  N   -0.448153
     7  C    0.021515
     8  C   -0.106450
     9  C   -0.144230
    10  C    0.113930
    11  C    0.029810
    12  C    0.042509
    13  C    0.000282
    14  C    0.215747
    15  O   -0.296290
    16  O   -0.339214
    17  N   -0.520211
    18  C    0.185748
    19  C   -0.154564
    20  C   -0.088857
    21  C    0.170458
    22  C    0.010273
    23  C    0.069781
    24  O   -0.227405
    25  C   -0.028596
    26  N   -0.392392
    27  C    0.085905
    28  C   -0.087355
    29  C   -0.074151
    30  C    0.065989
    31  C   -0.004841
    32  C   -0.053977
    33  C   -0.051674
    34  N   -0.466279
    35  C    0.076411
    36  C   -0.163302
    37  C   -0.100503
    38  C    0.204936
    39  C    0.066413
    40  C    0.169695
    41  O   -0.243452
    42  C   -0.019424
    43  C    0.250495
    44  O   -0.247616
    45  O   -0.348520
    46  C    0.116475
    47  C    0.239514
    48  C   -0.081499
    49  C   -0.241879
    50  C   -0.001346
    51  C    0.012933
    52  C   -0.010116
    53  C   -0.029789
    54  C   -0.189128
    55  C   -0.021864
    56  C    0.002332
    57  C   -0.021375
    58  C   -0.004864
    59  C   -0.236320
    60  C    0.000789
    61  C    0.000666
    62  C   -0.037296
    63  C    0.015702
    64  C   -0.215503
    65  C   -0.035558
    66  C   -0.036163
    67  H    0.003914
    68  H    0.024746
    69  H    0.007565
    70  H    0.046371
    71  H    0.033735
    72  H    0.062523
    73  H    0.043604
    74  H    0.053222
    75  H    0.051242
    76  H    0.045587
    77  H    0.067496
    78  H    0.043578
    79  H    0.068205
    80  H    0.049292
    81  H    0.067022
    82  H    0.072802
    83  H    0.057154
    84  H    0.039063
    85  H    0.049135
    86  H    0.046879
    87  H    0.052446
    88  H    0.043449
    89  H    0.042374
    90  H    0.039985
    91  H    0.036351
    92  H    0.038052
    93  H    0.054705
    94  H    0.051333
    95  H    0.040363
    96  H    0.068673
    97  H    0.051573
    98  H    0.070863
    99  H    0.072420
   100  H    0.059444
   101  H    0.064504
   102  H    0.066046
   103  H    0.058442
   104  H    0.020859
   105  H    0.040966
   106  H    0.052902
   107  H    0.043386
   108  H    0.035226
   109  H    0.026880
   110  H    0.046891
   111  H    0.039854
   112  H    0.016199
   113  H    0.012943
   114  H    0.027682
   115  H    0.021319
   116  H    0.030268
   117  H    0.034242
   118  H    0.011456
   119  H    0.003000
   120  H    0.027681
   121  H    0.037106
   122  H    0.023429
   123  H    0.019208
   124  H    0.030802
   125  H    0.036136
   126  H    0.023151
   127  H    0.031952
   128  H    0.030876
   129  H    0.024657
   130  H    0.025163
   131  H    0.020616
   132  H    0.013692
   133  H    0.016662
   134  H    0.037581
   135  H    0.028115
   136  H    0.033109
   137  H    0.035376
   138  H    0.042040
   139  H    0.030410
   140  H    0.029741
 Sum of Mulliken charges =  -0.00000

 Dipole moment (field-independent basis, Debye):
    X=              6.2272    Y=              2.7603    Z=              0.3861  Tot=              6.8225
 Quadrupole moment (field-independent basis, Debye-Ang):
   XX=           -374.8863   YY=           -422.3850   ZZ=           -413.8983
   XY=            -31.1055   XZ=             17.1925   YZ=              5.8680

 Normal termination of Gaussian 16 at Tue May  3 23:27:40 2022.
