 Gaussian 16, Revision A.03,
 Gaussian 16:  ES64L-G16RevA.03 25-Dec-2016

 --------------------------------
 #p wB97XD/Def2SVP td=(nstates=5)
 --------------------------------

 -----------------------------------------------------
 step_1101_chromophore_12 TDDFT with wB97XD functional
 -----------------------------------------------------
 Symbolic Z-matrix:
 Charge =  0 Multiplicity = 1

                         Standard orientation:
 ---------------------------------------------------------------------
 Center     Atomic      Atomic             Coordinates (Angstroms)
 Number     Number       Type             X           Y           Z
 ---------------------------------------------------------------------
      1         12           0       -3.859463    0.649339   -0.329959
      2          6           0       -3.659170   -2.690601    0.525574
      3          6           0       -0.604126    1.004048    0.307230
      4          6           0       -4.205462    4.046672   -0.782109
      5          6           0       -7.332166    0.372339   -0.107926
      6          7           0       -2.357600   -0.703584    0.235127
      7          6           0       -2.438984   -2.111482    0.380957
      8          6           0       -1.064867   -2.828845    0.437756
      9          6           0       -0.223548   -1.532529    0.788047
     10          6           0       -1.064997   -0.301359    0.354430
     11          6           0        0.075560   -1.499961    2.329004
     12          6           0       -0.740785   -3.441187   -0.931523
     13          6           0        0.164931   -4.733812   -0.938777
     14          6           0        1.406856   -4.772681   -1.840466
     15          8           0        1.353280   -4.462115   -3.047450
     16          8           0        2.515035   -5.142840   -1.156323
     17          7           0       -2.585667    2.235499   -0.531323
     18          6           0       -1.226701    2.143942   -0.157705
     19          6           0       -0.632646    3.447402   -0.170929
     20          6           0       -1.614184    4.337186   -0.551066
     21          6           0       -2.916815    3.549973   -0.676424
     22          6           0        0.783933    3.773346    0.214443
     23          6           0       -1.513687    5.871069   -0.891042
     24          8           0       -2.419492    6.555274   -1.314813
     25          6           0       -0.246025    6.661062   -0.752066
     26          7           0       -5.461010    2.044589   -0.439584
     27          6           0       -5.384314    3.374916   -0.702045
     28          6           0       -6.791877    3.996754   -0.794386
     29          6           0       -7.747229    2.868780   -0.512252
     30          6           0       -6.798689    1.681962   -0.361086
     31          6           0       -6.964304    5.270032    0.018273
     32          6           0       -8.801972    2.675102   -1.679280
     33          6           0       -8.322400    2.002322   -2.968570
     34          7           0       -5.333431   -0.775164    0.088092
     35          6           0       -6.717563   -0.863400    0.155194
     36          6           0       -7.173407   -2.176595    0.524132
     37          6           0       -5.992109   -2.936652    0.617352
     38          6           0       -4.911881   -2.028114    0.328080
     39          6           0       -8.609105   -2.666366    0.637570
     40          6           0       -5.449505   -4.311962    0.812936
     41          8           0       -5.994687   -5.395604    1.114449
     42          6           0       -3.977565   -4.161026    0.791967
     43          6           0       -3.397793   -4.526883    2.080765
     44          8           0       -3.616858   -4.023467    3.168002
     45          8           0       -2.554958   -5.533464    1.863346
     46          6           0       -1.553578   -5.792300    2.923892
     47          6           0        3.702731   -5.055530   -2.023284
     48          6           0        4.962856   -5.017397   -1.225001
     49          6           0        6.172319   -4.607709   -1.644689
     50          6           0        6.526353   -4.023070   -3.041733
     51          6           0        7.384003   -4.503849   -0.718682
     52          6           0        7.725258   -3.104766   -0.170593
     53          6           0        9.023405   -2.426159   -0.737910
     54          6           0        9.024454   -0.863087   -0.548051
     55          6           0       10.135232   -0.186872   -1.350307
     56          6           0        9.207400   -0.384541    0.900690
     57          6           0        8.330467    0.700611    1.488440
     58          6           0        9.175477    2.067685    1.362922
     59          6           0        8.480139    3.031099    0.380892
     60          6           0        9.491374    3.752351   -0.527406
     61          6           0        7.577058    4.068623    1.160008
     62          6           0        6.493479    4.672568    0.247663
     63          6           0        5.094316    4.317099    0.623860
     64          6           0        4.553936    4.942161    1.880710
     65          6           0        3.857972    3.958777    2.841540
     66          6           0        3.639148    6.132201    1.560454
     67          1           0        0.454569    1.161865    0.524633
     68          1           0       -4.290732    5.122058   -0.954180
     69          1           0       -8.361721    0.294631    0.247755
     70          1           0       -0.978748   -3.592706    1.211355
     71          1           0        0.672533   -1.527725    0.167076
     72          1           0       -0.567323   -2.190869    2.875763
     73          1           0       -0.220820   -0.478010    2.566410
     74          1           0        1.137875   -1.666820    2.503608
     75          1           0       -0.310186   -2.678440   -1.580574
     76          1           0       -1.687516   -3.733076   -1.386408
     77          1           0       -0.521282   -5.470814   -1.355375
     78          1           0        0.388021   -5.101486    0.063366
     79          1           0        1.342336    3.852653   -0.718565
     80          1           0        1.247128    3.071711    0.907774
     81          1           0        1.001594    4.708391    0.731256
     82          1           0       -0.175506    7.003801    0.279588
     83          1           0       -0.300708    7.515516   -1.427310
     84          1           0        0.657878    6.132721   -1.052318
     85          1           0       -6.984679    4.401418   -1.787400
     86          1           0       -8.273768    2.995117    0.433133
     87          1           0       -6.099173    5.237402    0.680724
     88          1           0       -7.887050    5.413214    0.580362
     89          1           0       -6.918539    6.119066   -0.662874
     90          1           0       -9.179020    3.687463   -1.823882
     91          1           0       -9.618925    2.071897   -1.281505
     92          1           0       -8.452718    2.720104   -3.778405
     93          1           0       -8.841944    1.068293   -3.185879
     94          1           0       -7.244924    1.844482   -2.919161
     95          1           0       -9.069676   -1.915843    1.281125
     96          1           0       -8.750053   -3.666516    1.049195
     97          1           0       -9.174184   -2.577242   -0.289424
     98          1           0       -3.594958   -4.795589   -0.006724
     99          1           0       -2.026872   -6.230281    3.803532
    100          1           0       -1.054710   -4.885580    3.266249
    101          1           0       -0.857704   -6.497155    2.468421
    102          1           0        3.725244   -4.219185   -2.722330
    103          1           0        3.612221   -5.910903   -2.692186
    104          1           0        5.025096   -5.194121   -0.152037
    105          1           0        7.523233   -4.348248   -3.340916
    106          1           0        6.599359   -2.935586   -3.026619
    107          1           0        5.808182   -4.266571   -3.824567
    108          1           0        8.296951   -4.817717   -1.226591
    109          1           0        7.172351   -5.208943    0.084722
    110          1           0        7.856678   -3.245435    0.902147
    111          1           0        6.923242   -2.412469   -0.428931
    112          1           0        9.359088   -2.606844   -1.759437
    113          1           0        9.940816   -2.822174   -0.302628
    114          1           0        8.095364   -0.532965   -1.012793
    115          1           0        9.772130    0.099446   -2.336877
    116          1           0       10.996971   -0.834821   -1.513675
    117          1           0       10.524479    0.774402   -1.016249
    118          1           0       10.263036   -0.128643    0.982417
    119          1           0        9.248977   -1.161846    1.664579
    120          1           0        8.211218    0.487946    2.550495
    121          1           0        7.352064    0.773320    1.012475
    122          1           0       10.247017    1.975381    1.189998
    123          1           0        9.157517    2.466984    2.377448
    124          1           0        7.747159    2.557387   -0.270783
    125          1           0        9.071781    3.729907   -1.533441
    126          1           0       10.440054    3.215870   -0.531548
    127          1           0        9.823451    4.750787   -0.243315
    128          1           0        8.170780    4.811578    1.692860
    129          1           0        7.140393    3.380784    1.885401
    130          1           0        6.663285    4.352956   -0.780644
    131          1           0        6.482007    5.762488    0.265359
    132          1           0        4.960854    3.237719    0.549515
    133          1           0        4.535345    4.738720   -0.211252
    134          1           0        5.328479    5.369454    2.517732
    135          1           0        3.034215    4.373468    3.423073
    136          1           0        4.511940    3.640739    3.652565
    137          1           0        3.522976    3.038753    2.361234
    138          1           0        3.874125    6.878938    0.801980
    139          1           0        3.599079    6.750700    2.457457
    140          1           0        2.676108    5.653270    1.382823
 ---------------------------------------------------------------------

 SCF Done:  E(RwB97XD) =  -3007.88096078     A.U. after   19 cycles

 Excitation energies and oscillator strengths:

 Excited State   1:      Singlet-A      1.6411 eV  755.47 nm  f=0.3811  <S**2>=0.000
     245 -> 248       -0.16754
     246 -> 247        0.68797
     245 <- 248       -0.11183
 This state for optimization and/or second-order correction.
 Total Energy, E(TD-HF/TD-DFT) =  -3007.82064983
 Copying the excited state density for this state as the 1-particle RhoCI density.

 Excited State   2:      Singlet-A      2.2724 eV  545.60 nm  f=0.0754  <S**2>=0.000
     245 -> 247        0.61240
     246 -> 248        0.33796

 Excited State   3:      Singlet-A      3.4998 eV  354.26 nm  f=0.6534  <S**2>=0.000
     241 -> 247       -0.19229
     244 -> 247       -0.11977
     245 -> 247       -0.30170
     246 -> 248        0.58974
     245 <- 247        0.10792

 Excited State   4:      Singlet-A      3.5557 eV  348.69 nm  f=0.0036  <S**2>=0.000
     241 -> 247       -0.36583
     244 -> 247        0.57334

 Excited State   5:      Singlet-A      3.6058 eV  343.85 nm  f=0.0043  <S**2>=0.000
     243 -> 247        0.50570
     243 -> 249        0.38190
     243 -> 250       -0.24080

 The electronic state is 1-A.
 Alpha  occ. eigenvalues --  -46.93976 -19.32053 -19.30827 -19.25008 -19.24542
 Alpha  occ. eigenvalues --  -19.24265 -19.23421 -14.47214 -14.46472 -14.44641
 Alpha  occ. eigenvalues --  -14.43485 -10.43956 -10.42663 -10.39808 -10.38501
 Alpha  occ. eigenvalues --  -10.36623 -10.36417 -10.35702 -10.35092 -10.34847
 Alpha  occ. eigenvalues --  -10.34676 -10.34569 -10.34544 -10.33105 -10.32791
 Alpha  occ. eigenvalues --  -10.32671 -10.32467 -10.32400 -10.32318 -10.31898
 Alpha  occ. eigenvalues --  -10.31787 -10.31631 -10.31623 -10.31575 -10.31560
 Alpha  occ. eigenvalues --  -10.31291 -10.31208 -10.30882 -10.30806 -10.30417
 Alpha  occ. eigenvalues --  -10.30407 -10.30392 -10.30359 -10.30323 -10.30264
 Alpha  occ. eigenvalues --  -10.30176 -10.30121 -10.30045 -10.29874 -10.29864
 Alpha  occ. eigenvalues --  -10.29862 -10.29674 -10.29589 -10.29517 -10.29166
 Alpha  occ. eigenvalues --  -10.29154 -10.29138 -10.29021 -10.29012 -10.28912
 Alpha  occ. eigenvalues --  -10.28885 -10.28764 -10.28725 -10.28457 -10.28351
 Alpha  occ. eigenvalues --  -10.28252  -3.20115  -1.93713  -1.93217  -1.93139
 Alpha  occ. eigenvalues --   -1.19848  -1.19645  -1.13666  -1.10397  -1.09793
 Alpha  occ. eigenvalues --   -1.09775  -1.05949  -1.05158  -1.04924  -1.04009
 Alpha  occ. eigenvalues --   -0.94997  -0.92749  -0.92532  -0.91694  -0.91473
 Alpha  occ. eigenvalues --   -0.91256  -0.90686  -0.89790  -0.89487  -0.89111
 Alpha  occ. eigenvalues --   -0.87782  -0.87596  -0.86618  -0.86048  -0.85420
 Alpha  occ. eigenvalues --   -0.84970  -0.83926  -0.83487  -0.83283  -0.82886
 Alpha  occ. eigenvalues --   -0.82138  -0.80631  -0.79997  -0.79584  -0.78414
 Alpha  occ. eigenvalues --   -0.78286  -0.78227  -0.77223  -0.77181  -0.76376
 Alpha  occ. eigenvalues --   -0.75811  -0.74927  -0.73639  -0.72686  -0.71289
 Alpha  occ. eigenvalues --   -0.70670  -0.70439  -0.69440  -0.69217  -0.68652
 Alpha  occ. eigenvalues --   -0.67491  -0.67007  -0.66667  -0.66629  -0.66501
 Alpha  occ. eigenvalues --   -0.66053  -0.65870  -0.64383  -0.64312  -0.62636
 Alpha  occ. eigenvalues --   -0.62043  -0.61774  -0.61619  -0.60751  -0.60523
 Alpha  occ. eigenvalues --   -0.59310  -0.59044  -0.58363  -0.57986  -0.57837
 Alpha  occ. eigenvalues --   -0.57651  -0.57283  -0.57155  -0.56561  -0.56373
 Alpha  occ. eigenvalues --   -0.56123  -0.55904  -0.55441  -0.55199  -0.55125
 Alpha  occ. eigenvalues --   -0.54875  -0.54780  -0.54546  -0.54054  -0.53890
 Alpha  occ. eigenvalues --   -0.53757  -0.53672  -0.53177  -0.52926  -0.52842
 Alpha  occ. eigenvalues --   -0.52697  -0.52355  -0.52176  -0.52104  -0.51729
 Alpha  occ. eigenvalues --   -0.51469  -0.51350  -0.51246  -0.50986  -0.50842
 Alpha  occ. eigenvalues --   -0.50531  -0.50450  -0.50184  -0.49949  -0.49771
 Alpha  occ. eigenvalues --   -0.49697  -0.49555  -0.49319  -0.48947  -0.48605
 Alpha  occ. eigenvalues --   -0.48519  -0.48228  -0.47934  -0.47905  -0.47805
 Alpha  occ. eigenvalues --   -0.47710  -0.47564  -0.47510  -0.47344  -0.47067
 Alpha  occ. eigenvalues --   -0.46694  -0.46662  -0.46444  -0.46285  -0.45922
 Alpha  occ. eigenvalues --   -0.45890  -0.45599  -0.45390  -0.45344  -0.45193
 Alpha  occ. eigenvalues --   -0.44991  -0.44859  -0.44540  -0.44368  -0.44193
 Alpha  occ. eigenvalues --   -0.44085  -0.43772  -0.43698  -0.43586  -0.43221
 Alpha  occ. eigenvalues --   -0.43177  -0.42837  -0.42525  -0.42230  -0.41882
 Alpha  occ. eigenvalues --   -0.41833  -0.41396  -0.41226  -0.41060  -0.40746
 Alpha  occ. eigenvalues --   -0.40520  -0.40385  -0.40067  -0.40062  -0.39765
 Alpha  occ. eigenvalues --   -0.39741  -0.39582  -0.39490  -0.38967  -0.38928
 Alpha  occ. eigenvalues --   -0.38668  -0.38374  -0.37492  -0.36890  -0.36352
 Alpha  occ. eigenvalues --   -0.36239  -0.35241  -0.35126  -0.34158  -0.33219
 Alpha  occ. eigenvalues --   -0.32981  -0.32601  -0.32579  -0.31645  -0.26530
 Alpha  occ. eigenvalues --   -0.22637
 Alpha virt. eigenvalues --   -0.06797   0.00230   0.02485   0.04265   0.06159
 Alpha virt. eigenvalues --    0.06457   0.07207   0.07647   0.08109   0.09586
 Alpha virt. eigenvalues --    0.10572   0.10859   0.11328   0.11707   0.11878

 Mulliken charges:
               1
     1  Mg   0.982998
     2  C   -0.066504
     3  C   -0.113847
     4  C   -0.098690
     5  C   -0.072543
     6  N   -0.416041
     7  C   -0.015752
     8  C   -0.061788
     9  C   -0.119776
    10  C    0.104282
    11  C    0.042271
    12  C    0.047949
    13  C    0.016931
    14  C    0.207353
    15  O   -0.294905
    16  O   -0.339034
    17  N   -0.489148
    18  C    0.185244
    19  C   -0.139120
    20  C   -0.082441
    21  C    0.163161
    22  C    0.030585
    23  C    0.066698
    24  O   -0.220255
    25  C   -0.016571
    26  N   -0.359528
    27  C    0.079332
    28  C   -0.068405
    29  C   -0.048928
    30  C    0.054069
    31  C    0.005656
    32  C   -0.037487
    33  C   -0.033656
    34  N   -0.430168
    35  C    0.065261
    36  C   -0.160871
    37  C   -0.098955
    38  C    0.185209
    39  C    0.074703
    40  C    0.150849
    41  O   -0.235084
    42  C    0.021312
    43  C    0.223770
    44  O   -0.241239
    45  O   -0.346295
    46  C    0.132635
    47  C    0.253494
    48  C   -0.089220
    49  C   -0.228960
    50  C    0.010304
    51  C    0.033673
    52  C    0.006718
    53  C   -0.017925
    54  C   -0.160097
    55  C   -0.003534
    56  C    0.019212
    57  C   -0.006996
    58  C    0.011096
    59  C   -0.201309
    60  C    0.010191
    61  C    0.013543
    62  C   -0.017593
    63  C    0.033334
    64  C   -0.190277
    65  C   -0.024408
    66  C   -0.007850
    67  H   -0.002471
    68  H    0.019743
    69  H    0.000362
    70  H    0.013490
    71  H    0.024268
    72  H    0.056809
    73  H    0.035363
    74  H    0.049169
    75  H    0.043555
    76  H    0.036605
    77  H    0.061907
    78  H    0.038596
    79  H    0.064116
    80  H    0.043632
    81  H    0.055417
    82  H    0.069830
    83  H    0.056733
    84  H    0.032992
    85  H    0.037784
    86  H    0.037543
    87  H    0.043744
    88  H    0.039613
    89  H    0.037379
    90  H    0.029794
    91  H    0.028690
    92  H    0.032056
    93  H    0.050442
    94  H    0.040057
    95  H    0.032572
    96  H    0.065564
    97  H    0.045370
    98  H    0.064176
    99  H    0.069655
   100  H    0.054373
   101  H    0.061793
   102  H    0.059152
   103  H    0.053841
   104  H    0.018071
   105  H    0.035322
   106  H    0.046460
   107  H    0.038854
   108  H    0.025888
   109  H    0.020110
   110  H    0.040267
   111  H    0.028189
   112  H    0.007071
   113  H    0.003804
   114  H    0.014506
   115  H    0.015817
   116  H    0.024481
   117  H    0.020003
   118  H   -0.000674
   119  H   -0.004909
   120  H    0.021699
   121  H    0.027547
   122  H    0.014146
   123  H    0.010808
   124  H    0.013286
   125  H    0.030786
   126  H    0.015884
   127  H    0.027241
   128  H    0.024214
   129  H    0.008855
   130  H    0.016577
   131  H    0.011343
   132  H    0.004257
   133  H    0.006506
   134  H    0.026467
   135  H    0.022800
   136  H    0.028670
   137  H    0.028005
   138  H    0.037160
   139  H    0.024813
   140  H    0.005324
 Sum of Mulliken charges =  -0.00000

 Dipole moment (field-independent basis, Debye):
    X=              6.9366    Y=              3.2821    Z=              0.3363  Tot=              7.6813
 Quadrupole moment (field-independent basis, Debye-Ang):
   XX=           -379.7812   YY=           -420.0439   ZZ=           -413.7163
   XY=            -31.7752   XZ=             17.3754   YZ=              5.7743

 Normal termination of Gaussian 16 at Wed May  4 00:02:59 2022.
