 Gaussian 16, Revision A.03,
 Gaussian 16:  ES64L-G16RevA.03 25-Dec-2016

 --------------------
 #p ZINDO=(nstates=5)
 --------------------

 ------------------------------
 step_1101_chromophore_12 ZINDO
 ------------------------------
 Symbolic Z-matrix:
 Charge =  0 Multiplicity = 1

                         Standard orientation:
 ---------------------------------------------------------------------
 Center     Atomic      Atomic             Coordinates (Angstroms)
 Number     Number       Type             X           Y           Z
 ---------------------------------------------------------------------
      1         12           0       -3.859463    0.649339   -0.329959
      2          6           0       -3.659170   -2.690601    0.525574
      3          6           0       -0.604126    1.004048    0.307230
      4          6           0       -4.205462    4.046672   -0.782109
      5          6           0       -7.332166    0.372339   -0.107926
      6          7           0       -2.357600   -0.703584    0.235127
      7          6           0       -2.438984   -2.111482    0.380957
      8          6           0       -1.064867   -2.828845    0.437756
      9          6           0       -0.223548   -1.532529    0.788047
     10          6           0       -1.064997   -0.301359    0.354430
     11          6           0        0.075560   -1.499961    2.329004
     12          6           0       -0.740785   -3.441187   -0.931523
     13          6           0        0.164931   -4.733812   -0.938777
     14          6           0        1.406856   -4.772681   -1.840466
     15          8           0        1.353280   -4.462115   -3.047450
     16          8           0        2.515035   -5.142840   -1.156323
     17          7           0       -2.585667    2.235499   -0.531323
     18          6           0       -1.226701    2.143942   -0.157705
     19          6           0       -0.632646    3.447402   -0.170929
     20          6           0       -1.614184    4.337186   -0.551066
     21          6           0       -2.916815    3.549973   -0.676424
     22          6           0        0.783933    3.773346    0.214443
     23          6           0       -1.513687    5.871069   -0.891042
     24          8           0       -2.419492    6.555274   -1.314813
     25          6           0       -0.246025    6.661062   -0.752066
     26          7           0       -5.461010    2.044589   -0.439584
     27          6           0       -5.384314    3.374916   -0.702045
     28          6           0       -6.791877    3.996754   -0.794386
     29          6           0       -7.747229    2.868780   -0.512252
     30          6           0       -6.798689    1.681962   -0.361086
     31          6           0       -6.964304    5.270032    0.018273
     32          6           0       -8.801972    2.675102   -1.679280
     33          6           0       -8.322400    2.002322   -2.968570
     34          7           0       -5.333431   -0.775164    0.088092
     35          6           0       -6.717563   -0.863400    0.155194
     36          6           0       -7.173407   -2.176595    0.524132
     37          6           0       -5.992109   -2.936652    0.617352
     38          6           0       -4.911881   -2.028114    0.328080
     39          6           0       -8.609105   -2.666366    0.637570
     40          6           0       -5.449505   -4.311962    0.812936
     41          8           0       -5.994687   -5.395604    1.114449
     42          6           0       -3.977565   -4.161026    0.791967
     43          6           0       -3.397793   -4.526883    2.080765
     44          8           0       -3.616858   -4.023467    3.168002
     45          8           0       -2.554958   -5.533464    1.863346
     46          6           0       -1.553578   -5.792300    2.923892
     47          6           0        3.702731   -5.055530   -2.023284
     48          6           0        4.962856   -5.017397   -1.225001
     49          6           0        6.172319   -4.607709   -1.644689
     50          6           0        6.526353   -4.023070   -3.041733
     51          6           0        7.384003   -4.503849   -0.718682
     52          6           0        7.725258   -3.104766   -0.170593
     53          6           0        9.023405   -2.426159   -0.737910
     54          6           0        9.024454   -0.863087   -0.548051
     55          6           0       10.135232   -0.186872   -1.350307
     56          6           0        9.207400   -0.384541    0.900690
     57          6           0        8.330467    0.700611    1.488440
     58          6           0        9.175477    2.067685    1.362922
     59          6           0        8.480139    3.031099    0.380892
     60          6           0        9.491374    3.752351   -0.527406
     61          6           0        7.577058    4.068623    1.160008
     62          6           0        6.493479    4.672568    0.247663
     63          6           0        5.094316    4.317099    0.623860
     64          6           0        4.553936    4.942161    1.880710
     65          6           0        3.857972    3.958777    2.841540
     66          6           0        3.639148    6.132201    1.560454
     67          1           0        0.454569    1.161865    0.524633
     68          1           0       -4.290732    5.122058   -0.954180
     69          1           0       -8.361721    0.294631    0.247755
     70          1           0       -0.978748   -3.592706    1.211355
     71          1           0        0.672533   -1.527725    0.167076
     72          1           0       -0.567323   -2.190869    2.875763
     73          1           0       -0.220820   -0.478010    2.566410
     74          1           0        1.137875   -1.666820    2.503608
     75          1           0       -0.310186   -2.678440   -1.580574
     76          1           0       -1.687516   -3.733076   -1.386408
     77          1           0       -0.521282   -5.470814   -1.355375
     78          1           0        0.388021   -5.101486    0.063366
     79          1           0        1.342336    3.852653   -0.718565
     80          1           0        1.247128    3.071711    0.907774
     81          1           0        1.001594    4.708391    0.731256
     82          1           0       -0.175506    7.003801    0.279588
     83          1           0       -0.300708    7.515516   -1.427310
     84          1           0        0.657878    6.132721   -1.052318
     85          1           0       -6.984679    4.401418   -1.787400
     86          1           0       -8.273768    2.995117    0.433133
     87          1           0       -6.099173    5.237402    0.680724
     88          1           0       -7.887050    5.413214    0.580362
     89          1           0       -6.918539    6.119066   -0.662874
     90          1           0       -9.179020    3.687463   -1.823882
     91          1           0       -9.618925    2.071897   -1.281505
     92          1           0       -8.452718    2.720104   -3.778405
     93          1           0       -8.841944    1.068293   -3.185879
     94          1           0       -7.244924    1.844482   -2.919161
     95          1           0       -9.069676   -1.915843    1.281125
     96          1           0       -8.750053   -3.666516    1.049195
     97          1           0       -9.174184   -2.577242   -0.289424
     98          1           0       -3.594958   -4.795589   -0.006724
     99          1           0       -2.026872   -6.230281    3.803532
    100          1           0       -1.054710   -4.885580    3.266249
    101          1           0       -0.857704   -6.497155    2.468421
    102          1           0        3.725244   -4.219185   -2.722330
    103          1           0        3.612221   -5.910903   -2.692186
    104          1           0        5.025096   -5.194121   -0.152037
    105          1           0        7.523233   -4.348248   -3.340916
    106          1           0        6.599359   -2.935586   -3.026619
    107          1           0        5.808182   -4.266571   -3.824567
    108          1           0        8.296951   -4.817717   -1.226591
    109          1           0        7.172351   -5.208943    0.084722
    110          1           0        7.856678   -3.245435    0.902147
    111          1           0        6.923242   -2.412469   -0.428931
    112          1           0        9.359088   -2.606844   -1.759437
    113          1           0        9.940816   -2.822174   -0.302628
    114          1           0        8.095364   -0.532965   -1.012793
    115          1           0        9.772130    0.099446   -2.336877
    116          1           0       10.996971   -0.834821   -1.513675
    117          1           0       10.524479    0.774402   -1.016249
    118          1           0       10.263036   -0.128643    0.982417
    119          1           0        9.248977   -1.161846    1.664579
    120          1           0        8.211218    0.487946    2.550495
    121          1           0        7.352064    0.773320    1.012475
    122          1           0       10.247017    1.975381    1.189998
    123          1           0        9.157517    2.466984    2.377448
    124          1           0        7.747159    2.557387   -0.270783
    125          1           0        9.071781    3.729907   -1.533441
    126          1           0       10.440054    3.215870   -0.531548
    127          1           0        9.823451    4.750787   -0.243315
    128          1           0        8.170780    4.811578    1.692860
    129          1           0        7.140393    3.380784    1.885401
    130          1           0        6.663285    4.352956   -0.780644
    131          1           0        6.482007    5.762488    0.265359
    132          1           0        4.960854    3.237719    0.549515
    133          1           0        4.535345    4.738720   -0.211252
    134          1           0        5.328479    5.369454    2.517732
    135          1           0        3.034215    4.373468    3.423073
    136          1           0        4.511940    3.640739    3.652565
    137          1           0        3.522976    3.038753    2.361234
    138          1           0        3.874125    6.878938    0.801980
    139          1           0        3.599079    6.750700    2.457457
    140          1           0        2.676108    5.653270    1.382823
 ---------------------------------------------------------------------

 SCF Done:  E(RZINDO/S) =  -474.478932087     A.U. after   19 cycles

 Excitation energies and oscillator strengths:

 Excited State   1:      Singlet-A      1.2563 eV  986.92 nm  f=0.5670  <S**2>=0.000
     175 ->178        -0.16252
     176 ->177         0.67166
 This state for optimization and/or second-order correction.
 Total Energy, E(CIS/TDA) =  -474.432764982
 Copying the excited state density for this state as the 1-particle RhoCI density.

 Excited State   2:      Singlet-A      1.9831 eV  625.20 nm  f=0.0077  <S**2>=0.000
     175 ->177         0.49387
     176 ->178         0.47990

 Excited State   3:      Singlet-A      2.9101 eV  426.05 nm  f=0.0016  <S**2>=0.000
     168 ->177         0.29812
     168 ->178        -0.10561
     168 ->179        -0.39024
     168 ->180        -0.15097
     168 ->181         0.28905
     168 ->186        -0.24093
     168 ->188         0.12602

 Excited State   4:      Singlet-A      2.9588 eV  419.04 nm  f=0.1133  <S**2>=0.000
     175 ->177         0.14147
     176 ->178        -0.13670
     176 ->179         0.58058
     176 ->181         0.26147

 Excited State   5:      Singlet-A      3.0071 eV  412.31 nm  f=0.7086  <S**2>=0.000
     169 ->177         0.10586
     170 ->179         0.17405
     170 ->181         0.13435
     171 ->177         0.12785
     171 ->179         0.13732
     171 ->181         0.16469
     175 ->177        -0.34227
     176 ->178         0.37328
     176 ->179         0.17885

 The electronic state is 1-A.
 Alpha  occ. eigenvalues --   -1.84176  -1.81847  -1.80478  -1.74810  -1.74021
 Alpha  occ. eigenvalues --   -1.70950  -1.66893  -1.62214  -1.61227  -1.58786
 Alpha  occ. eigenvalues --   -1.56199  -1.51548  -1.49270  -1.47517  -1.46600
 Alpha  occ. eigenvalues --   -1.43939  -1.43183  -1.40843  -1.39717  -1.38880
 Alpha  occ. eigenvalues --   -1.35893  -1.33749  -1.32791  -1.31658  -1.29894
 Alpha  occ. eigenvalues --   -1.28989  -1.25911  -1.21895  -1.21012  -1.18500
 Alpha  occ. eigenvalues --   -1.17574  -1.17052  -1.16442  -1.15162  -1.14082
 Alpha  occ. eigenvalues --   -1.13025  -1.11553  -1.10583  -1.05037  -1.03984
 Alpha  occ. eigenvalues --   -1.03049  -1.01241  -0.98924  -0.98435  -0.97386
 Alpha  occ. eigenvalues --   -0.96709  -0.95428  -0.94705  -0.93841  -0.93115
 Alpha  occ. eigenvalues --   -0.92243  -0.89986  -0.89795  -0.88059  -0.86919
 Alpha  occ. eigenvalues --   -0.85488  -0.85343  -0.84053  -0.81824  -0.81151
 Alpha  occ. eigenvalues --   -0.80286  -0.79639  -0.77512  -0.77062  -0.76745
 Alpha  occ. eigenvalues --   -0.76143  -0.76012  -0.75340  -0.74581  -0.74159
 Alpha  occ. eigenvalues --   -0.72925  -0.72684  -0.71894  -0.71800  -0.71123
 Alpha  occ. eigenvalues --   -0.70600  -0.69955  -0.69259  -0.68481  -0.68362
 Alpha  occ. eigenvalues --   -0.67988  -0.67082  -0.66643  -0.66601  -0.66435
 Alpha  occ. eigenvalues --   -0.66015  -0.65797  -0.64961  -0.63923  -0.63522
 Alpha  occ. eigenvalues --   -0.63324  -0.63218  -0.62634  -0.62551  -0.62423
 Alpha  occ. eigenvalues --   -0.61546  -0.61516  -0.61063  -0.60517  -0.60472
 Alpha  occ. eigenvalues --   -0.60427  -0.59545  -0.59146  -0.58868  -0.58723
 Alpha  occ. eigenvalues --   -0.58288  -0.57684  -0.57485  -0.57344  -0.56789
 Alpha  occ. eigenvalues --   -0.56475  -0.55460  -0.55299  -0.54860  -0.54766
 Alpha  occ. eigenvalues --   -0.54279  -0.54026  -0.53376  -0.53258  -0.52934
 Alpha  occ. eigenvalues --   -0.52486  -0.52287  -0.52015  -0.51970  -0.51261
 Alpha  occ. eigenvalues --   -0.51141  -0.51054  -0.50870  -0.50763  -0.50556
 Alpha  occ. eigenvalues --   -0.50366  -0.50038  -0.49811  -0.49327  -0.49152
 Alpha  occ. eigenvalues --   -0.48421  -0.48277  -0.48247  -0.47995  -0.47863
 Alpha  occ. eigenvalues --   -0.47733  -0.47362  -0.47257  -0.47089  -0.46678
 Alpha  occ. eigenvalues --   -0.46343  -0.46246  -0.46017  -0.45677  -0.45613
 Alpha  occ. eigenvalues --   -0.45541  -0.45321  -0.44835  -0.44759  -0.44018
 Alpha  occ. eigenvalues --   -0.43900  -0.43712  -0.43169  -0.42872  -0.42685
 Alpha  occ. eigenvalues --   -0.41229  -0.40779  -0.40373  -0.39298  -0.39191
 Alpha  occ. eigenvalues --   -0.37965  -0.37724  -0.35907  -0.34869  -0.34469
 Alpha  occ. eigenvalues --   -0.34355  -0.32972  -0.32869  -0.31956  -0.27333
 Alpha  occ. eigenvalues --   -0.21509
 Alpha virt. eigenvalues --   -0.08239  -0.02075  -0.00457   0.00893   0.01141
 Alpha virt. eigenvalues --    0.02522   0.02965   0.03501   0.04098   0.04784
 Alpha virt. eigenvalues --    0.05890   0.06279   0.07124   0.07748   0.08318

 Mulliken charges:
               1
     1  Mg   0.427769
     2  C   -0.023887
     3  C   -0.076949
     4  C   -0.060505
     5  C   -0.068325
     6  N   -0.286052
     7  C    0.084180
     8  C   -0.004754
     9  C    0.001185
    10  C    0.169601
    11  C   -0.053195
    12  C   -0.017417
    13  C   -0.004594
    14  C    0.471021
    15  O   -0.532538
    16  O   -0.251451
    17  N   -0.336038
    18  C    0.135540
    19  C    0.035122
    20  C   -0.037967
    21  C    0.155644
    22  C   -0.045158
    23  C    0.325683
    24  O   -0.505123
    25  C   -0.026075
    26  N   -0.272265
    27  C    0.166804
    28  C    0.009621
    29  C    0.005166
    30  C    0.095469
    31  C   -0.055858
    32  C   -0.028630
    33  C   -0.051354
    34  N   -0.314162
    35  C    0.073761
    36  C    0.019458
    37  C   -0.068567
    38  C    0.094005
    39  C   -0.039085
    40  C    0.337697
    41  O   -0.537606
    42  C    0.066105
    43  C    0.508639
    44  O   -0.537208
    45  O   -0.271216
    46  C    0.073723
    47  C    0.113104
    48  C   -0.086497
    49  C   -0.014879
    50  C   -0.050057
    51  C   -0.023174
    52  C   -0.023791
    53  C   -0.042826
    54  C   -0.003630
    55  C   -0.058424
    56  C   -0.032061
    57  C   -0.034243
    58  C   -0.039895
    59  C   -0.013936
    60  C   -0.061664
    61  C   -0.039384
    62  C   -0.029464
    63  C   -0.020516
    64  C    0.002914
    65  C   -0.057780
    66  C   -0.060444
    67  H    0.021344
    68  H    0.039731
    69  H    0.016198
    70  H    0.041182
    71  H    0.022748
    72  H    0.036649
    73  H    0.025199
    74  H    0.025569
    75  H    0.032757
    76  H    0.024685
    77  H    0.042323
    78  H    0.032554
    79  H    0.033337
    80  H    0.025718
    81  H    0.028853
    82  H    0.044485
    83  H    0.038506
    84  H    0.023144
    85  H    0.030564
    86  H    0.031933
    87  H    0.024045
    88  H    0.024003
    89  H    0.019017
    90  H    0.016312
    91  H    0.014924
    92  H    0.014569
    93  H    0.029155
    94  H    0.023959
    95  H    0.020363
    96  H    0.039599
    97  H    0.027443
    98  H    0.050778
    99  H    0.050319
   100  H    0.041655
   101  H    0.030099
   102  H    0.057172
   103  H    0.049418
   104  H    0.036795
   105  H    0.022681
   106  H    0.027760
   107  H    0.021203
   108  H    0.023009
   109  H    0.016378
   110  H    0.026348
   111  H    0.024651
   112  H    0.022773
   113  H    0.012507
   114  H    0.019273
   115  H    0.003012
   116  H    0.017868
   117  H    0.019787
   118  H    0.013824
   119  H    0.004684
   120  H    0.016740
   121  H    0.028775
   122  H    0.031079
   123  H    0.007981
   124  H    0.024555
   125  H    0.016754
   126  H    0.011493
   127  H    0.022674
   128  H    0.025971
   129  H    0.013108
   130  H    0.016984
   131  H    0.015448
   132  H    0.015538
   133  H    0.003665
   134  H    0.017483
   135  H    0.016208
   136  H    0.011856
   137  H    0.016492
   138  H    0.024972
   139  H    0.007880
   140  H    0.017912
 Sum of Mulliken charges =  -0.00000

 Dipole moment (field-independent basis, Debye):
    X=             10.1849    Y=              5.5204    Z=             -0.0523  Tot=             11.5849
 N-N= 4.541055849681D+03 E-N= 0.000000000000D+00  KE=-9.755650943292D+03
 Leave Link  601 at Wed May  4 00:16:26 2022, MaxMem=  6710886400 cpu:               0.9 elap:               0.1
 (Enter /sw/apps/gaussian-16.0/g16/l9999.exe)
 1\1\GINC-BP1-COMPUTE036\SP\RZINDO CIS\STO-3G\C55H74Mg1N4O6\OF15641\04-
 May-2022\0\\#p ZINDO=(nstates=5)\\step_1101_chromophore_12 ZINDO\\0,1\
 Mg,0,47.245,16.31,28.454\C,0,45.064,15.593,31.034\C,0,48.658,18.691,30
 .315\C,0,49.101,17.263,25.713\C,0,45.165,14.463,26.345\N,0,46.941,16.9
 49,30.43\C,0,46.085,16.402,31.419\C,0,46.389,16.88,32.863\C,0,47.236,1
 8.149,32.435\C,0,47.727,17.911,30.981\C,0,46.34,19.435,32.527\C,0,47.1
 93,15.806,33.608\C,0,47.009,15.735,35.174\C,0,48.252,15.744,36.075\O,0

 Normal termination of Gaussian 16 at Wed May  4 00:16:27 2022.
