 Gaussian 16, Revision A.03,
 Gaussian 16:  ES64L-G16RevA.03 25-Dec-2016

 ------------------------------
 #p blyp/Def2SVP td=(nstates=5)
 ------------------------------

 ---------------------------------------------------
 step_1601_chromophore_19 TDDFT with blyp functional
 ---------------------------------------------------
 Symbolic Z-matrix:
 Charge =  0 Multiplicity = 1

                         Standard orientation:
 ---------------------------------------------------------------------
 Center     Atomic      Atomic             Coordinates (Angstroms)
 Number     Number       Type             X           Y           Z
 ---------------------------------------------------------------------
      1         12           0       -5.920219    0.278345   -0.075890
      2          6           0       -3.520384   -2.215533   -0.221869
      3          6           0       -3.515152    2.604535    0.308983
      4          6           0       -8.368909    2.646585    0.367459
      5          6           0       -8.449798   -2.142105   -0.258789
      6          7           0       -3.684431    0.123409    0.253571
      7          6           0       -2.944479   -0.970026   -0.079322
      8          6           0       -1.462076   -0.586649   -0.120654
      9          6           0       -1.458110    0.962932    0.152877
     10          6           0       -3.008857    1.281130    0.260137
     11          6           0       -0.618877    1.530402    1.380784
     12          6           0       -0.707766   -1.077633   -1.445292
     13          6           0        0.642977   -1.812004   -1.170050
     14          6           0        1.701128   -1.382802   -0.056489
     15          8           0        1.529842   -1.451878    1.187537
     16          8           0        2.811137   -0.646061   -0.475383
     17          7           0       -5.920379    2.303271    0.293317
     18          6           0       -4.823117    3.106992    0.254187
     19          6           0       -5.171240    4.504652    0.293768
     20          6           0       -6.664563    4.539723    0.373413
     21          6           0       -7.035613    3.132767    0.337489
     22          6           0       -4.169679    5.698587    0.167269
     23          6           0       -7.535216    5.790467    0.445629
     24          8           0       -8.737495    5.693134    0.471531
     25          6           0       -6.915132    7.117591    0.257184
     26          7           0       -8.143077    0.283700    0.055844
     27          6           0       -8.879775    1.354359    0.287205
     28          6           0      -10.348553    1.064403    0.295311
     29          6           0      -10.398345   -0.401148   -0.223944
     30          6           0       -8.953057   -0.829117   -0.220106
     31          6           0      -10.989147    1.305515    1.688518
     32          6           0      -11.089446   -0.494298   -1.630792
     33          6           0      -10.257977   -0.148319   -2.884127
     34          7           0       -6.000004   -1.729063   -0.178964
     35          6           0       -7.116119   -2.577171   -0.236645
     36          6           0       -6.639742   -3.976372   -0.360995
     37          6           0       -5.247524   -3.885028   -0.390430
     38          6           0       -4.917141   -2.490384   -0.181454
     39          6           0       -7.476197   -5.189292   -0.548954
     40          6           0       -4.049776   -4.696580   -0.417910
     41          8           0       -3.939823   -5.909894   -0.451123
     42          6           0       -2.860584   -3.623858   -0.333824
     43          6           0       -1.912574   -3.943231    0.853981
     44          8           0       -2.111901   -3.729953    2.070941
     45          8           0       -0.760721   -4.629879    0.390094
     46          6           0        0.182384   -4.992766    1.432409
     47          6           0        3.898936   -0.176771    0.503820
     48          6           0        5.327150   -0.717988    0.117700
     49          6           0        6.460631   -0.700105    0.827940
     50          6           0        6.575980    0.087526    2.184436
     51          6           0        7.793661   -1.083342    0.331473
     52          6           0        8.685543   -0.020251   -0.290554
     53          6           0        8.391786    0.074167   -1.800733
     54          6           0        9.301271    1.233625   -2.465393
     55          6           0        8.374400    2.218345   -3.288346
     56          6           0       10.454787    0.642591   -3.256323
     57          6           0       11.776111    1.525049   -3.140461
     58          6           0       13.110857    0.758208   -3.025441
     59          6           0       13.717680    0.940576   -1.574727
     60          6           0       15.240360    0.779079   -1.559525
     61          6           0       12.988815    0.031008   -0.384683
     62          6           0       13.084394    0.682753    1.017203
     63          6           0       11.881705    0.350691    1.938745
     64          6           0       12.270580    0.332469    3.475901
     65          6           0       11.393120   -0.654289    4.294392
     66          6           0       12.310431    1.793062    3.976114
     67          1           0       -2.792599    3.396272    0.098655
     68          1           0       -9.119593    3.439401    0.384076
     69          1           0       -9.174864   -2.948105   -0.388614
     70          1           0       -1.082693   -1.089325    0.768398
     71          1           0       -1.075031    1.552826   -0.678845
     72          1           0       -0.106151    2.452568    1.110374
     73          1           0        0.110242    0.818262    1.766814
     74          1           0       -1.308964    1.965587    2.103568
     75          1           0       -0.559062   -0.185740   -2.053189
     76          1           0       -1.216782   -1.769001   -2.116278
     77          1           0        1.038084   -1.658664   -2.173906
     78          1           0        0.524394   -2.894409   -1.216785
     79          1           0       -4.345731    6.345329    1.027141
     80          1           0       -4.302894    6.183809   -0.798998
     81          1           0       -3.095471    5.517367    0.200251
     82          1           0       -6.302180    7.392278    1.115967
     83          1           0       -7.658988    7.914754    0.267843
     84          1           0       -6.402208    7.129116   -0.704181
     85          1           0      -10.974129    1.726111   -0.304461
     86          1           0      -10.895867   -1.078490    0.470357
     87          1           0      -10.375501    2.061762    2.177765
     88          1           0      -10.922689    0.388106    2.273300
     89          1           0      -12.003241    1.676886    1.545232
     90          1           0      -11.944920    0.175609   -1.716208
     91          1           0      -11.418555   -1.524181   -1.764535
     92          1           0      -10.749934    0.305404   -3.744047
     93          1           0       -9.853593   -1.100731   -3.228508
     94          1           0       -9.386630    0.463672   -2.650112
     95          1           0       -7.513876   -5.652802    0.436691
     96          1           0       -6.859877   -5.828763   -1.180350
     97          1           0       -8.448201   -5.114376   -1.036754
     98          1           0       -2.214044   -3.769067   -1.199136
     99          1           0        0.938144   -4.210522    1.507393
    100          1           0        0.787056   -5.847505    1.128349
    101          1           0       -0.219971   -5.136981    2.434783
    102          1           0        3.663403   -0.477512    1.525466
    103          1           0        3.813880    0.907053    0.429621
    104          1           0        5.312507   -1.371730   -0.754187
    105          1           0        6.877068   -0.690452    2.885926
    106          1           0        5.677844    0.522017    2.622718
    107          1           0        7.278332    0.902876    2.010486
    108          1           0        7.688787   -1.883594   -0.402070
    109          1           0        8.318975   -1.517783    1.182089
    110          1           0        9.715418   -0.373923   -0.241670
    111          1           0        8.595570    1.009152    0.055770
    112          1           0        7.338945    0.355655   -1.830911
    113          1           0        8.539183   -0.962186   -2.103593
    114          1           0        9.629498    1.941651   -1.705110
    115          1           0        8.548223    3.246589   -2.972027
    116          1           0        7.317251    1.965453   -3.209416
    117          1           0        8.581162    2.139808   -4.356325
    118          1           0       10.336477    0.652928   -4.339820
    119          1           0       10.677123   -0.385298   -2.968489
    120          1           0       11.559849    2.181407   -2.297341
    121          1           0       11.766475    2.111184   -4.059978
    122          1           0       13.749329    1.048282   -3.859887
    123          1           0       12.959895   -0.297961   -3.249637
    124          1           0       13.501165    1.974169   -1.303759
    125          1           0       15.899480    1.527250   -1.119063
    126          1           0       15.594753    0.687347   -2.585913
    127          1           0       15.589474   -0.095990   -1.011322
    128          1           0       13.547787   -0.899827   -0.294694
    129          1           0       11.951622   -0.178000   -0.646046
    130          1           0       13.091379    1.767688    0.912000
    131          1           0       14.044339    0.343908    1.407043
    132          1           0       11.540748   -0.665177    1.738690
    133          1           0       10.978012    0.959801    1.948263
    134          1           0       13.298329   -0.008810    3.602069
    135          1           0       10.381801   -0.752031    3.899278
    136          1           0       11.293653   -0.243403    5.299115
    137          1           0       11.895195   -1.621240    4.331585
    138          1           0       11.301003    2.198825    4.036694
    139          1           0       12.977764    2.451968    3.420216
    140          1           0       12.685578    1.804009    4.998721
 ---------------------------------------------------------------------

 SCF Done:  E(RB-LYP) =  -3007.39552129     A.U. after   21 cycles

 Excitation energies and oscillator strengths:

 Excited State   1:      Singlet-A      1.8173 eV  682.23 nm  f=0.2827  <S**2>=0.000
     245 -> 248       -0.19181
     246 -> 247        0.68575
     246 <- 247       -0.14227
 This state for optimization and/or second-order correction.
 Total Energy, E(TD-HF/TD-DFT) =  -3007.32873545
 Copying the excited state density for this state as the 1-particle RhoCI density.

 Excited State   2:      Singlet-A      2.0254 eV  612.14 nm  f=0.0829  <S**2>=0.000
     245 -> 247        0.64445
     246 -> 248        0.24144

 Excited State   3:      Singlet-A      2.0790 eV  596.36 nm  f=0.0015  <S**2>=0.000
     244 -> 247        0.70094

 Excited State   4:      Singlet-A      2.1557 eV  575.15 nm  f=0.0013  <S**2>=0.000
     243 -> 247        0.70344

 Excited State   5:      Singlet-A      2.6224 eV  472.79 nm  f=0.0012  <S**2>=0.000
     239 -> 247        0.12203
     240 -> 247       -0.10980
     241 -> 247       -0.30567
     242 -> 247        0.60595

 The electronic state is 1-A.
 Alpha  occ. eigenvalues --  -46.27010 -18.82036 -18.81662 -18.77213 -18.76515
 Alpha  occ. eigenvalues --  -18.76124 -18.75596 -14.02767 -14.02641 -14.01162
 Alpha  occ. eigenvalues --  -14.00893 -10.05681 -10.03945  -9.99953  -9.99848
 Alpha  occ. eigenvalues --   -9.99313  -9.96659  -9.96384  -9.96235  -9.96029
 Alpha  occ. eigenvalues --   -9.95801  -9.95663  -9.95483  -9.95283  -9.94909
 Alpha  occ. eigenvalues --   -9.94863  -9.94793  -9.94762  -9.94488  -9.94058
 Alpha  occ. eigenvalues --   -9.93957  -9.93765  -9.93659  -9.93628  -9.93618
 Alpha  occ. eigenvalues --   -9.93476  -9.93089  -9.93033  -9.92997  -9.92837
 Alpha  occ. eigenvalues --   -9.92748  -9.92745  -9.92617  -9.92609  -9.92547
 Alpha  occ. eigenvalues --   -9.92309  -9.92251  -9.92060  -9.91944  -9.91909
 Alpha  occ. eigenvalues --   -9.91895  -9.91826  -9.91687  -9.91680  -9.91611
 Alpha  occ. eigenvalues --   -9.91464  -9.91447  -9.91436  -9.91337  -9.91244
 Alpha  occ. eigenvalues --   -9.91178  -9.91146  -9.91021  -9.90997  -9.90860
 Alpha  occ. eigenvalues --   -9.90717  -2.91650  -1.72073  -1.71529  -1.71370
 Alpha  occ. eigenvalues --   -0.96000  -0.95560  -0.92617  -0.91606  -0.87975
 Alpha  occ. eigenvalues --   -0.87624  -0.86440  -0.85883  -0.85394  -0.84532
 Alpha  occ. eigenvalues --   -0.74498  -0.74251  -0.72301  -0.72015  -0.71944
 Alpha  occ. eigenvalues --   -0.71602  -0.71301  -0.70532  -0.70285  -0.70194
 Alpha  occ. eigenvalues --   -0.69442  -0.68524  -0.67985  -0.67273  -0.66822
 Alpha  occ. eigenvalues --   -0.66438  -0.65776  -0.65096  -0.64793  -0.64176
 Alpha  occ. eigenvalues --   -0.63970  -0.62644  -0.61991  -0.61537  -0.60525
 Alpha  occ. eigenvalues --   -0.60393  -0.60199  -0.59518  -0.59473  -0.58915
 Alpha  occ. eigenvalues --   -0.58733  -0.57477  -0.56383  -0.56040  -0.54695
 Alpha  occ. eigenvalues --   -0.53793  -0.53654  -0.52666  -0.52331  -0.51236
 Alpha  occ. eigenvalues --   -0.50805  -0.50697  -0.50345  -0.50299  -0.50199
 Alpha  occ. eigenvalues --   -0.49455  -0.48947  -0.48852  -0.47668  -0.46709
 Alpha  occ. eigenvalues --   -0.46347  -0.45912  -0.45352  -0.44890  -0.44149
 Alpha  occ. eigenvalues --   -0.43496  -0.42986  -0.42505  -0.42265  -0.42083
 Alpha  occ. eigenvalues --   -0.41596  -0.41560  -0.41437  -0.40925  -0.40754
 Alpha  occ. eigenvalues --   -0.40604  -0.40569  -0.40198  -0.40140  -0.39941
 Alpha  occ. eigenvalues --   -0.39716  -0.39630  -0.39231  -0.39044  -0.39001
 Alpha  occ. eigenvalues --   -0.38773  -0.38523  -0.38455  -0.38195  -0.38034
 Alpha  occ. eigenvalues --   -0.37985  -0.37927  -0.37607  -0.37209  -0.37102
 Alpha  occ. eigenvalues --   -0.36931  -0.36825  -0.36710  -0.36640  -0.36556
 Alpha  occ. eigenvalues --   -0.36505  -0.36242  -0.35993  -0.35797  -0.35530
 Alpha  occ. eigenvalues --   -0.35361  -0.35193  -0.35133  -0.35087  -0.34564
 Alpha  occ. eigenvalues --   -0.34301  -0.34252  -0.34231  -0.34057  -0.33693
 Alpha  occ. eigenvalues --   -0.33664  -0.33436  -0.33201  -0.33160  -0.32896
 Alpha  occ. eigenvalues --   -0.32714  -0.32475  -0.32186  -0.32024  -0.31926
 Alpha  occ. eigenvalues --   -0.31872  -0.31769  -0.31417  -0.31358  -0.31327
 Alpha  occ. eigenvalues --   -0.31308  -0.31163  -0.30720  -0.30686  -0.30511
 Alpha  occ. eigenvalues --   -0.30325  -0.30195  -0.29836  -0.29743  -0.29693
 Alpha  occ. eigenvalues --   -0.29506  -0.29410  -0.29220  -0.29054  -0.28981
 Alpha  occ. eigenvalues --   -0.28871  -0.28506  -0.28493  -0.28440  -0.28098
 Alpha  occ. eigenvalues --   -0.27851  -0.27493  -0.27143  -0.26853  -0.26635
 Alpha  occ. eigenvalues --   -0.26470  -0.26099  -0.26063  -0.25189  -0.24986
 Alpha  occ. eigenvalues --   -0.24743  -0.24513  -0.24151  -0.23748  -0.23724
 Alpha  occ. eigenvalues --   -0.23110  -0.21974  -0.21683  -0.21282  -0.21130
 Alpha  occ. eigenvalues --   -0.20877  -0.20345  -0.19115  -0.18847  -0.17012
 Alpha  occ. eigenvalues --   -0.15690
 Alpha virt. eigenvalues --   -0.11307  -0.06707  -0.06092  -0.04985  -0.04591
 Alpha virt. eigenvalues --   -0.03166  -0.02202  -0.02120  -0.01088   0.00420
 Alpha virt. eigenvalues --    0.01479   0.01731   0.01799   0.02364   0.02695

 Mulliken charges:
               1
     1  Mg   0.690605
     2  C    0.050229
     3  C   -0.044700
     4  C   -0.071667
     5  C   -0.073846
     6  N   -0.190935
     7  C   -0.116748
     8  C    0.091980
     9  C   -0.041189
    10  C    0.021285
    11  C    0.113945
    12  C    0.111316
    13  C    0.083357
    14  C    0.156202
    15  O   -0.227556
    16  O   -0.301454
    17  N   -0.297749
    18  C    0.123609
    19  C   -0.143313
    20  C    0.009696
    21  C    0.098345
    22  C    0.158921
    23  C   -0.080833
    24  O   -0.142150
    25  C    0.155108
    26  N   -0.189946
    27  C    0.043728
    28  C   -0.014359
    29  C    0.093005
    30  C    0.009853
    31  C    0.128018
    32  C    0.079814
    33  C    0.051932
    34  N   -0.276640
    35  C    0.124013
    36  C   -0.174360
    37  C    0.054253
    38  C    0.073867
    39  C    0.174671
    40  C   -0.005871
    41  O   -0.117470
    42  C    0.026119
    43  C    0.134349
    44  O   -0.200630
    45  O   -0.289481
    46  C    0.213637
    47  C    0.284257
    48  C   -0.070914
    49  C   -0.143313
    50  C    0.095192
    51  C    0.173722
    52  C    0.029934
    53  C    0.068292
    54  C   -0.053330
    55  C    0.083985
    56  C    0.111567
    57  C    0.032580
    58  C    0.120662
    59  C   -0.062199
    60  C    0.103651
    61  C    0.074221
    62  C    0.090378
    63  C    0.070683
    64  C   -0.103442
    65  C    0.110507
    66  C    0.087262
    67  H   -0.064493
    68  H   -0.047598
    69  H   -0.068910
    70  H    0.013742
    71  H   -0.025329
    72  H   -0.031680
    73  H    0.025552
    74  H   -0.013663
    75  H   -0.018259
    76  H   -0.009416
    77  H   -0.022416
    78  H    0.019856
    79  H    0.003187
    80  H    0.009980
    81  H   -0.015422
    82  H    0.000213
    83  H   -0.019696
    84  H    0.016693
    85  H   -0.024111
    86  H   -0.034466
    87  H   -0.006165
    88  H   -0.011329
    89  H   -0.002317
    90  H   -0.018011
    91  H   -0.023737
    92  H   -0.005749
    93  H   -0.016333
    94  H   -0.001459
    95  H    0.011772
    96  H    0.005095
    97  H   -0.000807
    98  H   -0.010838
    99  H    0.001689
   100  H   -0.000494
   101  H    0.026194
   102  H    0.030287
   103  H    0.013086
   104  H   -0.030018
   105  H    0.004737
   106  H   -0.016693
   107  H    0.011475
   108  H   -0.040149
   109  H   -0.039561
   110  H   -0.009586
   111  H   -0.014583
   112  H   -0.030684
   113  H   -0.029354
   114  H   -0.026339
   115  H   -0.012767
   116  H   -0.015577
   117  H   -0.024406
   118  H   -0.030240
   119  H   -0.028920
   120  H   -0.027722
   121  H   -0.031861
   122  H   -0.036779
   123  H   -0.034962
   124  H   -0.028209
   125  H   -0.019670
   126  H   -0.025255
   127  H   -0.028230
   128  H   -0.024650
   129  H   -0.025384
   130  H   -0.023032
   131  H   -0.023775
   132  H   -0.033153
   133  H   -0.021206
   134  H   -0.041605
   135  H   -0.014519
   136  H   -0.026014
   137  H   -0.005387
   138  H   -0.021748
   139  H   -0.009500
   140  H   -0.023980
 Sum of Mulliken charges =  -0.00000

 Dipole moment (field-independent basis, Debye):
    X=              3.5399    Y=              3.7880    Z=             -3.3634  Tot=              6.1800
 Quadrupole moment (field-independent basis, Debye-Ang):
   XX=           -369.2954   YY=           -421.7578   ZZ=           -408.2908
   XY=              4.9084   XZ=             16.9605   YZ=              2.9595

 Normal termination of Gaussian 16 at Thu Apr 28 15:00:25 2022.
