 Gaussian 16, Revision A.03,
 Gaussian 16:  ES64L-G16RevA.03 25-Dec-2016

 -----------------------------------
 #p cam-b3lyp/Def2SVP td=(nstates=5)
 -----------------------------------

 --------------------------------------------------------
 step_1601_chromophore_19 TDDFT with cam-b3lyp functional
 --------------------------------------------------------
 Symbolic Z-matrix:
 Charge =  0 Multiplicity = 1

                         Standard orientation:
 ---------------------------------------------------------------------
 Center     Atomic      Atomic             Coordinates (Angstroms)
 Number     Number       Type             X           Y           Z
 ---------------------------------------------------------------------
      1         12           0       -5.920219    0.278345   -0.075890
      2          6           0       -3.520384   -2.215533   -0.221869
      3          6           0       -3.515152    2.604535    0.308983
      4          6           0       -8.368909    2.646585    0.367459
      5          6           0       -8.449798   -2.142105   -0.258789
      6          7           0       -3.684431    0.123409    0.253571
      7          6           0       -2.944479   -0.970026   -0.079322
      8          6           0       -1.462076   -0.586649   -0.120654
      9          6           0       -1.458110    0.962932    0.152877
     10          6           0       -3.008857    1.281130    0.260137
     11          6           0       -0.618877    1.530402    1.380784
     12          6           0       -0.707766   -1.077633   -1.445292
     13          6           0        0.642977   -1.812004   -1.170050
     14          6           0        1.701128   -1.382802   -0.056489
     15          8           0        1.529842   -1.451878    1.187537
     16          8           0        2.811137   -0.646061   -0.475383
     17          7           0       -5.920379    2.303271    0.293317
     18          6           0       -4.823117    3.106992    0.254187
     19          6           0       -5.171240    4.504652    0.293768
     20          6           0       -6.664563    4.539723    0.373413
     21          6           0       -7.035613    3.132767    0.337489
     22          6           0       -4.169679    5.698587    0.167269
     23          6           0       -7.535216    5.790467    0.445629
     24          8           0       -8.737495    5.693134    0.471531
     25          6           0       -6.915132    7.117591    0.257184
     26          7           0       -8.143077    0.283700    0.055844
     27          6           0       -8.879775    1.354359    0.287205
     28          6           0      -10.348553    1.064403    0.295311
     29          6           0      -10.398345   -0.401148   -0.223944
     30          6           0       -8.953057   -0.829117   -0.220106
     31          6           0      -10.989147    1.305515    1.688518
     32          6           0      -11.089446   -0.494298   -1.630792
     33          6           0      -10.257977   -0.148319   -2.884127
     34          7           0       -6.000004   -1.729063   -0.178964
     35          6           0       -7.116119   -2.577171   -0.236645
     36          6           0       -6.639742   -3.976372   -0.360995
     37          6           0       -5.247524   -3.885028   -0.390430
     38          6           0       -4.917141   -2.490384   -0.181454
     39          6           0       -7.476197   -5.189292   -0.548954
     40          6           0       -4.049776   -4.696580   -0.417910
     41          8           0       -3.939823   -5.909894   -0.451123
     42          6           0       -2.860584   -3.623858   -0.333824
     43          6           0       -1.912574   -3.943231    0.853981
     44          8           0       -2.111901   -3.729953    2.070941
     45          8           0       -0.760721   -4.629879    0.390094
     46          6           0        0.182384   -4.992766    1.432409
     47          6           0        3.898936   -0.176771    0.503820
     48          6           0        5.327150   -0.717988    0.117700
     49          6           0        6.460631   -0.700105    0.827940
     50          6           0        6.575980    0.087526    2.184436
     51          6           0        7.793661   -1.083342    0.331473
     52          6           0        8.685543   -0.020251   -0.290554
     53          6           0        8.391786    0.074167   -1.800733
     54          6           0        9.301271    1.233625   -2.465393
     55          6           0        8.374400    2.218345   -3.288346
     56          6           0       10.454787    0.642591   -3.256323
     57          6           0       11.776111    1.525049   -3.140461
     58          6           0       13.110857    0.758208   -3.025441
     59          6           0       13.717680    0.940576   -1.574727
     60          6           0       15.240360    0.779079   -1.559525
     61          6           0       12.988815    0.031008   -0.384683
     62          6           0       13.084394    0.682753    1.017203
     63          6           0       11.881705    0.350691    1.938745
     64          6           0       12.270580    0.332469    3.475901
     65          6           0       11.393120   -0.654289    4.294392
     66          6           0       12.310431    1.793062    3.976114
     67          1           0       -2.792599    3.396272    0.098655
     68          1           0       -9.119593    3.439401    0.384076
     69          1           0       -9.174864   -2.948105   -0.388614
     70          1           0       -1.082693   -1.089325    0.768398
     71          1           0       -1.075031    1.552826   -0.678845
     72          1           0       -0.106151    2.452568    1.110374
     73          1           0        0.110242    0.818262    1.766814
     74          1           0       -1.308964    1.965587    2.103568
     75          1           0       -0.559062   -0.185740   -2.053189
     76          1           0       -1.216782   -1.769001   -2.116278
     77          1           0        1.038084   -1.658664   -2.173906
     78          1           0        0.524394   -2.894409   -1.216785
     79          1           0       -4.345731    6.345329    1.027141
     80          1           0       -4.302894    6.183809   -0.798998
     81          1           0       -3.095471    5.517367    0.200251
     82          1           0       -6.302180    7.392278    1.115967
     83          1           0       -7.658988    7.914754    0.267843
     84          1           0       -6.402208    7.129116   -0.704181
     85          1           0      -10.974129    1.726111   -0.304461
     86          1           0      -10.895867   -1.078490    0.470357
     87          1           0      -10.375501    2.061762    2.177765
     88          1           0      -10.922689    0.388106    2.273300
     89          1           0      -12.003241    1.676886    1.545232
     90          1           0      -11.944920    0.175609   -1.716208
     91          1           0      -11.418555   -1.524181   -1.764535
     92          1           0      -10.749934    0.305404   -3.744047
     93          1           0       -9.853593   -1.100731   -3.228508
     94          1           0       -9.386630    0.463672   -2.650112
     95          1           0       -7.513876   -5.652802    0.436691
     96          1           0       -6.859877   -5.828763   -1.180350
     97          1           0       -8.448201   -5.114376   -1.036754
     98          1           0       -2.214044   -3.769067   -1.199136
     99          1           0        0.938144   -4.210522    1.507393
    100          1           0        0.787056   -5.847505    1.128349
    101          1           0       -0.219971   -5.136981    2.434783
    102          1           0        3.663403   -0.477512    1.525466
    103          1           0        3.813880    0.907053    0.429621
    104          1           0        5.312507   -1.371730   -0.754187
    105          1           0        6.877068   -0.690452    2.885926
    106          1           0        5.677844    0.522017    2.622718
    107          1           0        7.278332    0.902876    2.010486
    108          1           0        7.688787   -1.883594   -0.402070
    109          1           0        8.318975   -1.517783    1.182089
    110          1           0        9.715418   -0.373923   -0.241670
    111          1           0        8.595570    1.009152    0.055770
    112          1           0        7.338945    0.355655   -1.830911
    113          1           0        8.539183   -0.962186   -2.103593
    114          1           0        9.629498    1.941651   -1.705110
    115          1           0        8.548223    3.246589   -2.972027
    116          1           0        7.317251    1.965453   -3.209416
    117          1           0        8.581162    2.139808   -4.356325
    118          1           0       10.336477    0.652928   -4.339820
    119          1           0       10.677123   -0.385298   -2.968489
    120          1           0       11.559849    2.181407   -2.297341
    121          1           0       11.766475    2.111184   -4.059978
    122          1           0       13.749329    1.048282   -3.859887
    123          1           0       12.959895   -0.297961   -3.249637
    124          1           0       13.501165    1.974169   -1.303759
    125          1           0       15.899480    1.527250   -1.119063
    126          1           0       15.594753    0.687347   -2.585913
    127          1           0       15.589474   -0.095990   -1.011322
    128          1           0       13.547787   -0.899827   -0.294694
    129          1           0       11.951622   -0.178000   -0.646046
    130          1           0       13.091379    1.767688    0.912000
    131          1           0       14.044339    0.343908    1.407043
    132          1           0       11.540748   -0.665177    1.738690
    133          1           0       10.978012    0.959801    1.948263
    134          1           0       13.298329   -0.008810    3.602069
    135          1           0       10.381801   -0.752031    3.899278
    136          1           0       11.293653   -0.243403    5.299115
    137          1           0       11.895195   -1.621240    4.331585
    138          1           0       11.301003    2.198825    4.036694
    139          1           0       12.977764    2.451968    3.420216
    140          1           0       12.685578    1.804009    4.998721
 ---------------------------------------------------------------------

 SCF Done:  E(RCAM-B3LYP) =  -3007.16869325     A.U. after   19 cycles

 Excitation energies and oscillator strengths:

 Excited State   1:      Singlet-A      1.7236 eV  719.34 nm  f=0.3642  <S**2>=0.000
     245 -> 248        0.19111
     246 -> 247        0.68268
     245 <- 248        0.11019
 This state for optimization and/or second-order correction.
 Total Energy, E(TD-HF/TD-DFT) =  -3007.10535247
 Copying the excited state density for this state as the 1-particle RhoCI density.

 Excited State   2:      Singlet-A      2.2444 eV  552.41 nm  f=0.1157  <S**2>=0.000
     245 -> 247        0.63919
     246 -> 248       -0.29272

 Excited State   3:      Singlet-A      3.4349 eV  360.96 nm  f=0.0689  <S**2>=0.000
     243 -> 247        0.10065
     244 -> 247        0.62406
     246 -> 248        0.28462

 Excited State   4:      Singlet-A      3.5867 eV  345.68 nm  f=0.7164  <S**2>=0.000
     243 -> 247        0.16565
     244 -> 247       -0.30027
     245 -> 247        0.26462
     246 -> 248        0.54048
     245 <- 247       -0.10031

 Excited State   5:      Singlet-A      3.6769 eV  337.20 nm  f=0.1600  <S**2>=0.000
     240 -> 247        0.34582
     240 -> 249        0.26219
     240 -> 250       -0.14700
     243 -> 247        0.44106
     243 -> 249        0.10131
     245 -> 247       -0.11869
     246 -> 248       -0.17679

 The electronic state is 1-A.
 Alpha  occ. eigenvalues --  -46.88553 -19.24789 -19.24561 -19.20140 -19.19671
 Alpha  occ. eigenvalues --  -19.19214 -19.19016 -14.41603 -14.41495 -14.39571
 Alpha  occ. eigenvalues --  -14.39401 -10.41121 -10.39622 -10.35280 -10.35163
 Alpha  occ. eigenvalues --  -10.33479 -10.31306 -10.30831 -10.30475 -10.30351
 Alpha  occ. eigenvalues --  -10.29912 -10.29902 -10.29789 -10.29702 -10.29359
 Alpha  occ. eigenvalues --  -10.29263 -10.29132 -10.28978 -10.28816 -10.28177
 Alpha  occ. eigenvalues --  -10.28149 -10.28020 -10.27775 -10.27769 -10.27721
 Alpha  occ. eigenvalues --  -10.27600 -10.27474 -10.27157 -10.26882 -10.26757
 Alpha  occ. eigenvalues --  -10.26662 -10.26582 -10.26396 -10.26390 -10.26308
 Alpha  occ. eigenvalues --  -10.26110 -10.25967 -10.25874 -10.25798 -10.25681
 Alpha  occ. eigenvalues --  -10.25662 -10.25540 -10.25447 -10.25422 -10.25341
 Alpha  occ. eigenvalues --  -10.25285 -10.25134 -10.25036 -10.24980 -10.24941
 Alpha  occ. eigenvalues --  -10.24845 -10.24835 -10.24825 -10.24606 -10.24459
 Alpha  occ. eigenvalues --  -10.24294  -3.17098  -1.91998  -1.91533  -1.91425
 Alpha  occ. eigenvalues --   -1.14289  -1.13996  -1.11262  -1.09933  -1.05872
 Alpha  occ. eigenvalues --   -1.05271  -1.04140  -1.03560  -1.02939  -1.02107
 Alpha  occ. eigenvalues --   -0.91538  -0.91142  -0.89040  -0.88668  -0.88653
 Alpha  occ. eigenvalues --   -0.88259  -0.87910  -0.87093  -0.86805  -0.86727
 Alpha  occ. eigenvalues --   -0.86254  -0.84802  -0.84276  -0.83374  -0.82977
 Alpha  occ. eigenvalues --   -0.82499  -0.82076  -0.80983  -0.80645  -0.79932
 Alpha  occ. eigenvalues --   -0.79694  -0.78369  -0.77638  -0.77032  -0.75842
 Alpha  occ. eigenvalues --   -0.75755  -0.75532  -0.74769  -0.74725  -0.74121
 Alpha  occ. eigenvalues --   -0.73785  -0.72487  -0.71265  -0.70867  -0.69286
 Alpha  occ. eigenvalues --   -0.68487  -0.68185  -0.67214  -0.66680  -0.65392
 Alpha  occ. eigenvalues --   -0.64950  -0.64681  -0.64417  -0.64227  -0.64189
 Alpha  occ. eigenvalues --   -0.63401  -0.62767  -0.62555  -0.61332  -0.60424
 Alpha  occ. eigenvalues --   -0.59758  -0.59403  -0.58802  -0.58238  -0.57486
 Alpha  occ. eigenvalues --   -0.56886  -0.56361  -0.55661  -0.55336  -0.55040
 Alpha  occ. eigenvalues --   -0.54841  -0.54564  -0.54248  -0.53702  -0.53543
 Alpha  occ. eigenvalues --   -0.53512  -0.53244  -0.53117  -0.53052  -0.52820
 Alpha  occ. eigenvalues --   -0.52466  -0.52244  -0.51951  -0.51652  -0.51448
 Alpha  occ. eigenvalues --   -0.51372  -0.51116  -0.50955  -0.50631  -0.50553
 Alpha  occ. eigenvalues --   -0.50335  -0.50207  -0.50123  -0.49754  -0.49471
 Alpha  occ. eigenvalues --   -0.49411  -0.49246  -0.49071  -0.48870  -0.48730
 Alpha  occ. eigenvalues --   -0.48661  -0.48606  -0.48368  -0.48266  -0.47504
 Alpha  occ. eigenvalues --   -0.47428  -0.47357  -0.47328  -0.46955  -0.46642
 Alpha  occ. eigenvalues --   -0.46227  -0.46064  -0.45936  -0.45812  -0.45497
 Alpha  occ. eigenvalues --   -0.45298  -0.45047  -0.44889  -0.44786  -0.44637
 Alpha  occ. eigenvalues --   -0.44369  -0.44272  -0.43848  -0.43731  -0.43612
 Alpha  occ. eigenvalues --   -0.43374  -0.43326  -0.43132  -0.42892  -0.42831
 Alpha  occ. eigenvalues --   -0.42726  -0.42670  -0.42467  -0.41987  -0.41752
 Alpha  occ. eigenvalues --   -0.41632  -0.41581  -0.41426  -0.41247  -0.41123
 Alpha  occ. eigenvalues --   -0.40868  -0.40651  -0.40334  -0.40275  -0.40152
 Alpha  occ. eigenvalues --   -0.39887  -0.39532  -0.39431  -0.39403  -0.38969
 Alpha  occ. eigenvalues --   -0.38880  -0.38343  -0.37926  -0.37743  -0.37620
 Alpha  occ. eigenvalues --   -0.37391  -0.36710  -0.36586  -0.36131  -0.35976
 Alpha  occ. eigenvalues --   -0.35648  -0.35173  -0.34910  -0.34419  -0.34019
 Alpha  occ. eigenvalues --   -0.33988  -0.33706  -0.32994  -0.31329  -0.31058
 Alpha  occ. eigenvalues --   -0.30843  -0.30798  -0.30184  -0.29791  -0.23696
 Alpha  occ. eigenvalues --   -0.20994
 Alpha virt. eigenvalues --   -0.08391  -0.01588   0.00396   0.02351   0.02638
 Alpha virt. eigenvalues --    0.02940   0.04506   0.05255   0.06251   0.06881
 Alpha virt. eigenvalues --    0.07489   0.08040   0.08810   0.09017   0.09106

 Mulliken charges:
               1
     1  Mg   0.823780
     2  C    0.014421
     3  C   -0.061214
     4  C   -0.081877
     5  C   -0.074920
     6  N   -0.265247
     7  C   -0.067749
     8  C    0.028905
     9  C   -0.084373
    10  C    0.044090
    11  C    0.057532
    12  C    0.063892
    13  C    0.016791
    14  C    0.230957
    15  O   -0.270279
    16  O   -0.369397
    17  N   -0.387174
    18  C    0.136005
    19  C   -0.152608
    20  C   -0.054080
    21  C    0.120331
    22  C    0.102844
    23  C    0.002762
    24  O   -0.182656
    25  C    0.065633
    26  N   -0.255425
    27  C    0.054744
    28  C   -0.068766
    29  C    0.032012
    30  C    0.019539
    31  C    0.074085
    32  C    0.029422
    33  C   -0.008992
    34  N   -0.367304
    35  C    0.124206
    36  C   -0.167889
    37  C   -0.025996
    38  C    0.115665
    39  C    0.117761
    40  C    0.089689
    41  O   -0.157782
    42  C   -0.038707
    43  C    0.222848
    44  O   -0.236780
    45  O   -0.354345
    46  C    0.173521
    47  C    0.262637
    48  C   -0.098702
    49  C   -0.161061
    50  C    0.038884
    51  C    0.108951
    52  C   -0.018107
    53  C    0.023477
    54  C   -0.115873
    55  C    0.031886
    56  C    0.059840
    57  C   -0.017962
    58  C    0.066755
    59  C   -0.118353
    60  C    0.044620
    61  C    0.031909
    62  C    0.039303
    63  C    0.016045
    64  C   -0.159753
    65  C    0.052679
    66  C    0.030620
    67  H   -0.033641
    68  H   -0.005615
    69  H   -0.032321
    70  H    0.048753
    71  H    0.008251
    72  H   -0.007145
    73  H    0.048665
    74  H    0.013588
    75  H    0.012159
    76  H    0.020554
    77  H    0.013908
    78  H    0.049584
    79  H    0.028051
    80  H    0.035635
    81  H    0.014819
    82  H    0.029669
    83  H    0.018126
    84  H    0.043614
    85  H    0.011212
    86  H    0.002475
    87  H    0.018907
    88  H    0.012887
    89  H    0.021531
    90  H    0.009000
    91  H    0.003675
    92  H    0.019329
    93  H    0.006932
    94  H    0.018740
    95  H    0.038971
    96  H    0.031846
    97  H    0.023981
    98  H    0.030271
    99  H    0.022279
   100  H    0.022907
   101  H    0.052414
   102  H    0.059312
   103  H    0.039006
   104  H    0.003209
   105  H    0.027991
   106  H    0.008197
   107  H    0.032046
   108  H   -0.008098
   109  H   -0.009552
   110  H    0.013176
   111  H    0.009111
   112  H   -0.003194
   113  H   -0.002885
   114  H    0.004232
   115  H    0.010111
   116  H    0.008832
   117  H   -0.000945
   118  H   -0.001313
   119  H   -0.002514
   120  H   -0.002509
   121  H   -0.003041
   122  H   -0.005888
   123  H   -0.006819
   124  H    0.002345
   125  H    0.005466
   126  H   -0.000439
   127  H   -0.004727
   128  H    0.002224
   129  H   -0.006124
   130  H    0.002544
   131  H    0.003347
   132  H   -0.005939
   133  H    0.003093
   134  H   -0.010331
   135  H    0.006374
   136  H   -0.000904
   137  H    0.018745
   138  H    0.001392
   139  H    0.014248
   140  H    0.000541
 Sum of Mulliken charges =  -0.00000

 Dipole moment (field-independent basis, Debye):
    X=              3.5475    Y=              4.5614    Z=             -3.5273  Tot=              6.7700
 Quadrupole moment (field-independent basis, Debye-Ang):
   XX=           -368.3023   YY=           -416.9243   ZZ=           -408.3270
   XY=              0.8460   XZ=             17.7684   YZ=              3.6193

 Normal termination of Gaussian 16 at Thu Apr 28 13:57:58 2022.
