 Gaussian 16, Revision A.03,
 Gaussian 16:  ES64L-G16RevA.03 25-Dec-2016

 ---------------------------------
 #p PBE1PBE/Def2SVP td=(nstates=5)
 ---------------------------------

 ------------------------------------------------------
 step_1601_chromophore_19 TDDFT with PBE1PBE functional
 ------------------------------------------------------
 Symbolic Z-matrix:
 Charge =  0 Multiplicity = 1

                         Standard orientation:
 ---------------------------------------------------------------------
 Center     Atomic      Atomic             Coordinates (Angstroms)
 Number     Number       Type             X           Y           Z
 ---------------------------------------------------------------------
      1         12           0       -5.920219    0.278345   -0.075890
      2          6           0       -3.520384   -2.215533   -0.221869
      3          6           0       -3.515152    2.604535    0.308983
      4          6           0       -8.368909    2.646585    0.367459
      5          6           0       -8.449798   -2.142105   -0.258789
      6          7           0       -3.684431    0.123409    0.253571
      7          6           0       -2.944479   -0.970026   -0.079322
      8          6           0       -1.462076   -0.586649   -0.120654
      9          6           0       -1.458110    0.962932    0.152877
     10          6           0       -3.008857    1.281130    0.260137
     11          6           0       -0.618877    1.530402    1.380784
     12          6           0       -0.707766   -1.077633   -1.445292
     13          6           0        0.642977   -1.812004   -1.170050
     14          6           0        1.701128   -1.382802   -0.056489
     15          8           0        1.529842   -1.451878    1.187537
     16          8           0        2.811137   -0.646061   -0.475383
     17          7           0       -5.920379    2.303271    0.293317
     18          6           0       -4.823117    3.106992    0.254187
     19          6           0       -5.171240    4.504652    0.293768
     20          6           0       -6.664563    4.539723    0.373413
     21          6           0       -7.035613    3.132767    0.337489
     22          6           0       -4.169679    5.698587    0.167269
     23          6           0       -7.535216    5.790467    0.445629
     24          8           0       -8.737495    5.693134    0.471531
     25          6           0       -6.915132    7.117591    0.257184
     26          7           0       -8.143077    0.283700    0.055844
     27          6           0       -8.879775    1.354359    0.287205
     28          6           0      -10.348553    1.064403    0.295311
     29          6           0      -10.398345   -0.401148   -0.223944
     30          6           0       -8.953057   -0.829117   -0.220106
     31          6           0      -10.989147    1.305515    1.688518
     32          6           0      -11.089446   -0.494298   -1.630792
     33          6           0      -10.257977   -0.148319   -2.884127
     34          7           0       -6.000004   -1.729063   -0.178964
     35          6           0       -7.116119   -2.577171   -0.236645
     36          6           0       -6.639742   -3.976372   -0.360995
     37          6           0       -5.247524   -3.885028   -0.390430
     38          6           0       -4.917141   -2.490384   -0.181454
     39          6           0       -7.476197   -5.189292   -0.548954
     40          6           0       -4.049776   -4.696580   -0.417910
     41          8           0       -3.939823   -5.909894   -0.451123
     42          6           0       -2.860584   -3.623858   -0.333824
     43          6           0       -1.912574   -3.943231    0.853981
     44          8           0       -2.111901   -3.729953    2.070941
     45          8           0       -0.760721   -4.629879    0.390094
     46          6           0        0.182384   -4.992766    1.432409
     47          6           0        3.898936   -0.176771    0.503820
     48          6           0        5.327150   -0.717988    0.117700
     49          6           0        6.460631   -0.700105    0.827940
     50          6           0        6.575980    0.087526    2.184436
     51          6           0        7.793661   -1.083342    0.331473
     52          6           0        8.685543   -0.020251   -0.290554
     53          6           0        8.391786    0.074167   -1.800733
     54          6           0        9.301271    1.233625   -2.465393
     55          6           0        8.374400    2.218345   -3.288346
     56          6           0       10.454787    0.642591   -3.256323
     57          6           0       11.776111    1.525049   -3.140461
     58          6           0       13.110857    0.758208   -3.025441
     59          6           0       13.717680    0.940576   -1.574727
     60          6           0       15.240360    0.779079   -1.559525
     61          6           0       12.988815    0.031008   -0.384683
     62          6           0       13.084394    0.682753    1.017203
     63          6           0       11.881705    0.350691    1.938745
     64          6           0       12.270580    0.332469    3.475901
     65          6           0       11.393120   -0.654289    4.294392
     66          6           0       12.310431    1.793062    3.976114
     67          1           0       -2.792599    3.396272    0.098655
     68          1           0       -9.119593    3.439401    0.384076
     69          1           0       -9.174864   -2.948105   -0.388614
     70          1           0       -1.082693   -1.089325    0.768398
     71          1           0       -1.075031    1.552826   -0.678845
     72          1           0       -0.106151    2.452568    1.110374
     73          1           0        0.110242    0.818262    1.766814
     74          1           0       -1.308964    1.965587    2.103568
     75          1           0       -0.559062   -0.185740   -2.053189
     76          1           0       -1.216782   -1.769001   -2.116278
     77          1           0        1.038084   -1.658664   -2.173906
     78          1           0        0.524394   -2.894409   -1.216785
     79          1           0       -4.345731    6.345329    1.027141
     80          1           0       -4.302894    6.183809   -0.798998
     81          1           0       -3.095471    5.517367    0.200251
     82          1           0       -6.302180    7.392278    1.115967
     83          1           0       -7.658988    7.914754    0.267843
     84          1           0       -6.402208    7.129116   -0.704181
     85          1           0      -10.974129    1.726111   -0.304461
     86          1           0      -10.895867   -1.078490    0.470357
     87          1           0      -10.375501    2.061762    2.177765
     88          1           0      -10.922689    0.388106    2.273300
     89          1           0      -12.003241    1.676886    1.545232
     90          1           0      -11.944920    0.175609   -1.716208
     91          1           0      -11.418555   -1.524181   -1.764535
     92          1           0      -10.749934    0.305404   -3.744047
     93          1           0       -9.853593   -1.100731   -3.228508
     94          1           0       -9.386630    0.463672   -2.650112
     95          1           0       -7.513876   -5.652802    0.436691
     96          1           0       -6.859877   -5.828763   -1.180350
     97          1           0       -8.448201   -5.114376   -1.036754
     98          1           0       -2.214044   -3.769067   -1.199136
     99          1           0        0.938144   -4.210522    1.507393
    100          1           0        0.787056   -5.847505    1.128349
    101          1           0       -0.219971   -5.136981    2.434783
    102          1           0        3.663403   -0.477512    1.525466
    103          1           0        3.813880    0.907053    0.429621
    104          1           0        5.312507   -1.371730   -0.754187
    105          1           0        6.877068   -0.690452    2.885926
    106          1           0        5.677844    0.522017    2.622718
    107          1           0        7.278332    0.902876    2.010486
    108          1           0        7.688787   -1.883594   -0.402070
    109          1           0        8.318975   -1.517783    1.182089
    110          1           0        9.715418   -0.373923   -0.241670
    111          1           0        8.595570    1.009152    0.055770
    112          1           0        7.338945    0.355655   -1.830911
    113          1           0        8.539183   -0.962186   -2.103593
    114          1           0        9.629498    1.941651   -1.705110
    115          1           0        8.548223    3.246589   -2.972027
    116          1           0        7.317251    1.965453   -3.209416
    117          1           0        8.581162    2.139808   -4.356325
    118          1           0       10.336477    0.652928   -4.339820
    119          1           0       10.677123   -0.385298   -2.968489
    120          1           0       11.559849    2.181407   -2.297341
    121          1           0       11.766475    2.111184   -4.059978
    122          1           0       13.749329    1.048282   -3.859887
    123          1           0       12.959895   -0.297961   -3.249637
    124          1           0       13.501165    1.974169   -1.303759
    125          1           0       15.899480    1.527250   -1.119063
    126          1           0       15.594753    0.687347   -2.585913
    127          1           0       15.589474   -0.095990   -1.011322
    128          1           0       13.547787   -0.899827   -0.294694
    129          1           0       11.951622   -0.178000   -0.646046
    130          1           0       13.091379    1.767688    0.912000
    131          1           0       14.044339    0.343908    1.407043
    132          1           0       11.540748   -0.665177    1.738690
    133          1           0       10.978012    0.959801    1.948263
    134          1           0       13.298329   -0.008810    3.602069
    135          1           0       10.381801   -0.752031    3.899278
    136          1           0       11.293653   -0.243403    5.299115
    137          1           0       11.895195   -1.621240    4.331585
    138          1           0       11.301003    2.198825    4.036694
    139          1           0       12.977764    2.451968    3.420216
    140          1           0       12.685578    1.804009    4.998721
 ---------------------------------------------------------------------

 SCF Done:  E(RPBE1PBE) =  -3005.35550989     A.U. after   15 cycles

 Excitation energies and oscillator strengths:

 Excited State   1:      Singlet-A      1.8747 eV  661.34 nm  f=0.3521  <S**2>=0.000
     245 -> 248        0.18272
     246 -> 247        0.68952
     246 <- 247       -0.10040
 This state for optimization and/or second-order correction.
 Total Energy, E(TD-HF/TD-DFT) =  -3005.28661439
 Copying the excited state density for this state as the 1-particle RhoCI density.

 Excited State   2:      Singlet-A      2.2479 eV  551.56 nm  f=0.1135  <S**2>=0.000
     245 -> 247        0.65041
     246 -> 248       -0.26808

 Excited State   3:      Singlet-A      3.1443 eV  394.31 nm  f=0.0010  <S**2>=0.000
     242 -> 247       -0.11823
     243 -> 247       -0.14445
     244 -> 247        0.66292
     246 -> 248        0.10592

 Excited State   4:      Singlet-A      3.1894 eV  388.74 nm  f=0.0001  <S**2>=0.000
     240 -> 247        0.24382
     242 -> 247       -0.37171
     243 -> 247        0.49728

 Excited State   5:      Singlet-A      3.1952 eV  388.03 nm  f=0.0011  <S**2>=0.000
     240 -> 247        0.13345
     242 -> 247        0.54887
     243 -> 247        0.31337
     244 -> 247        0.17976

 The electronic state is 1-A.
 Alpha  occ. eigenvalues --  -46.91946 -19.25526 -19.25244 -19.20448 -19.19910
 Alpha  occ. eigenvalues --  -19.19527 -19.19093 -14.41061 -14.41045 -14.39256
 Alpha  occ. eigenvalues --  -14.39010 -10.38214 -10.36682 -10.32484 -10.32160
 Alpha  occ. eigenvalues --  -10.30931 -10.28927 -10.28580 -10.28373 -10.27948
 Alpha  occ. eigenvalues --  -10.27631 -10.27521 -10.27303 -10.27164 -10.26972
 Alpha  occ. eigenvalues --  -10.26946 -10.26900 -10.26504 -10.26455 -10.25945
 Alpha  occ. eigenvalues --  -10.25939 -10.25847 -10.25671 -10.25374 -10.25346
 Alpha  occ. eigenvalues --  -10.25253 -10.25092 -10.24747 -10.24690 -10.24404
 Alpha  occ. eigenvalues --  -10.24319 -10.24272 -10.24148 -10.24072 -10.23716
 Alpha  occ. eigenvalues --  -10.23532 -10.23475 -10.23365 -10.23303 -10.23240
 Alpha  occ. eigenvalues --  -10.23229 -10.23111 -10.22939 -10.22886 -10.22860
 Alpha  occ. eigenvalues --  -10.22858 -10.22824 -10.22696 -10.22660 -10.22412
 Alpha  occ. eigenvalues --  -10.22402 -10.22395 -10.22232 -10.22021 -10.21836
 Alpha  occ. eigenvalues --  -10.21677  -3.14071  -1.86912  -1.86424  -1.86322
 Alpha  occ. eigenvalues --   -1.09097  -1.08759  -1.05888  -1.04762  -1.00688
 Alpha  occ. eigenvalues --   -1.00150  -0.98780  -0.98169  -0.97636  -0.96725
 Alpha  occ. eigenvalues --   -0.85919  -0.85274  -0.83113  -0.82969  -0.82851
 Alpha  occ. eigenvalues --   -0.82353  -0.82247  -0.81457  -0.81059  -0.80904
 Alpha  occ. eigenvalues --   -0.80372  -0.78992  -0.78473  -0.77651  -0.77277
 Alpha  occ. eigenvalues --   -0.76662  -0.76186  -0.75243  -0.74885  -0.74285
 Alpha  occ. eigenvalues --   -0.73860  -0.72666  -0.71887  -0.71333  -0.70039
 Alpha  occ. eigenvalues --   -0.69838  -0.69834  -0.69100  -0.68906  -0.68274
 Alpha  occ. eigenvalues --   -0.68082  -0.66963  -0.65712  -0.65169  -0.63624
 Alpha  occ. eigenvalues --   -0.62955  -0.62427  -0.61636  -0.60889  -0.59840
 Alpha  occ. eigenvalues --   -0.59197  -0.59149  -0.58958  -0.58812  -0.58343
 Alpha  occ. eigenvalues --   -0.57582  -0.57129  -0.56941  -0.55939  -0.54919
 Alpha  occ. eigenvalues --   -0.54143  -0.54005  -0.53362  -0.52878  -0.52101
 Alpha  occ. eigenvalues --   -0.51329  -0.50876  -0.50231  -0.49826  -0.49551
 Alpha  occ. eigenvalues --   -0.49363  -0.49058  -0.48672  -0.48259  -0.47956
 Alpha  occ. eigenvalues --   -0.47753  -0.47699  -0.47590  -0.47548  -0.47475
 Alpha  occ. eigenvalues --   -0.46863  -0.46827  -0.46500  -0.46265  -0.45994
 Alpha  occ. eigenvalues --   -0.45945  -0.45686  -0.45512  -0.45261  -0.45046
 Alpha  occ. eigenvalues --   -0.44862  -0.44749  -0.44615  -0.44306  -0.44069
 Alpha  occ. eigenvalues --   -0.44042  -0.43848  -0.43734  -0.43432  -0.43357
 Alpha  occ. eigenvalues --   -0.43241  -0.43211  -0.42961  -0.42849  -0.42123
 Alpha  occ. eigenvalues --   -0.42017  -0.41998  -0.41956  -0.41603  -0.41343
 Alpha  occ. eigenvalues --   -0.40990  -0.40818  -0.40578  -0.40501  -0.40274
 Alpha  occ. eigenvalues --   -0.39972  -0.39696  -0.39646  -0.39523  -0.39383
 Alpha  occ. eigenvalues --   -0.39132  -0.39017  -0.38649  -0.38513  -0.38441
 Alpha  occ. eigenvalues --   -0.38153  -0.38035  -0.37858  -0.37765  -0.37621
 Alpha  occ. eigenvalues --   -0.37438  -0.37337  -0.37144  -0.36755  -0.36639
 Alpha  occ. eigenvalues --   -0.36509  -0.36368  -0.36300  -0.36060  -0.35915
 Alpha  occ. eigenvalues --   -0.35649  -0.35571  -0.35263  -0.35036  -0.34990
 Alpha  occ. eigenvalues --   -0.34673  -0.34410  -0.34252  -0.34176  -0.33876
 Alpha  occ. eigenvalues --   -0.33823  -0.33286  -0.32758  -0.32697  -0.32395
 Alpha  occ. eigenvalues --   -0.32223  -0.31687  -0.31539  -0.31140  -0.30983
 Alpha  occ. eigenvalues --   -0.30592  -0.30113  -0.29908  -0.29454  -0.29206
 Alpha  occ. eigenvalues --   -0.28981  -0.28663  -0.28297  -0.26539  -0.26166
 Alpha  occ. eigenvalues --   -0.26110  -0.25966  -0.25704  -0.25335  -0.20661
 Alpha  occ. eigenvalues --   -0.18622
 Alpha virt. eigenvalues --   -0.10872  -0.05064  -0.03832  -0.02040  -0.01802
 Alpha virt. eigenvalues --   -0.00247   0.00133   0.00818   0.01798   0.03348
 Alpha virt. eigenvalues --    0.04330   0.04380   0.04863   0.05561   0.05591

 Mulliken charges:
               1
     1  Mg   0.972051
     2  C    0.000417
     3  C   -0.047912
     4  C   -0.063932
     5  C   -0.067935
     6  N   -0.367430
     7  C   -0.002907
     8  C   -0.042051
     9  C   -0.150039
    10  C    0.076166
    11  C   -0.001878
    12  C    0.012541
    13  C   -0.054454
    14  C    0.289657
    15  O   -0.300721
    16  O   -0.399063
    17  N   -0.502503
    18  C    0.153083
    19  C   -0.174133
    20  C   -0.098298
    21  C    0.142174
    22  C    0.040695
    23  C    0.053698
    24  O   -0.221729
    25  C   -0.010015
    26  N   -0.360580
    27  C    0.085238
    28  C   -0.138999
    29  C   -0.050702
    30  C    0.064051
    31  C    0.018034
    32  C   -0.030425
    33  C   -0.083173
    34  N   -0.498583
    35  C    0.145413
    36  C   -0.190243
    37  C   -0.070420
    38  C    0.173002
    39  C    0.061793
    40  C    0.180753
    41  O   -0.204144
    42  C   -0.132493
    43  C    0.306830
    44  O   -0.270144
    45  O   -0.385324
    46  C    0.117582
    47  C    0.225810
    48  C   -0.113211
    49  C   -0.199654
    50  C   -0.022786
    51  C    0.040515
    52  C   -0.095109
    53  C   -0.028673
    54  C   -0.204597
    55  C   -0.022249
    56  C    0.010519
    57  C   -0.080545
    58  C    0.013555
    59  C   -0.205703
    60  C   -0.010210
    61  C   -0.034531
    62  C   -0.020110
    63  C   -0.046553
    64  C   -0.247848
    65  C   -0.010428
    66  C   -0.030246
    67  H   -0.000428
    68  H    0.025689
    69  H    0.000360
    70  H    0.089321
    71  H    0.044856
    72  H    0.020161
    73  H    0.076185
    74  H    0.041735
    75  H    0.043856
    76  H    0.051586
    77  H    0.046533
    78  H    0.081178
    79  H    0.055756
    80  H    0.062571
    81  H    0.040061
    82  H    0.056310
    83  H    0.046025
    84  H    0.069974
    85  H    0.047065
    86  H    0.039487
    87  H    0.048315
    88  H    0.040576
    89  H    0.048592
    90  H    0.041994
    91  H    0.036701
    92  H    0.047242
    93  H    0.035702
    94  H    0.050089
    95  H    0.068061
    96  H    0.060107
    97  H    0.049352
    98  H    0.067900
    99  H    0.047372
   100  H    0.045719
   101  H    0.073663
   102  H    0.083288
   103  H    0.065138
   104  H    0.032637
   105  H    0.055914
   106  H    0.035066
   107  H    0.059218
   108  H    0.024521
   109  H    0.024177
   110  H    0.056769
   111  H    0.040774
   112  H    0.032334
   113  H    0.027779
   114  H    0.039826
   115  H    0.036736
   116  H    0.035228
   117  H    0.026299
   118  H    0.031311
   119  H    0.027977
   120  H    0.029306
   121  H    0.030265
   122  H    0.025559
   123  H    0.025725
   124  H    0.041039
   125  H    0.032232
   126  H    0.026768
   127  H    0.022109
   128  H    0.035201
   129  H    0.037216
   130  H    0.034722
   131  H    0.034426
   132  H    0.028764
   133  H    0.036070
   134  H    0.027900
   135  H    0.033487
   136  H    0.027183
   137  H    0.046328
   138  H    0.029211
   139  H    0.041952
   140  H    0.028986
 Sum of Mulliken charges =  -0.00000

 Dipole moment (field-independent basis, Debye):
    X=              3.5458    Y=              4.3214    Z=             -3.5872  Tot=              6.6419
 Quadrupole moment (field-independent basis, Debye-Ang):
   XX=           -361.9069   YY=           -414.4729   ZZ=           -405.6366
   XY=              2.9850   XZ=             18.2441   YZ=              3.6784

 Normal termination of Gaussian 16 at Thu Apr 28 14:15:42 2022.
