 Gaussian 16, Revision A.03,
 Gaussian 16:  ES64L-G16RevA.03 25-Dec-2016

 --------------------------------
 #p wB97XD/Def2SVP td=(nstates=5)
 --------------------------------

 -----------------------------------------------------
 step_1601_chromophore_19 TDDFT with wB97XD functional
 -----------------------------------------------------
 Symbolic Z-matrix:
 Charge =  0 Multiplicity = 1

                         Standard orientation:
 ---------------------------------------------------------------------
 Center     Atomic      Atomic             Coordinates (Angstroms)
 Number     Number       Type             X           Y           Z
 ---------------------------------------------------------------------
      1         12           0       -5.920219    0.278345   -0.075890
      2          6           0       -3.520384   -2.215533   -0.221869
      3          6           0       -3.515152    2.604535    0.308983
      4          6           0       -8.368909    2.646585    0.367459
      5          6           0       -8.449798   -2.142105   -0.258789
      6          7           0       -3.684431    0.123409    0.253571
      7          6           0       -2.944479   -0.970026   -0.079322
      8          6           0       -1.462076   -0.586649   -0.120654
      9          6           0       -1.458110    0.962932    0.152877
     10          6           0       -3.008857    1.281130    0.260137
     11          6           0       -0.618877    1.530402    1.380784
     12          6           0       -0.707766   -1.077633   -1.445292
     13          6           0        0.642977   -1.812004   -1.170050
     14          6           0        1.701128   -1.382802   -0.056489
     15          8           0        1.529842   -1.451878    1.187537
     16          8           0        2.811137   -0.646061   -0.475383
     17          7           0       -5.920379    2.303271    0.293317
     18          6           0       -4.823117    3.106992    0.254187
     19          6           0       -5.171240    4.504652    0.293768
     20          6           0       -6.664563    4.539723    0.373413
     21          6           0       -7.035613    3.132767    0.337489
     22          6           0       -4.169679    5.698587    0.167269
     23          6           0       -7.535216    5.790467    0.445629
     24          8           0       -8.737495    5.693134    0.471531
     25          6           0       -6.915132    7.117591    0.257184
     26          7           0       -8.143077    0.283700    0.055844
     27          6           0       -8.879775    1.354359    0.287205
     28          6           0      -10.348553    1.064403    0.295311
     29          6           0      -10.398345   -0.401148   -0.223944
     30          6           0       -8.953057   -0.829117   -0.220106
     31          6           0      -10.989147    1.305515    1.688518
     32          6           0      -11.089446   -0.494298   -1.630792
     33          6           0      -10.257977   -0.148319   -2.884127
     34          7           0       -6.000004   -1.729063   -0.178964
     35          6           0       -7.116119   -2.577171   -0.236645
     36          6           0       -6.639742   -3.976372   -0.360995
     37          6           0       -5.247524   -3.885028   -0.390430
     38          6           0       -4.917141   -2.490384   -0.181454
     39          6           0       -7.476197   -5.189292   -0.548954
     40          6           0       -4.049776   -4.696580   -0.417910
     41          8           0       -3.939823   -5.909894   -0.451123
     42          6           0       -2.860584   -3.623858   -0.333824
     43          6           0       -1.912574   -3.943231    0.853981
     44          8           0       -2.111901   -3.729953    2.070941
     45          8           0       -0.760721   -4.629879    0.390094
     46          6           0        0.182384   -4.992766    1.432409
     47          6           0        3.898936   -0.176771    0.503820
     48          6           0        5.327150   -0.717988    0.117700
     49          6           0        6.460631   -0.700105    0.827940
     50          6           0        6.575980    0.087526    2.184436
     51          6           0        7.793661   -1.083342    0.331473
     52          6           0        8.685543   -0.020251   -0.290554
     53          6           0        8.391786    0.074167   -1.800733
     54          6           0        9.301271    1.233625   -2.465393
     55          6           0        8.374400    2.218345   -3.288346
     56          6           0       10.454787    0.642591   -3.256323
     57          6           0       11.776111    1.525049   -3.140461
     58          6           0       13.110857    0.758208   -3.025441
     59          6           0       13.717680    0.940576   -1.574727
     60          6           0       15.240360    0.779079   -1.559525
     61          6           0       12.988815    0.031008   -0.384683
     62          6           0       13.084394    0.682753    1.017203
     63          6           0       11.881705    0.350691    1.938745
     64          6           0       12.270580    0.332469    3.475901
     65          6           0       11.393120   -0.654289    4.294392
     66          6           0       12.310431    1.793062    3.976114
     67          1           0       -2.792599    3.396272    0.098655
     68          1           0       -9.119593    3.439401    0.384076
     69          1           0       -9.174864   -2.948105   -0.388614
     70          1           0       -1.082693   -1.089325    0.768398
     71          1           0       -1.075031    1.552826   -0.678845
     72          1           0       -0.106151    2.452568    1.110374
     73          1           0        0.110242    0.818262    1.766814
     74          1           0       -1.308964    1.965587    2.103568
     75          1           0       -0.559062   -0.185740   -2.053189
     76          1           0       -1.216782   -1.769001   -2.116278
     77          1           0        1.038084   -1.658664   -2.173906
     78          1           0        0.524394   -2.894409   -1.216785
     79          1           0       -4.345731    6.345329    1.027141
     80          1           0       -4.302894    6.183809   -0.798998
     81          1           0       -3.095471    5.517367    0.200251
     82          1           0       -6.302180    7.392278    1.115967
     83          1           0       -7.658988    7.914754    0.267843
     84          1           0       -6.402208    7.129116   -0.704181
     85          1           0      -10.974129    1.726111   -0.304461
     86          1           0      -10.895867   -1.078490    0.470357
     87          1           0      -10.375501    2.061762    2.177765
     88          1           0      -10.922689    0.388106    2.273300
     89          1           0      -12.003241    1.676886    1.545232
     90          1           0      -11.944920    0.175609   -1.716208
     91          1           0      -11.418555   -1.524181   -1.764535
     92          1           0      -10.749934    0.305404   -3.744047
     93          1           0       -9.853593   -1.100731   -3.228508
     94          1           0       -9.386630    0.463672   -2.650112
     95          1           0       -7.513876   -5.652802    0.436691
     96          1           0       -6.859877   -5.828763   -1.180350
     97          1           0       -8.448201   -5.114376   -1.036754
     98          1           0       -2.214044   -3.769067   -1.199136
     99          1           0        0.938144   -4.210522    1.507393
    100          1           0        0.787056   -5.847505    1.128349
    101          1           0       -0.219971   -5.136981    2.434783
    102          1           0        3.663403   -0.477512    1.525466
    103          1           0        3.813880    0.907053    0.429621
    104          1           0        5.312507   -1.371730   -0.754187
    105          1           0        6.877068   -0.690452    2.885926
    106          1           0        5.677844    0.522017    2.622718
    107          1           0        7.278332    0.902876    2.010486
    108          1           0        7.688787   -1.883594   -0.402070
    109          1           0        8.318975   -1.517783    1.182089
    110          1           0        9.715418   -0.373923   -0.241670
    111          1           0        8.595570    1.009152    0.055770
    112          1           0        7.338945    0.355655   -1.830911
    113          1           0        8.539183   -0.962186   -2.103593
    114          1           0        9.629498    1.941651   -1.705110
    115          1           0        8.548223    3.246589   -2.972027
    116          1           0        7.317251    1.965453   -3.209416
    117          1           0        8.581162    2.139808   -4.356325
    118          1           0       10.336477    0.652928   -4.339820
    119          1           0       10.677123   -0.385298   -2.968489
    120          1           0       11.559849    2.181407   -2.297341
    121          1           0       11.766475    2.111184   -4.059978
    122          1           0       13.749329    1.048282   -3.859887
    123          1           0       12.959895   -0.297961   -3.249637
    124          1           0       13.501165    1.974169   -1.303759
    125          1           0       15.899480    1.527250   -1.119063
    126          1           0       15.594753    0.687347   -2.585913
    127          1           0       15.589474   -0.095990   -1.011322
    128          1           0       13.547787   -0.899827   -0.294694
    129          1           0       11.951622   -0.178000   -0.646046
    130          1           0       13.091379    1.767688    0.912000
    131          1           0       14.044339    0.343908    1.407043
    132          1           0       11.540748   -0.665177    1.738690
    133          1           0       10.978012    0.959801    1.948263
    134          1           0       13.298329   -0.008810    3.602069
    135          1           0       10.381801   -0.752031    3.899278
    136          1           0       11.293653   -0.243403    5.299115
    137          1           0       11.895195   -1.621240    4.331585
    138          1           0       11.301003    2.198825    4.036694
    139          1           0       12.977764    2.451968    3.420216
    140          1           0       12.685578    1.804009    4.998721
 ---------------------------------------------------------------------

 SCF Done:  E(RwB97XD) =  -3007.86886240     A.U. after   19 cycles

 Excitation energies and oscillator strengths:

 Excited State   1:      Singlet-A      1.6674 eV  743.59 nm  f=0.3621  <S**2>=0.000
     245 -> 248        0.19685
     246 -> 247        0.68052
     245 <- 248        0.11973
 This state for optimization and/or second-order correction.
 Total Energy, E(TD-HF/TD-DFT) =  -3007.80758720
 Copying the excited state density for this state as the 1-particle RhoCI density.

 Excited State   2:      Singlet-A      2.1905 eV  566.02 nm  f=0.1124  <S**2>=0.000
     245 -> 247        0.63712
     246 -> 248       -0.29480

 Excited State   3:      Singlet-A      3.4434 eV  360.06 nm  f=0.0869  <S**2>=0.000
     243 -> 247        0.16479
     244 -> 247        0.59539
     246 -> 248        0.30576

 Excited State   4:      Singlet-A      3.6070 eV  343.73 nm  f=0.7278  <S**2>=0.000
     243 -> 247        0.13424
     244 -> 247       -0.33590
     245 -> 247        0.26602
     246 -> 248        0.53065
     245 <- 247       -0.10307

 Excited State   5:      Singlet-A      3.7145 eV  333.79 nm  f=0.0100  <S**2>=0.000
     239 -> 247        0.54047
     239 -> 248        0.14955
     239 -> 249       -0.27438
     239 -> 250       -0.26860

 The electronic state is 1-A.
 Alpha  occ. eigenvalues --  -46.94896 -19.30030 -19.29778 -19.25067 -19.24598
 Alpha  occ. eigenvalues --  -19.24243 -19.24062 -14.46218 -14.46052 -14.44151
 Alpha  occ. eigenvalues --  -14.44037 -10.44962 -10.43491 -10.39278 -10.39143
 Alpha  occ. eigenvalues --  -10.37409 -10.35368 -10.34837 -10.34470 -10.34442
 Alpha  occ. eigenvalues --  -10.33917 -10.33863 -10.33694 -10.33640 -10.33594
 Alpha  occ. eigenvalues --  -10.33314 -10.33108 -10.32917 -10.32806 -10.32275
 Alpha  occ. eigenvalues --  -10.32212 -10.32090 -10.31950 -10.31868 -10.31712
 Alpha  occ. eigenvalues --  -10.31590 -10.31509 -10.31183 -10.30916 -10.30710
 Alpha  occ. eigenvalues --  -10.30683 -10.30635 -10.30413 -10.30321 -10.30153
 Alpha  occ. eigenvalues --  -10.30002 -10.29903 -10.29778 -10.29751 -10.29730
 Alpha  occ. eigenvalues --  -10.29614 -10.29482 -10.29307 -10.29295 -10.29256
 Alpha  occ. eigenvalues --  -10.29221 -10.29066 -10.29006 -10.28964 -10.28783
 Alpha  occ. eigenvalues --  -10.28774 -10.28750 -10.28655 -10.28437 -10.28274
 Alpha  occ. eigenvalues --  -10.28112  -3.20880  -1.94470  -1.93984  -1.93874
 Alpha  occ. eigenvalues --   -1.16448  -1.16144  -1.13505  -1.12154  -1.08049
 Alpha  occ. eigenvalues --   -1.07467  -1.06129  -1.05557  -1.04965  -1.04173
 Alpha  occ. eigenvalues --   -0.93482  -0.92944  -0.90798  -0.90545  -0.90498
 Alpha  occ. eigenvalues --   -0.90027  -0.89827  -0.89016  -0.88676  -0.88581
 Alpha  occ. eigenvalues --   -0.88225  -0.86650  -0.86134  -0.85239  -0.84912
 Alpha  occ. eigenvalues --   -0.84331  -0.84019  -0.82892  -0.82528  -0.81892
 Alpha  occ. eigenvalues --   -0.81529  -0.80335  -0.79556  -0.78946  -0.77698
 Alpha  occ. eigenvalues --   -0.77539  -0.77450  -0.76682  -0.76574  -0.75949
 Alpha  occ. eigenvalues --   -0.75698  -0.74481  -0.73243  -0.72792  -0.71180
 Alpha  occ. eigenvalues --   -0.70502  -0.70061  -0.69236  -0.68541  -0.67341
 Alpha  occ. eigenvalues --   -0.66822  -0.66621  -0.66415  -0.66199  -0.66028
 Alpha  occ. eigenvalues --   -0.65236  -0.64599  -0.64545  -0.63321  -0.62449
 Alpha  occ. eigenvalues --   -0.61654  -0.61368  -0.60772  -0.60231  -0.59479
 Alpha  occ. eigenvalues --   -0.58798  -0.58299  -0.57674  -0.57241  -0.56953
 Alpha  occ. eigenvalues --   -0.56801  -0.56483  -0.56130  -0.55625  -0.55458
 Alpha  occ. eigenvalues --   -0.55399  -0.55126  -0.54999  -0.54971  -0.54780
 Alpha  occ. eigenvalues --   -0.54303  -0.54149  -0.53838  -0.53598  -0.53339
 Alpha  occ. eigenvalues --   -0.53274  -0.53048  -0.52866  -0.52540  -0.52463
 Alpha  occ. eigenvalues --   -0.52267  -0.52110  -0.52080  -0.51622  -0.51373
 Alpha  occ. eigenvalues --   -0.51308  -0.51162  -0.51029  -0.50740  -0.50621
 Alpha  occ. eigenvalues --   -0.50527  -0.50508  -0.50274  -0.50214  -0.49470
 Alpha  occ. eigenvalues --   -0.49306  -0.49303  -0.49252  -0.48829  -0.48580
 Alpha  occ. eigenvalues --   -0.48130  -0.47993  -0.47768  -0.47744  -0.47414
 Alpha  occ. eigenvalues --   -0.47179  -0.46913  -0.46800  -0.46689  -0.46546
 Alpha  occ. eigenvalues --   -0.46264  -0.46192  -0.45789  -0.45674  -0.45544
 Alpha  occ. eigenvalues --   -0.45253  -0.45228  -0.45067  -0.44821  -0.44805
 Alpha  occ. eigenvalues --   -0.44586  -0.44510  -0.44436  -0.43857  -0.43670
 Alpha  occ. eigenvalues --   -0.43549  -0.43512  -0.43352  -0.43131  -0.43017
 Alpha  occ. eigenvalues --   -0.42726  -0.42606  -0.42250  -0.42132  -0.42058
 Alpha  occ. eigenvalues --   -0.41747  -0.41405  -0.41294  -0.41239  -0.40842
 Alpha  occ. eigenvalues --   -0.40792  -0.40247  -0.39755  -0.39659  -0.39443
 Alpha  occ. eigenvalues --   -0.39242  -0.38731  -0.38552  -0.38079  -0.37926
 Alpha  occ. eigenvalues --   -0.37517  -0.37150  -0.36771  -0.36265  -0.35990
 Alpha  occ. eigenvalues --   -0.35930  -0.35666  -0.35181  -0.33293  -0.33102
 Alpha  occ. eigenvalues --   -0.32981  -0.32856  -0.32327  -0.32004  -0.25618
 Alpha  occ. eigenvalues --   -0.22800
 Alpha virt. eigenvalues --   -0.06742   0.00317   0.02456   0.04442   0.05072
 Alpha virt. eigenvalues --    0.05828   0.06669   0.07503   0.08588   0.09726
 Alpha virt. eigenvalues --    0.10759   0.11019   0.11740   0.12286   0.12334

 Mulliken charges:
               1
     1  Mg   0.962826
     2  C   -0.003525
     3  C   -0.069380
     4  C   -0.085295
     5  C   -0.080254
     6  N   -0.334704
     7  C   -0.027007
     8  C   -0.017992
     9  C   -0.129159
    10  C    0.067088
    11  C    0.012413
    12  C    0.023491
    13  C   -0.037235
    14  C    0.277108
    15  O   -0.296897
    16  O   -0.398820
    17  N   -0.471761
    18  C    0.152046
    19  C   -0.169509
    20  C   -0.092709
    21  C    0.138655
    22  C    0.055895
    23  C    0.051466
    24  O   -0.215550
    25  C    0.001128
    26  N   -0.323001
    27  C    0.075269
    28  C   -0.119849
    29  C   -0.020547
    30  C    0.040815
    31  C    0.028252
    32  C   -0.018777
    33  C   -0.062526
    34  N   -0.460618
    35  C    0.135398
    36  C   -0.181999
    37  C   -0.068854
    38  C    0.153745
    39  C    0.071079
    40  C    0.162869
    41  O   -0.194867
    42  C   -0.096736
    43  C    0.283408
    44  O   -0.264808
    45  O   -0.383790
    46  C    0.134635
    47  C    0.239096
    48  C   -0.122877
    49  C   -0.188700
    50  C   -0.008165
    51  C    0.065052
    52  C   -0.066337
    53  C   -0.007283
    54  C   -0.173126
    55  C   -0.010777
    56  C    0.020529
    57  C   -0.059550
    58  C    0.025366
    59  C   -0.173574
    60  C   -0.000312
    61  C   -0.005923
    62  C   -0.004402
    63  C   -0.025632
    64  C   -0.219188
    65  C    0.001929
    66  C   -0.018685
    67  H   -0.010403
    68  H    0.021526
    69  H   -0.005324
    70  H    0.073692
    71  H    0.034144
    72  H    0.014357
    73  H    0.070273
    74  H    0.034826
    75  H    0.036738
    76  H    0.044467
    77  H    0.041296
    78  H    0.073004
    79  H    0.049102
    80  H    0.057515
    81  H    0.038175
    82  H    0.051599
    83  H    0.045357
    84  H    0.064304
    85  H    0.037832
    86  H    0.030356
    87  H    0.040591
    88  H    0.034783
    89  H    0.044152
    90  H    0.033541
    91  H    0.029353
    92  H    0.042944
    93  H    0.028152
    94  H    0.037978
    95  H    0.063104
    96  H    0.055080
    97  H    0.045242
    98  H    0.058669
    99  H    0.040290
   100  H    0.041941
   101  H    0.069980
   102  H    0.078693
   103  H    0.061277
   104  H    0.029452
   105  H    0.049464
   106  H    0.030435
   107  H    0.051713
   108  H    0.015813
   109  H    0.015439
   110  H    0.036114
   111  H    0.030006
   112  H    0.016224
   113  H    0.018708
   114  H    0.025232
   115  H    0.031829
   116  H    0.029547
   117  H    0.019496
   118  H    0.023364
   119  H    0.017978
   120  H    0.015969
   121  H    0.022977
   122  H    0.019067
   123  H    0.016666
   124  H    0.026047
   125  H    0.027468
   126  H    0.020456
   127  H    0.015276
   128  H    0.026143
   129  H    0.012415
   130  H    0.024545
   131  H    0.026364
   132  H    0.016620
   133  H    0.024535
   134  H    0.016376
   135  H    0.027072
   136  H    0.021264
   137  H    0.041302
   138  H    0.022335
   139  H    0.036229
   140  H    0.022593
 Sum of Mulliken charges =  -0.00000

 Dipole moment (field-independent basis, Debye):
    X=              3.5564    Y=              4.7401    Z=             -3.5819  Tot=              6.9243
 Quadrupole moment (field-independent basis, Debye-Ang):
   XX=           -362.7821   YY=           -412.3980   ZZ=           -405.2597
   XY=              0.3521   XZ=             18.1660   YZ=              3.7782

 Normal termination of Gaussian 16 at Thu Apr 28 14:48:32 2022.
