 Gaussian 16, Revision A.03,
 Gaussian 16:  ES64L-G16RevA.03 25-Dec-2016

 --------------------
 #p ZINDO=(nstates=5)
 --------------------

 ------------------------------
 step_1601_chromophore_19 ZINDO
 ------------------------------
 Symbolic Z-matrix:
 Charge =  0 Multiplicity = 1

                         Standard orientation:
 ---------------------------------------------------------------------
 Center     Atomic      Atomic             Coordinates (Angstroms)
 Number     Number       Type             X           Y           Z
 ---------------------------------------------------------------------
      1         12           0       -5.920219    0.278345   -0.075890
      2          6           0       -3.520384   -2.215533   -0.221869
      3          6           0       -3.515152    2.604535    0.308983
      4          6           0       -8.368909    2.646585    0.367459
      5          6           0       -8.449798   -2.142105   -0.258789
      6          7           0       -3.684431    0.123409    0.253571
      7          6           0       -2.944479   -0.970026   -0.079322
      8          6           0       -1.462076   -0.586649   -0.120654
      9          6           0       -1.458110    0.962932    0.152877
     10          6           0       -3.008857    1.281130    0.260137
     11          6           0       -0.618877    1.530402    1.380784
     12          6           0       -0.707766   -1.077633   -1.445292
     13          6           0        0.642977   -1.812004   -1.170050
     14          6           0        1.701128   -1.382802   -0.056489
     15          8           0        1.529842   -1.451878    1.187537
     16          8           0        2.811137   -0.646061   -0.475383
     17          7           0       -5.920379    2.303271    0.293317
     18          6           0       -4.823117    3.106992    0.254187
     19          6           0       -5.171240    4.504652    0.293768
     20          6           0       -6.664563    4.539723    0.373413
     21          6           0       -7.035613    3.132767    0.337489
     22          6           0       -4.169679    5.698587    0.167269
     23          6           0       -7.535216    5.790467    0.445629
     24          8           0       -8.737495    5.693134    0.471531
     25          6           0       -6.915132    7.117591    0.257184
     26          7           0       -8.143077    0.283700    0.055844
     27          6           0       -8.879775    1.354359    0.287205
     28          6           0      -10.348553    1.064403    0.295311
     29          6           0      -10.398345   -0.401148   -0.223944
     30          6           0       -8.953057   -0.829117   -0.220106
     31          6           0      -10.989147    1.305515    1.688518
     32          6           0      -11.089446   -0.494298   -1.630792
     33          6           0      -10.257977   -0.148319   -2.884127
     34          7           0       -6.000004   -1.729063   -0.178964
     35          6           0       -7.116119   -2.577171   -0.236645
     36          6           0       -6.639742   -3.976372   -0.360995
     37          6           0       -5.247524   -3.885028   -0.390430
     38          6           0       -4.917141   -2.490384   -0.181454
     39          6           0       -7.476197   -5.189292   -0.548954
     40          6           0       -4.049776   -4.696580   -0.417910
     41          8           0       -3.939823   -5.909894   -0.451123
     42          6           0       -2.860584   -3.623858   -0.333824
     43          6           0       -1.912574   -3.943231    0.853981
     44          8           0       -2.111901   -3.729953    2.070941
     45          8           0       -0.760721   -4.629879    0.390094
     46          6           0        0.182384   -4.992766    1.432409
     47          6           0        3.898936   -0.176771    0.503820
     48          6           0        5.327150   -0.717988    0.117700
     49          6           0        6.460631   -0.700105    0.827940
     50          6           0        6.575980    0.087526    2.184436
     51          6           0        7.793661   -1.083342    0.331473
     52          6           0        8.685543   -0.020251   -0.290554
     53          6           0        8.391786    0.074167   -1.800733
     54          6           0        9.301271    1.233625   -2.465393
     55          6           0        8.374400    2.218345   -3.288346
     56          6           0       10.454787    0.642591   -3.256323
     57          6           0       11.776111    1.525049   -3.140461
     58          6           0       13.110857    0.758208   -3.025441
     59          6           0       13.717680    0.940576   -1.574727
     60          6           0       15.240360    0.779079   -1.559525
     61          6           0       12.988815    0.031008   -0.384683
     62          6           0       13.084394    0.682753    1.017203
     63          6           0       11.881705    0.350691    1.938745
     64          6           0       12.270580    0.332469    3.475901
     65          6           0       11.393120   -0.654289    4.294392
     66          6           0       12.310431    1.793062    3.976114
     67          1           0       -2.792599    3.396272    0.098655
     68          1           0       -9.119593    3.439401    0.384076
     69          1           0       -9.174864   -2.948105   -0.388614
     70          1           0       -1.082693   -1.089325    0.768398
     71          1           0       -1.075031    1.552826   -0.678845
     72          1           0       -0.106151    2.452568    1.110374
     73          1           0        0.110242    0.818262    1.766814
     74          1           0       -1.308964    1.965587    2.103568
     75          1           0       -0.559062   -0.185740   -2.053189
     76          1           0       -1.216782   -1.769001   -2.116278
     77          1           0        1.038084   -1.658664   -2.173906
     78          1           0        0.524394   -2.894409   -1.216785
     79          1           0       -4.345731    6.345329    1.027141
     80          1           0       -4.302894    6.183809   -0.798998
     81          1           0       -3.095471    5.517367    0.200251
     82          1           0       -6.302180    7.392278    1.115967
     83          1           0       -7.658988    7.914754    0.267843
     84          1           0       -6.402208    7.129116   -0.704181
     85          1           0      -10.974129    1.726111   -0.304461
     86          1           0      -10.895867   -1.078490    0.470357
     87          1           0      -10.375501    2.061762    2.177765
     88          1           0      -10.922689    0.388106    2.273300
     89          1           0      -12.003241    1.676886    1.545232
     90          1           0      -11.944920    0.175609   -1.716208
     91          1           0      -11.418555   -1.524181   -1.764535
     92          1           0      -10.749934    0.305404   -3.744047
     93          1           0       -9.853593   -1.100731   -3.228508
     94          1           0       -9.386630    0.463672   -2.650112
     95          1           0       -7.513876   -5.652802    0.436691
     96          1           0       -6.859877   -5.828763   -1.180350
     97          1           0       -8.448201   -5.114376   -1.036754
     98          1           0       -2.214044   -3.769067   -1.199136
     99          1           0        0.938144   -4.210522    1.507393
    100          1           0        0.787056   -5.847505    1.128349
    101          1           0       -0.219971   -5.136981    2.434783
    102          1           0        3.663403   -0.477512    1.525466
    103          1           0        3.813880    0.907053    0.429621
    104          1           0        5.312507   -1.371730   -0.754187
    105          1           0        6.877068   -0.690452    2.885926
    106          1           0        5.677844    0.522017    2.622718
    107          1           0        7.278332    0.902876    2.010486
    108          1           0        7.688787   -1.883594   -0.402070
    109          1           0        8.318975   -1.517783    1.182089
    110          1           0        9.715418   -0.373923   -0.241670
    111          1           0        8.595570    1.009152    0.055770
    112          1           0        7.338945    0.355655   -1.830911
    113          1           0        8.539183   -0.962186   -2.103593
    114          1           0        9.629498    1.941651   -1.705110
    115          1           0        8.548223    3.246589   -2.972027
    116          1           0        7.317251    1.965453   -3.209416
    117          1           0        8.581162    2.139808   -4.356325
    118          1           0       10.336477    0.652928   -4.339820
    119          1           0       10.677123   -0.385298   -2.968489
    120          1           0       11.559849    2.181407   -2.297341
    121          1           0       11.766475    2.111184   -4.059978
    122          1           0       13.749329    1.048282   -3.859887
    123          1           0       12.959895   -0.297961   -3.249637
    124          1           0       13.501165    1.974169   -1.303759
    125          1           0       15.899480    1.527250   -1.119063
    126          1           0       15.594753    0.687347   -2.585913
    127          1           0       15.589474   -0.095990   -1.011322
    128          1           0       13.547787   -0.899827   -0.294694
    129          1           0       11.951622   -0.178000   -0.646046
    130          1           0       13.091379    1.767688    0.912000
    131          1           0       14.044339    0.343908    1.407043
    132          1           0       11.540748   -0.665177    1.738690
    133          1           0       10.978012    0.959801    1.948263
    134          1           0       13.298329   -0.008810    3.602069
    135          1           0       10.381801   -0.752031    3.899278
    136          1           0       11.293653   -0.243403    5.299115
    137          1           0       11.895195   -1.621240    4.331585
    138          1           0       11.301003    2.198825    4.036694
    139          1           0       12.977764    2.451968    3.420216
    140          1           0       12.685578    1.804009    4.998721
 ---------------------------------------------------------------------

 SCF Done:  E(RZINDO/S) =  -473.709199630     A.U. after   20 cycles

 Excitation energies and oscillator strengths:

 Excited State   1:      Singlet-A      1.2539 eV  988.80 nm  f=0.5864  <S**2>=0.000
     175 ->178         0.20283
     176 ->177         0.66019
 This state for optimization and/or second-order correction.
 Total Energy, E(CIS/TDA) =  -473.663120367
 Copying the excited state density for this state as the 1-particle RhoCI density.

 Excited State   2:      Singlet-A      1.9255 eV  643.92 nm  f=0.0463  <S**2>=0.000
     175 ->177         0.54875
     176 ->178        -0.42311

 Excited State   3:      Singlet-A      2.9619 eV  418.60 nm  f=0.0057  <S**2>=0.000
     168 ->177         0.28920
     168 ->179        -0.31348
     168 ->181        -0.33545
     168 ->182         0.11433
     168 ->186        -0.21722
     168 ->187         0.13050
     176 ->179         0.16524

 Excited State   4:      Singlet-A      2.9913 eV  414.48 nm  f=0.5113  <S**2>=0.000
     168 ->181         0.10053
     175 ->177         0.26966
     176 ->178         0.39064
     176 ->179         0.40788
     176 ->182         0.11078

 Excited State   5:      Singlet-A      3.0793 eV  402.64 nm  f=0.8791  <S**2>=0.000
     169 ->179         0.14160
     173 ->177         0.12267
     175 ->177        -0.29463
     176 ->178        -0.36550
     176 ->179         0.40705

 The electronic state is 1-A.
 Alpha  occ. eigenvalues --   -1.82850  -1.80879  -1.78723  -1.70107  -1.68609
 Alpha  occ. eigenvalues --   -1.66708  -1.64124  -1.60634  -1.59040  -1.56804
 Alpha  occ. eigenvalues --   -1.55274  -1.48953  -1.47017  -1.46379  -1.44652
 Alpha  occ. eigenvalues --   -1.41924  -1.40661  -1.39437  -1.38053  -1.37646
 Alpha  occ. eigenvalues --   -1.35509  -1.33930  -1.32476  -1.31925  -1.29014
 Alpha  occ. eigenvalues --   -1.27548  -1.24284  -1.21867  -1.19697  -1.18149
 Alpha  occ. eigenvalues --   -1.17047  -1.16048  -1.14518  -1.12949  -1.12502
 Alpha  occ. eigenvalues --   -1.11938  -1.10790  -1.10354  -1.04581  -1.03452
 Alpha  occ. eigenvalues --   -1.03289  -1.00539  -0.98469  -0.97182  -0.96888
 Alpha  occ. eigenvalues --   -0.96408  -0.94875  -0.94161  -0.92968  -0.92256
 Alpha  occ. eigenvalues --   -0.89823  -0.89733  -0.88186  -0.87891  -0.87587
 Alpha  occ. eigenvalues --   -0.85905  -0.83250  -0.82734  -0.81200  -0.81056
 Alpha  occ. eigenvalues --   -0.80902  -0.78402  -0.76946  -0.76506  -0.75500
 Alpha  occ. eigenvalues --   -0.75189  -0.74796  -0.74295  -0.73845  -0.73566
 Alpha  occ. eigenvalues --   -0.72659  -0.72067  -0.71935  -0.71569  -0.69683
 Alpha  occ. eigenvalues --   -0.69482  -0.68861  -0.68477  -0.68047  -0.67899
 Alpha  occ. eigenvalues --   -0.67836  -0.67481  -0.67025  -0.66126  -0.65424
 Alpha  occ. eigenvalues --   -0.64514  -0.64161  -0.63828  -0.63765  -0.63566
 Alpha  occ. eigenvalues --   -0.63280  -0.62977  -0.62474  -0.62079  -0.61892
 Alpha  occ. eigenvalues --   -0.61753  -0.61313  -0.60920  -0.60509  -0.60114
 Alpha  occ. eigenvalues --   -0.59804  -0.59495  -0.59037  -0.58529  -0.58070
 Alpha  occ. eigenvalues --   -0.57917  -0.57419  -0.56994  -0.56843  -0.56821
 Alpha  occ. eigenvalues --   -0.56589  -0.55494  -0.54589  -0.54525  -0.54321
 Alpha  occ. eigenvalues --   -0.53923  -0.53714  -0.53193  -0.52962  -0.52510
 Alpha  occ. eigenvalues --   -0.52382  -0.52243  -0.51780  -0.51299  -0.51234
 Alpha  occ. eigenvalues --   -0.50960  -0.50658  -0.50363  -0.50290  -0.49957
 Alpha  occ. eigenvalues --   -0.49856  -0.49725  -0.49331  -0.49293  -0.49079
 Alpha  occ. eigenvalues --   -0.48879  -0.48714  -0.48490  -0.48421  -0.47863
 Alpha  occ. eigenvalues --   -0.47328  -0.47239  -0.47052  -0.46886  -0.46564
 Alpha  occ. eigenvalues --   -0.46297  -0.46113  -0.46074  -0.45662  -0.45550
 Alpha  occ. eigenvalues --   -0.45052  -0.45031  -0.44926  -0.44880  -0.44776
 Alpha  occ. eigenvalues --   -0.43766  -0.43744  -0.43442  -0.42996  -0.42284
 Alpha  occ. eigenvalues --   -0.42138  -0.41666  -0.40930  -0.39086  -0.38813
 Alpha  occ. eigenvalues --   -0.38204  -0.36858  -0.35295  -0.35079  -0.34804
 Alpha  occ. eigenvalues --   -0.33139  -0.32974  -0.32608  -0.31995  -0.26273
 Alpha  occ. eigenvalues --   -0.21582
 Alpha virt. eigenvalues --   -0.08280  -0.01896  -0.00372   0.00370   0.01251
 Alpha virt. eigenvalues --    0.02437   0.02679   0.03134   0.04424   0.05005
 Alpha virt. eigenvalues --    0.06335   0.06671   0.07056   0.07236   0.07777

 Mulliken charges:
               1
     1  Mg   0.427910
     2  C   -0.055802
     3  C   -0.093928
     4  C   -0.064992
     5  C   -0.048832
     6  N   -0.282449
     7  C    0.132317
     8  C    0.006939
     9  C   -0.001674
    10  C    0.147760
    11  C   -0.055898
    12  C   -0.014824
    13  C    0.002691
    14  C    0.460724
    15  O   -0.516136
    16  O   -0.290150
    17  N   -0.330769
    18  C    0.132861
    19  C   -0.015567
    20  C   -0.055746
    21  C    0.136011
    22  C   -0.043319
    23  C    0.338864
    24  O   -0.514143
    25  C   -0.026775
    26  N   -0.272098
    27  C    0.161047
    28  C    0.001597
    29  C    0.013065
    30  C    0.094160
    31  C   -0.053408
    32  C   -0.025248
    33  C   -0.058059
    34  N   -0.302648
    35  C    0.066056
    36  C    0.044593
    37  C   -0.068634
    38  C    0.125695
    39  C   -0.038174
    40  C    0.335532
    41  O   -0.512258
    42  C    0.053040
    43  C    0.469620
    44  O   -0.509171
    45  O   -0.271037
    46  C    0.073872
    47  C    0.108017
    48  C   -0.085791
    49  C    0.002178
    50  C   -0.056674
    51  C   -0.005834
    52  C   -0.033733
    53  C   -0.051593
    54  C   -0.014192
    55  C   -0.064711
    56  C   -0.035844
    57  C   -0.049370
    58  C   -0.029964
    59  C   -0.013788
    60  C   -0.060742
    61  C   -0.042378
    62  C   -0.029178
    63  C   -0.038955
    64  C   -0.020137
    65  C   -0.055009
    66  C   -0.055748
    67  H    0.018665
    68  H    0.041462
    69  H    0.024905
    70  H    0.054442
    71  H    0.024440
    72  H    0.011897
    73  H    0.044055
    74  H    0.025656
    75  H    0.023908
    76  H    0.031142
    77  H    0.020483
    78  H    0.051548
    79  H    0.028979
    80  H    0.031197
    81  H    0.024824
    82  H    0.037432
    83  H    0.028937
    84  H    0.042920
    85  H    0.033207
    86  H    0.028283
    87  H    0.025656
    88  H    0.023875
    89  H    0.025006
    90  H    0.019315
    91  H    0.015779
    92  H    0.024318
    93  H    0.011098
    94  H    0.021213
    95  H    0.041778
    96  H    0.029142
    97  H    0.031216
    98  H    0.049253
    99  H    0.032966
   100  H    0.028184
   101  H    0.058421
   102  H    0.063333
   103  H    0.045457
   104  H    0.029803
   105  H    0.029835
   106  H    0.020801
   107  H    0.030523
   108  H    0.018120
   109  H    0.013923
   110  H    0.017580
   111  H    0.027510
   112  H    0.020919
   113  H    0.030980
   114  H    0.028052
   115  H    0.019231
   116  H    0.020141
   117  H    0.014623
   118  H    0.020686
   119  H    0.020042
   120  H    0.023116
   121  H    0.014585
   122  H    0.022417
   123  H    0.016876
   124  H    0.018700
   125  H    0.019508
   126  H    0.013235
   127  H    0.013787
   128  H    0.020843
   129  H    0.024773
   130  H    0.019041
   131  H    0.027682
   132  H    0.008917
   133  H    0.029898
   134  H    0.014476
   135  H    0.020629
   136  H    0.015853
   137  H    0.022598
   138  H    0.017404
   139  H    0.021847
   140  H    0.007488
 Sum of Mulliken charges =  -0.00000

 Dipole moment (field-independent basis, Debye):
    X=              4.7313    Y=              6.2172    Z=             -5.8571  Tot=              9.7644
 N-N= 4.290977982258D+03 E-N= 0.000000000000D+00  KE=-9.256098563466D+03
 Leave Link  601 at Thu Apr 28 15:00:34 2022, MaxMem=  6710886400 cpu:               0.8 elap:               0.0
 (Enter /sw/apps/gaussian-16.0/g16/l9999.exe)
 1\1\GINC-BP1-COMPUTE148\SP\RZINDO CIS\STO-3G\C55H74Mg1N4O6\OF15641\28-
 Apr-2022\0\\#p ZINDO=(nstates=5)\\step_1601_chromophore_19 ZINDO\\0,1\
 Mg,0,25.938,49.631,26.261\C,0,23.763,50.477,28.821\C,0,28.211,48.571,2
 8.509\C,0,28.15,49.109,23.685\C,0,23.68,50.925,23.912\N,0,26.025,49.75
 8,28.521\C,0,24.93,49.929,29.312\C,0,25.281,49.55,30.754\C,0,26.762,49
 .026,30.664\C,0,27.051,49.125,29.107\C,0,27.885,49.722,31.552\C,0,24.2
 18,48.566,31.437\C,0,23.752,49.023,32.856\C,0,24.704,49.665,33.963\O,0

 Normal termination of Gaussian 16 at Thu Apr 28 15:00:34 2022.
