 Gaussian 16, Revision A.03,
 Gaussian 16:  ES64L-G16RevA.03 25-Dec-2016

 ------------------------------
 #p blyp/Def2SVP td=(nstates=5)
 ------------------------------

 ---------------------------------------------------
 step_1301_chromophore_19 TDDFT with blyp functional
 ---------------------------------------------------
 Symbolic Z-matrix:
 Charge =  0 Multiplicity = 1

                         Standard orientation:
 ---------------------------------------------------------------------
 Center     Atomic      Atomic             Coordinates (Angstroms)
 Number     Number       Type             X           Y           Z
 ---------------------------------------------------------------------
      1         12           0       -5.856156    0.371075   -0.208593
      2          6           0       -3.556702   -2.229999   -0.227968
      3          6           0       -3.279835    2.621165    0.551937
      4          6           0       -8.156094    2.729620    0.679450
      5          6           0       -8.401836   -1.869207   -0.653690
      6          7           0       -3.713604    0.174693    0.078485
      7          6           0       -2.954743   -0.978279   -0.032617
      8          6           0       -1.472784   -0.668402    0.127204
      9          6           0       -1.457716    0.851274    0.526667
     10          6           0       -2.928357    1.234926    0.406048
     11          6           0       -0.871830    1.265320    1.942370
     12          6           0       -0.601260   -1.027160   -1.110977
     13          6           0        0.655710   -1.808974   -0.797209
     14          6           0        1.638262   -1.025509    0.127529
     15          8           0        1.496464   -0.803299    1.307595
     16          8           0        2.839784   -0.817131   -0.587517
     17          7           0       -5.713570    2.378901    0.451934
     18          6           0       -4.603487    3.159337    0.621819
     19          6           0       -4.934785    4.473501    0.655356
     20          6           0       -6.403989    4.532010    0.811623
     21          6           0       -6.819203    3.129091    0.664008
     22          6           0       -3.969349    5.593398    0.478388
     23          6           0       -7.293018    5.747851    0.840482
     24          8           0       -8.528256    5.707123    0.867352
     25          6           0       -6.702861    7.107609    0.660949
     26          7           0       -7.985770    0.372808    0.099890
     27          6           0       -8.692945    1.490636    0.407322
     28          6           0      -10.170491    1.188665    0.463504
     29          6           0      -10.236337   -0.168026   -0.207347
     30          6           0       -8.789234   -0.611631   -0.328832
     31          6           0      -10.931099    1.149962    1.843491
     32          6           0      -11.111834   -0.186481   -1.453206
     33          6           0      -10.377772   -0.067255   -2.857611
     34          7           0       -6.021693   -1.694091   -0.544732
     35          6           0       -7.075518   -2.483713   -0.633084
     36          6           0       -6.708318   -3.930104   -0.860879
     37          6           0       -5.313865   -3.869494   -0.762615
     38          6           0       -4.993792   -2.491960   -0.456902
     39          6           0       -7.589161   -5.105108   -1.059651
     40          6           0       -4.105200   -4.615570   -0.776262
     41          8           0       -3.874737   -5.814539   -0.851219
     42          6           0       -2.991696   -3.641806   -0.415344
     43          6           0       -2.175023   -4.099443    0.656903
     44          8           0       -2.377845   -3.856360    1.853623
     45          8           0       -1.279739   -4.993243    0.224287
     46          6           0       -0.648622   -5.932737    1.277150
     47          6           0        3.932727   -0.333074    0.303359
     48          6           0        5.261682   -0.481450   -0.558380
     49          6           0        6.518010   -0.843397   -0.169855
     50          6           0        6.817107   -0.854605    1.327455
     51          6           0        7.600283   -1.179815   -1.167337
     52          6           0        8.595215   -0.022403   -1.288166
     53          6           0        8.361202    0.944701   -2.461920
     54          6           0        9.342942    2.106720   -2.429945
     55          6           0        8.599332    3.490614   -2.570872
     56          6           0       10.542357    1.974293   -3.509471
     57          6           0       11.876336    2.391859   -2.824977
     58          6           0       12.917841    1.180336   -2.543242
     59          6           0       13.466588    1.046359   -1.104038
     60          6           0       14.824343    0.380496   -0.998085
     61          6           0       12.418267    0.402734   -0.162214
     62          6           0       12.656098    0.796097    1.316051
     63          6           0       12.896944   -0.468985    2.197657
     64          6           0       11.926304   -0.534281    3.491479
     65          6           0       12.522081    0.258118    4.670140
     66          6           0       11.556654   -1.975263    3.947324
     67          1           0       -2.495038    3.282681    0.927647
     68          1           0       -8.961053    3.467398    0.650232
     69          1           0       -9.244117   -2.529428   -0.869798
     70          1           0       -1.070457   -1.353861    0.872803
     71          1           0       -0.701884    1.376442   -0.057369
     72          1           0       -0.596131    0.258230    2.255278
     73          1           0       -1.626667    1.700624    2.596784
     74          1           0       -0.110167    2.035621    1.821360
     75          1           0       -0.301219   -0.105847   -1.611010
     76          1           0       -1.237116   -1.438080   -1.894975
     77          1           0        1.173615   -2.194461   -1.675802
     78          1           0        0.336645   -2.701857   -0.258708
     79          1           0       -3.891045    6.198416    1.381182
     80          1           0       -4.141350    6.303244   -0.329513
     81          1           0       -2.933936    5.283768    0.333091
     82          1           0       -5.838330    7.248509    1.309956
     83          1           0       -7.421521    7.913185    0.808221
     84          1           0       -6.336703    7.185726   -0.362889
     85          1           0      -10.781308    1.908430   -0.080284
     86          1           0      -10.573116   -0.908179    0.518864
     87          1           0      -11.443998    2.094902    2.021236
     88          1           0      -10.196455    0.974857    2.629317
     89          1           0      -11.778859    0.471407    1.930153
     90          1           0      -11.947478    0.511487   -1.413586
     91          1           0      -11.663863   -1.126296   -1.490055
     92          1           0      -10.282498   -1.055987   -3.306357
     93          1           0       -9.405576    0.406915   -2.722843
     94          1           0      -10.915608    0.594302   -3.537791
     95          1           0       -8.590956   -4.822872   -1.385695
     96          1           0       -7.693271   -5.484357   -0.043571
     97          1           0       -7.301716   -5.850432   -1.801089
     98          1           0       -2.302975   -3.506225   -1.249992
     99          1           0       -1.372485   -6.164308    2.058780
    100          1           0        0.247180   -5.429155    1.639261
    101          1           0       -0.288887   -6.831061    0.774873
    102          1           0        4.235611   -1.055417    1.061354
    103          1           0        3.950080    0.701826    0.646564
    104          1           0        5.093287   -0.556598   -1.632700
    105          1           0        6.075756   -0.435494    2.007264
    106          1           0        7.723192   -0.303437    1.576038
    107          1           0        6.946944   -1.852607    1.744129
    108          1           0        7.148687   -1.525716   -2.096992
    109          1           0        8.087779   -2.074582   -0.782661
    110          1           0        9.627558   -0.358382   -1.390552
    111          1           0        8.664746    0.602463   -0.398142
    112          1           0        7.333426    1.302049   -2.515134
    113          1           0        8.534113    0.330905   -3.345770
    114          1           0        9.828763    2.165035   -1.456557
    115          1           0        7.583121    3.474721   -2.966932
    116          1           0        9.133852    4.129948   -3.273346
    117          1           0        8.597213    3.918762   -1.568945
    118          1           0       10.310165    2.596228   -4.373280
    119          1           0       10.625939    0.941460   -3.847309
    120          1           0       11.654586    2.820340   -1.847297
    121          1           0       12.292332    3.117185   -3.524190
    122          1           0       13.732029    1.306887   -3.256657
    123          1           0       12.516809    0.210535   -2.837965
    124          1           0       13.635156    2.071380   -0.775843
    125          1           0       14.810227   -0.532889   -0.403842
    126          1           0       15.569664    0.928616   -0.420444
    127          1           0       15.239241    0.142565   -1.977662
    128          1           0       12.404969   -0.687588   -0.157136
    129          1           0       11.432352    0.698667   -0.519773
    130          1           0       11.730707    1.154669    1.766708
    131          1           0       13.468319    1.506568    1.470536
    132          1           0       13.965960   -0.461832    2.413386
    133          1           0       12.828337   -1.420140    1.669468
    134          1           0       10.996287   -0.026111    3.236847
    135          1           0       12.392767    1.339875    4.634919
    136          1           0       13.561803   -0.012356    4.852615
    137          1           0       12.019474    0.061985    5.617275
    138          1           0       11.776337   -2.016251    5.014430
    139          1           0       12.137913   -2.708576    3.390534
    140          1           0       10.488620   -2.123267    3.782627
 ---------------------------------------------------------------------

 SCF Done:  E(RB-LYP) =  -3007.35785030     A.U. after   21 cycles

 Excitation energies and oscillator strengths:

 Excited State   1:      Singlet-A      1.6326 eV  759.41 nm  f=0.0021  <S**2>=0.000
     244 -> 247        0.67252
     245 -> 247        0.21609
 This state for optimization and/or second-order correction.
 Total Energy, E(TD-HF/TD-DFT) =  -3007.29785200
 Copying the excited state density for this state as the 1-particle RhoCI density.

 Excited State   2:      Singlet-A      1.7565 eV  705.86 nm  f=0.3024  <S**2>=0.000
     245 -> 248        0.18433
     246 -> 247        0.69193
     246 <- 247       -0.16075

 Excited State   3:      Singlet-A      1.9658 eV  630.69 nm  f=0.1273  <S**2>=0.000
     242 -> 247        0.10188
     244 -> 247       -0.20728
     245 -> 247        0.62496
     246 -> 248       -0.20078

 Excited State   4:      Singlet-A      1.9860 eV  624.29 nm  f=0.0006  <S**2>=0.000
     243 -> 247        0.70478

 Excited State   5:      Singlet-A      2.3012 eV  538.78 nm  f=0.0120  <S**2>=0.000
     242 -> 247        0.68415

 The electronic state is 1-A.
 Alpha  occ. eigenvalues --  -46.27585 -18.83202 -18.81788 -18.78768 -18.75480
 Alpha  occ. eigenvalues --  -18.75208 -18.74411 -14.03532 -14.02523 -14.01381
 Alpha  occ. eigenvalues --  -14.00483 -10.05303 -10.02682  -9.99468  -9.98932
 Alpha  occ. eigenvalues --   -9.98805  -9.98160  -9.96803  -9.96765  -9.96136
 Alpha  occ. eigenvalues --   -9.95646  -9.95546  -9.95279  -9.94950  -9.94596
 Alpha  occ. eigenvalues --   -9.94371  -9.94262  -9.93880  -9.93647  -9.93571
 Alpha  occ. eigenvalues --   -9.93491  -9.93246  -9.93172  -9.93049  -9.92917
 Alpha  occ. eigenvalues --   -9.92913  -9.92774  -9.92649  -9.92612  -9.92598
 Alpha  occ. eigenvalues --   -9.92584  -9.92565  -9.92407  -9.92241  -9.92216
 Alpha  occ. eigenvalues --   -9.92073  -9.91926  -9.91900  -9.91854  -9.91848
 Alpha  occ. eigenvalues --   -9.91767  -9.91732  -9.91412  -9.91388  -9.91303
 Alpha  occ. eigenvalues --   -9.91293  -9.91266  -9.91210  -9.91160  -9.91080
 Alpha  occ. eigenvalues --   -9.91078  -9.91050  -9.90987  -9.90856  -9.90823
 Alpha  occ. eigenvalues --   -9.90758  -2.92141  -1.72568  -1.71985  -1.71885
 Alpha  occ. eigenvalues --   -0.98043  -0.97037  -0.91333  -0.91071  -0.90010
 Alpha  occ. eigenvalues --   -0.88446  -0.87851  -0.86584  -0.85849  -0.85140
 Alpha  occ. eigenvalues --   -0.75540  -0.73617  -0.73114  -0.72705  -0.72374
 Alpha  occ. eigenvalues --   -0.71873  -0.71466  -0.70928  -0.70514  -0.70496
 Alpha  occ. eigenvalues --   -0.69666  -0.68753  -0.67927  -0.67407  -0.66760
 Alpha  occ. eigenvalues --   -0.66250  -0.65714  -0.65153  -0.64916  -0.64121
 Alpha  occ. eigenvalues --   -0.63880  -0.62547  -0.61924  -0.61664  -0.60991
 Alpha  occ. eigenvalues --   -0.60851  -0.60054  -0.59988  -0.59676  -0.58697
 Alpha  occ. eigenvalues --   -0.58360  -0.57787  -0.56319  -0.55812  -0.55534
 Alpha  occ. eigenvalues --   -0.54677  -0.53448  -0.52727  -0.52259  -0.51270
 Alpha  occ. eigenvalues --   -0.51104  -0.50940  -0.50522  -0.50283  -0.49963
 Alpha  occ. eigenvalues --   -0.49910  -0.49725  -0.49312  -0.47690  -0.46718
 Alpha  occ. eigenvalues --   -0.46480  -0.46074  -0.45751  -0.45431  -0.44499
 Alpha  occ. eigenvalues --   -0.43922  -0.43416  -0.43148  -0.42771  -0.42699
 Alpha  occ. eigenvalues --   -0.42475  -0.41889  -0.41521  -0.41294  -0.40887
 Alpha  occ. eigenvalues --   -0.40719  -0.40363  -0.40166  -0.39934  -0.39866
 Alpha  occ. eigenvalues --   -0.39694  -0.39510  -0.39222  -0.39061  -0.39015
 Alpha  occ. eigenvalues --   -0.38940  -0.38892  -0.38473  -0.38124  -0.38070
 Alpha  occ. eigenvalues --   -0.37852  -0.37619  -0.37402  -0.37352  -0.37101
 Alpha  occ. eigenvalues --   -0.36910  -0.36719  -0.36666  -0.36433  -0.36241
 Alpha  occ. eigenvalues --   -0.36186  -0.36062  -0.35954  -0.35818  -0.35477
 Alpha  occ. eigenvalues --   -0.35376  -0.35250  -0.34985  -0.34866  -0.34626
 Alpha  occ. eigenvalues --   -0.34584  -0.34309  -0.34230  -0.34106  -0.33859
 Alpha  occ. eigenvalues --   -0.33618  -0.33527  -0.33421  -0.33166  -0.33063
 Alpha  occ. eigenvalues --   -0.32800  -0.32714  -0.32527  -0.32397  -0.32238
 Alpha  occ. eigenvalues --   -0.32158  -0.31972  -0.31856  -0.31679  -0.31464
 Alpha  occ. eigenvalues --   -0.31302  -0.31219  -0.30727  -0.30594  -0.30130
 Alpha  occ. eigenvalues --   -0.30060  -0.29822  -0.29699  -0.29515  -0.29470
 Alpha  occ. eigenvalues --   -0.29398  -0.29266  -0.29071  -0.28927  -0.28823
 Alpha  occ. eigenvalues --   -0.28718  -0.28370  -0.27987  -0.27922  -0.27775
 Alpha  occ. eigenvalues --   -0.27427  -0.27268  -0.27086  -0.26806  -0.26580
 Alpha  occ. eigenvalues --   -0.26424  -0.26360  -0.25977  -0.25783  -0.25550
 Alpha  occ. eigenvalues --   -0.25316  -0.24755  -0.24658  -0.24301  -0.23620
 Alpha  occ. eigenvalues --   -0.23321  -0.23184  -0.21548  -0.21138  -0.20472
 Alpha  occ. eigenvalues --   -0.20303  -0.19517  -0.18906  -0.17684  -0.16979
 Alpha  occ. eigenvalues --   -0.15749
 Alpha virt. eigenvalues --   -0.11728  -0.06307  -0.06258  -0.04518  -0.04173
 Alpha virt. eigenvalues --   -0.02854  -0.02101  -0.01647  -0.01238   0.00551
 Alpha virt. eigenvalues --    0.01342   0.01599   0.02059   0.02732   0.02971

 Mulliken charges:
               1
     1  Mg   0.701937
     2  C    0.066226
     3  C   -0.102724
     4  C   -0.057521
     5  C   -0.078634
     6  N   -0.224576
     7  C   -0.060710
     8  C    0.030381
     9  C   -0.054300
    10  C    0.092815
    11  C    0.102537
    12  C    0.095281
    13  C    0.140372
    14  C    0.102112
    15  O   -0.165695
    16  O   -0.294046
    17  N   -0.263811
    18  C    0.129824
    19  C   -0.113573
    20  C    0.018053
    21  C    0.135845
    22  C    0.162274
    23  C   -0.075802
    24  O   -0.183710
    25  C    0.143905
    26  N   -0.216159
    27  C    0.005116
    28  C    0.023488
    29  C    0.082399
    30  C   -0.004538
    31  C    0.110421
    32  C    0.080951
    33  C    0.064358
    34  N   -0.177485
    35  C    0.078789
    36  C   -0.172235
    37  C    0.099930
    38  C   -0.020894
    39  C    0.169725
    40  C   -0.041486
    41  O   -0.125353
    42  C    0.096028
    43  C    0.066259
    44  O   -0.209544
    45  O   -0.269481
    46  C    0.215943
    47  C    0.311806
    48  C   -0.141733
    49  C   -0.156988
    50  C    0.104513
    51  C    0.227338
    52  C    0.011577
    53  C    0.137448
    54  C   -0.110581
    55  C    0.098244
    56  C    0.097618
    57  C    0.062955
    58  C    0.089310
    59  C   -0.066445
    60  C    0.116260
    61  C    0.099154
    62  C    0.097862
    63  C    0.051179
    64  C   -0.094664
    65  C    0.088414
    66  C    0.119128
    67  H   -0.039349
    68  H   -0.033954
    69  H   -0.074334
    70  H    0.003949
    71  H   -0.022052
    72  H    0.020848
    73  H   -0.006895
    74  H   -0.010263
    75  H   -0.034750
    76  H   -0.021888
    77  H   -0.008296
    78  H    0.008624
    79  H   -0.003863
    80  H   -0.000398
    81  H   -0.030693
    82  H   -0.011816
    83  H   -0.010113
    84  H    0.005285
    85  H   -0.026979
    86  H   -0.030416
    87  H   -0.011940
    88  H   -0.000659
    89  H   -0.010054
    90  H   -0.024959
    91  H   -0.035513
    92  H    0.000063
    93  H    0.001438
    94  H   -0.011105
    95  H   -0.022468
    96  H    0.017104
    97  H    0.015794
    98  H   -0.012679
    99  H    0.041441
   100  H    0.018585
   101  H    0.021991
   102  H    0.017403
   103  H    0.025914
   104  H   -0.036331
   105  H   -0.015285
   106  H   -0.008635
   107  H   -0.007296
   108  H   -0.032715
   109  H   -0.040053
   110  H   -0.018698
   111  H   -0.023263
   112  H   -0.037030
   113  H   -0.040770
   114  H   -0.020519
   115  H   -0.012200
   116  H   -0.023383
   117  H   -0.013432
   118  H   -0.030211
   119  H   -0.031084
   120  H   -0.015585
   121  H   -0.025805
   122  H   -0.042844
   123  H   -0.035629
   124  H   -0.036619
   125  H   -0.029932
   126  H   -0.022147
   127  H   -0.018418
   128  H   -0.032496
   129  H   -0.037162
   130  H   -0.038631
   131  H   -0.017407
   132  H   -0.034539
   133  H   -0.034536
   134  H   -0.029905
   135  H   -0.019648
   136  H   -0.012921
   137  H   -0.027991
   138  H   -0.020423
   139  H   -0.012718
   140  H   -0.011825
 Sum of Mulliken charges =  -0.00000

 Dipole moment (field-independent basis, Debye):
    X=              3.4805    Y=              0.6897    Z=             -2.6001  Tot=              4.3988
 Quadrupole moment (field-independent basis, Debye-Ang):
   XX=           -378.1804   YY=           -417.9768   ZZ=           -409.9707
   XY=             14.2136   XZ=             17.7259   YZ=             -5.2221

 Normal termination of Gaussian 16 at Wed May  4 03:44:53 2022.
