 Gaussian 16, Revision A.03,
 Gaussian 16:  ES64L-G16RevA.03 25-Dec-2016

 -----------------------------------
 #p cam-b3lyp/Def2SVP td=(nstates=5)
 -----------------------------------

 --------------------------------------------------------
 step_1301_chromophore_19 TDDFT with cam-b3lyp functional
 --------------------------------------------------------
 Symbolic Z-matrix:
 Charge =  0 Multiplicity = 1

                         Standard orientation:
 ---------------------------------------------------------------------
 Center     Atomic      Atomic             Coordinates (Angstroms)
 Number     Number       Type             X           Y           Z
 ---------------------------------------------------------------------
      1         12           0       -5.856156    0.371075   -0.208593
      2          6           0       -3.556702   -2.229999   -0.227968
      3          6           0       -3.279835    2.621165    0.551937
      4          6           0       -8.156094    2.729620    0.679450
      5          6           0       -8.401836   -1.869207   -0.653690
      6          7           0       -3.713604    0.174693    0.078485
      7          6           0       -2.954743   -0.978279   -0.032617
      8          6           0       -1.472784   -0.668402    0.127204
      9          6           0       -1.457716    0.851274    0.526667
     10          6           0       -2.928357    1.234926    0.406048
     11          6           0       -0.871830    1.265320    1.942370
     12          6           0       -0.601260   -1.027160   -1.110977
     13          6           0        0.655710   -1.808974   -0.797209
     14          6           0        1.638262   -1.025509    0.127529
     15          8           0        1.496464   -0.803299    1.307595
     16          8           0        2.839784   -0.817131   -0.587517
     17          7           0       -5.713570    2.378901    0.451934
     18          6           0       -4.603487    3.159337    0.621819
     19          6           0       -4.934785    4.473501    0.655356
     20          6           0       -6.403989    4.532010    0.811623
     21          6           0       -6.819203    3.129091    0.664008
     22          6           0       -3.969349    5.593398    0.478388
     23          6           0       -7.293018    5.747851    0.840482
     24          8           0       -8.528256    5.707123    0.867352
     25          6           0       -6.702861    7.107609    0.660949
     26          7           0       -7.985770    0.372808    0.099890
     27          6           0       -8.692945    1.490636    0.407322
     28          6           0      -10.170491    1.188665    0.463504
     29          6           0      -10.236337   -0.168026   -0.207347
     30          6           0       -8.789234   -0.611631   -0.328832
     31          6           0      -10.931099    1.149962    1.843491
     32          6           0      -11.111834   -0.186481   -1.453206
     33          6           0      -10.377772   -0.067255   -2.857611
     34          7           0       -6.021693   -1.694091   -0.544732
     35          6           0       -7.075518   -2.483713   -0.633084
     36          6           0       -6.708318   -3.930104   -0.860879
     37          6           0       -5.313865   -3.869494   -0.762615
     38          6           0       -4.993792   -2.491960   -0.456902
     39          6           0       -7.589161   -5.105108   -1.059651
     40          6           0       -4.105200   -4.615570   -0.776262
     41          8           0       -3.874737   -5.814539   -0.851219
     42          6           0       -2.991696   -3.641806   -0.415344
     43          6           0       -2.175023   -4.099443    0.656903
     44          8           0       -2.377845   -3.856360    1.853623
     45          8           0       -1.279739   -4.993243    0.224287
     46          6           0       -0.648622   -5.932737    1.277150
     47          6           0        3.932727   -0.333074    0.303359
     48          6           0        5.261682   -0.481450   -0.558380
     49          6           0        6.518010   -0.843397   -0.169855
     50          6           0        6.817107   -0.854605    1.327455
     51          6           0        7.600283   -1.179815   -1.167337
     52          6           0        8.595215   -0.022403   -1.288166
     53          6           0        8.361202    0.944701   -2.461920
     54          6           0        9.342942    2.106720   -2.429945
     55          6           0        8.599332    3.490614   -2.570872
     56          6           0       10.542357    1.974293   -3.509471
     57          6           0       11.876336    2.391859   -2.824977
     58          6           0       12.917841    1.180336   -2.543242
     59          6           0       13.466588    1.046359   -1.104038
     60          6           0       14.824343    0.380496   -0.998085
     61          6           0       12.418267    0.402734   -0.162214
     62          6           0       12.656098    0.796097    1.316051
     63          6           0       12.896944   -0.468985    2.197657
     64          6           0       11.926304   -0.534281    3.491479
     65          6           0       12.522081    0.258118    4.670140
     66          6           0       11.556654   -1.975263    3.947324
     67          1           0       -2.495038    3.282681    0.927647
     68          1           0       -8.961053    3.467398    0.650232
     69          1           0       -9.244117   -2.529428   -0.869798
     70          1           0       -1.070457   -1.353861    0.872803
     71          1           0       -0.701884    1.376442   -0.057369
     72          1           0       -0.596131    0.258230    2.255278
     73          1           0       -1.626667    1.700624    2.596784
     74          1           0       -0.110167    2.035621    1.821360
     75          1           0       -0.301219   -0.105847   -1.611010
     76          1           0       -1.237116   -1.438080   -1.894975
     77          1           0        1.173615   -2.194461   -1.675802
     78          1           0        0.336645   -2.701857   -0.258708
     79          1           0       -3.891045    6.198416    1.381182
     80          1           0       -4.141350    6.303244   -0.329513
     81          1           0       -2.933936    5.283768    0.333091
     82          1           0       -5.838330    7.248509    1.309956
     83          1           0       -7.421521    7.913185    0.808221
     84          1           0       -6.336703    7.185726   -0.362889
     85          1           0      -10.781308    1.908430   -0.080284
     86          1           0      -10.573116   -0.908179    0.518864
     87          1           0      -11.443998    2.094902    2.021236
     88          1           0      -10.196455    0.974857    2.629317
     89          1           0      -11.778859    0.471407    1.930153
     90          1           0      -11.947478    0.511487   -1.413586
     91          1           0      -11.663863   -1.126296   -1.490055
     92          1           0      -10.282498   -1.055987   -3.306357
     93          1           0       -9.405576    0.406915   -2.722843
     94          1           0      -10.915608    0.594302   -3.537791
     95          1           0       -8.590956   -4.822872   -1.385695
     96          1           0       -7.693271   -5.484357   -0.043571
     97          1           0       -7.301716   -5.850432   -1.801089
     98          1           0       -2.302975   -3.506225   -1.249992
     99          1           0       -1.372485   -6.164308    2.058780
    100          1           0        0.247180   -5.429155    1.639261
    101          1           0       -0.288887   -6.831061    0.774873
    102          1           0        4.235611   -1.055417    1.061354
    103          1           0        3.950080    0.701826    0.646564
    104          1           0        5.093287   -0.556598   -1.632700
    105          1           0        6.075756   -0.435494    2.007264
    106          1           0        7.723192   -0.303437    1.576038
    107          1           0        6.946944   -1.852607    1.744129
    108          1           0        7.148687   -1.525716   -2.096992
    109          1           0        8.087779   -2.074582   -0.782661
    110          1           0        9.627558   -0.358382   -1.390552
    111          1           0        8.664746    0.602463   -0.398142
    112          1           0        7.333426    1.302049   -2.515134
    113          1           0        8.534113    0.330905   -3.345770
    114          1           0        9.828763    2.165035   -1.456557
    115          1           0        7.583121    3.474721   -2.966932
    116          1           0        9.133852    4.129948   -3.273346
    117          1           0        8.597213    3.918762   -1.568945
    118          1           0       10.310165    2.596228   -4.373280
    119          1           0       10.625939    0.941460   -3.847309
    120          1           0       11.654586    2.820340   -1.847297
    121          1           0       12.292332    3.117185   -3.524190
    122          1           0       13.732029    1.306887   -3.256657
    123          1           0       12.516809    0.210535   -2.837965
    124          1           0       13.635156    2.071380   -0.775843
    125          1           0       14.810227   -0.532889   -0.403842
    126          1           0       15.569664    0.928616   -0.420444
    127          1           0       15.239241    0.142565   -1.977662
    128          1           0       12.404969   -0.687588   -0.157136
    129          1           0       11.432352    0.698667   -0.519773
    130          1           0       11.730707    1.154669    1.766708
    131          1           0       13.468319    1.506568    1.470536
    132          1           0       13.965960   -0.461832    2.413386
    133          1           0       12.828337   -1.420140    1.669468
    134          1           0       10.996287   -0.026111    3.236847
    135          1           0       12.392767    1.339875    4.634919
    136          1           0       13.561803   -0.012356    4.852615
    137          1           0       12.019474    0.061985    5.617275
    138          1           0       11.776337   -2.016251    5.014430
    139          1           0       12.137913   -2.708576    3.390534
    140          1           0       10.488620   -2.123267    3.782627
 ---------------------------------------------------------------------

 SCF Done:  E(RCAM-B3LYP) =  -3007.14919831     A.U. after   19 cycles

 Excitation energies and oscillator strengths:

 Excited State   1:      Singlet-A      1.6525 eV  750.30 nm  f=0.4094  <S**2>=0.000
     245 -> 248        0.16895
     246 -> 247        0.68948
     245 <- 248        0.10649
 This state for optimization and/or second-order correction.
 Total Energy, E(TD-HF/TD-DFT) =  -3007.08847166
 Copying the excited state density for this state as the 1-particle RhoCI density.

 Excited State   2:      Singlet-A      2.1430 eV  578.55 nm  f=0.1822  <S**2>=0.000
     245 -> 247        0.66342
     246 -> 248       -0.23087

 Excited State   3:      Singlet-A      3.0678 eV  404.14 nm  f=0.0131  <S**2>=0.000
     244 -> 247        0.69091

 Excited State   4:      Singlet-A      3.3644 eV  368.52 nm  f=0.0004  <S**2>=0.000
     242 -> 247        0.58909
     242 -> 248       -0.12793
     242 -> 249       -0.22906
     242 -> 251       -0.19849

 Excited State   5:      Singlet-A      3.5270 eV  351.53 nm  f=0.0002  <S**2>=0.000
     239 -> 247        0.38474
     239 -> 249        0.27538
     239 -> 251       -0.11356
     240 -> 247        0.20266
     240 -> 249        0.11266
     241 -> 247        0.39938
     241 -> 249        0.10359

 The electronic state is 1-A.
 Alpha  occ. eigenvalues --  -46.89141 -19.26064 -19.24725 -19.21822 -19.18639
 Alpha  occ. eigenvalues --  -19.18261 -19.17705 -14.42471 -14.41291 -14.39797
 Alpha  occ. eigenvalues --  -14.38894 -10.40682 -10.38048 -10.34742 -10.34249
 Alpha  occ. eigenvalues --  -10.32921 -10.32326 -10.31345 -10.31230 -10.30275
 Alpha  occ. eigenvalues --  -10.30132 -10.29792 -10.29735 -10.29162 -10.28941
 Alpha  occ. eigenvalues --  -10.28808 -10.28267 -10.28238 -10.27736 -10.27649
 Alpha  occ. eigenvalues --  -10.27458 -10.27453 -10.27378 -10.27363 -10.27159
 Alpha  occ. eigenvalues --  -10.26755 -10.26730 -10.26642 -10.26402 -10.26385
 Alpha  occ. eigenvalues --  -10.26349 -10.26257 -10.26247 -10.26196 -10.26067
 Alpha  occ. eigenvalues --  -10.25885 -10.25855 -10.25565 -10.25538 -10.25475
 Alpha  occ. eigenvalues --  -10.25451 -10.25429 -10.25308 -10.25213 -10.25180
 Alpha  occ. eigenvalues --  -10.25128 -10.25113 -10.25026 -10.24926 -10.24880
 Alpha  occ. eigenvalues --  -10.24765 -10.24653 -10.24585 -10.24477 -10.24429
 Alpha  occ. eigenvalues --  -10.24336  -3.17597  -1.92503  -1.92018  -1.91927
 Alpha  occ. eigenvalues --   -1.16511  -1.15566  -1.09699  -1.08881  -1.08479
 Alpha  occ. eigenvalues --   -1.06091  -1.05719  -1.04255  -1.03546  -1.02740
 Alpha  occ. eigenvalues --   -0.92691  -0.90474  -0.89910  -0.89488  -0.89110
 Alpha  occ. eigenvalues --   -0.88505  -0.88122  -0.87524  -0.87088  -0.87067
 Alpha  occ. eigenvalues --   -0.86255  -0.85140  -0.84164  -0.83571  -0.82885
 Alpha  occ. eigenvalues --   -0.82287  -0.81723  -0.81186  -0.80744  -0.80070
 Alpha  occ. eigenvalues --   -0.79575  -0.78220  -0.77558  -0.77207  -0.76379
 Alpha  occ. eigenvalues --   -0.76231  -0.75327  -0.75326  -0.74977  -0.73917
 Alpha  occ. eigenvalues --   -0.73438  -0.72795  -0.71196  -0.70636  -0.70162
 Alpha  occ. eigenvalues --   -0.69343  -0.67965  -0.67305  -0.66630  -0.65256
 Alpha  occ. eigenvalues --   -0.65161  -0.65120  -0.64560  -0.64263  -0.63969
 Alpha  occ. eigenvalues --   -0.63779  -0.63729  -0.63260  -0.61360  -0.60415
 Alpha  occ. eigenvalues --   -0.60163  -0.59585  -0.59240  -0.58807  -0.58074
 Alpha  occ. eigenvalues --   -0.57217  -0.56706  -0.56235  -0.56132  -0.55933
 Alpha  occ. eigenvalues --   -0.55336  -0.55247  -0.54830  -0.54118  -0.53599
 Alpha  occ. eigenvalues --   -0.53416  -0.53326  -0.52793  -0.52648  -0.52563
 Alpha  occ. eigenvalues --   -0.52393  -0.52187  -0.51962  -0.51878  -0.51574
 Alpha  occ. eigenvalues --   -0.51484  -0.51331  -0.50774  -0.50476  -0.50374
 Alpha  occ. eigenvalues --   -0.50144  -0.49917  -0.49787  -0.49636  -0.49501
 Alpha  occ. eigenvalues --   -0.49362  -0.49222  -0.49097  -0.48818  -0.48599
 Alpha  occ. eigenvalues --   -0.48413  -0.48236  -0.48165  -0.48048  -0.47599
 Alpha  occ. eigenvalues --   -0.47407  -0.47213  -0.47145  -0.46971  -0.46791
 Alpha  occ. eigenvalues --   -0.46601  -0.46185  -0.45961  -0.45915  -0.45833
 Alpha  occ. eigenvalues --   -0.45459  -0.45225  -0.45141  -0.45056  -0.44823
 Alpha  occ. eigenvalues --   -0.44607  -0.44330  -0.44212  -0.44032  -0.43909
 Alpha  occ. eigenvalues --   -0.43711  -0.43560  -0.43473  -0.43240  -0.42913
 Alpha  occ. eigenvalues --   -0.42847  -0.42650  -0.42365  -0.41987  -0.41637
 Alpha  occ. eigenvalues --   -0.41298  -0.41183  -0.40951  -0.40937  -0.40667
 Alpha  occ. eigenvalues --   -0.40627  -0.40611  -0.40326  -0.40312  -0.40109
 Alpha  occ. eigenvalues --   -0.39676  -0.39411  -0.39038  -0.38806  -0.38620
 Alpha  occ. eigenvalues --   -0.38260  -0.38134  -0.38095  -0.38072  -0.37584
 Alpha  occ. eigenvalues --   -0.37535  -0.37050  -0.36609  -0.36595  -0.36258
 Alpha  occ. eigenvalues --   -0.36204  -0.36054  -0.35206  -0.34969  -0.34718
 Alpha  occ. eigenvalues --   -0.34357  -0.33135  -0.32475  -0.31145  -0.30699
 Alpha  occ. eigenvalues --   -0.30376  -0.30071  -0.29896  -0.28897  -0.23654
 Alpha  occ. eigenvalues --   -0.21122
 Alpha virt. eigenvalues --   -0.09094  -0.00957   0.00183   0.02021   0.02617
 Alpha virt. eigenvalues --    0.03460   0.05532   0.05718   0.05953   0.07281
 Alpha virt. eigenvalues --    0.07351   0.08329   0.08918   0.09294   0.09358

 Mulliken charges:
               1
     1  Mg   0.834061
     2  C    0.048273
     3  C   -0.103262
     4  C   -0.071251
     5  C   -0.080235
     6  N   -0.297280
     7  C   -0.020098
     8  C   -0.021751
     9  C   -0.101043
    10  C    0.105428
    11  C    0.047163
    12  C    0.038486
    13  C    0.073727
    14  C    0.179470
    15  O   -0.205518
    16  O   -0.359078
    17  N   -0.353198
    18  C    0.134163
    19  C   -0.119721
    20  C   -0.046727
    21  C    0.159695
    22  C    0.098227
    23  C    0.002876
    24  O   -0.225122
    25  C    0.061336
    26  N   -0.289462
    27  C    0.024104
    28  C   -0.033343
    29  C    0.020602
    30  C    0.013123
    31  C    0.055607
    32  C    0.024726
    33  C    0.005397
    34  N   -0.264575
    35  C    0.078320
    36  C   -0.166150
    37  C    0.019508
    38  C    0.010510
    39  C    0.119451
    40  C    0.059779
    41  O   -0.164126
    42  C    0.011112
    43  C    0.154396
    44  O   -0.246411
    45  O   -0.334347
    46  C    0.181645
    47  C    0.281420
    48  C   -0.154591
    49  C   -0.182951
    50  C    0.044559
    51  C    0.162579
    52  C   -0.039395
    53  C    0.089534
    54  C   -0.167715
    55  C    0.044157
    56  C    0.048222
    57  C    0.008571
    58  C    0.038275
    59  C   -0.124346
    60  C    0.056104
    61  C    0.054022
    62  C    0.042362
    63  C    0.001615
    64  C   -0.153557
    65  C    0.029580
    66  C    0.059701
    67  H   -0.007214
    68  H    0.006709
    69  H   -0.040241
    70  H    0.037282
    71  H    0.011781
    72  H    0.045472
    73  H    0.018638
    74  H    0.012762
    75  H   -0.002141
    76  H    0.011021
    77  H    0.029843
    78  H    0.035579
    79  H    0.023449
    80  H    0.027171
    81  H    0.000820
    82  H    0.015439
    83  H    0.026227
    84  H    0.032825
    85  H    0.008380
    86  H    0.007498
    87  H    0.012298
    88  H    0.024270
    89  H    0.014601
    90  H    0.003857
    91  H   -0.006276
    92  H    0.022404
    93  H    0.021697
    94  H    0.013323
    95  H    0.002403
    96  H    0.043260
    97  H    0.041973
    98  H    0.030245
    99  H    0.065854
   100  H    0.040002
   101  H    0.045719
   102  H    0.043397
   103  H    0.051301
   104  H   -0.004064
   105  H    0.009684
   106  H    0.013875
   107  H    0.017608
   108  H   -0.000376
   109  H   -0.007303
   110  H    0.006127
   111  H    0.001069
   112  H   -0.008671
   113  H   -0.012525
   114  H    0.006868
   115  H    0.011441
   116  H    0.000052
   117  H    0.009863
   118  H   -0.001350
   119  H   -0.003585
   120  H    0.009469
   121  H    0.003783
   122  H   -0.012019
   123  H   -0.008988
   124  H   -0.004436
   125  H   -0.006298
   126  H    0.002878
   127  H    0.007131
   128  H   -0.004751
   129  H   -0.016996
   130  H   -0.009908
   131  H    0.009946
   132  H   -0.007118
   133  H   -0.007590
   134  H   -0.000539
   135  H    0.004805
   136  H    0.010306
   137  H   -0.002975
   138  H    0.004463
   139  H    0.010624
   140  H    0.011243
 Sum of Mulliken charges =  -0.00000

 Dipole moment (field-independent basis, Debye):
    X=              3.5886    Y=              1.2190    Z=             -2.6397  Tot=              4.6187
 Quadrupole moment (field-independent basis, Debye-Ang):
   XX=           -376.8653   YY=           -412.5978   ZZ=           -409.9619
   XY=             10.8108   XZ=             18.5318   YZ=             -4.8789

 Normal termination of Gaussian 16 at Wed May  4 02:46:00 2022.
