 Gaussian 16, Revision A.03,
 Gaussian 16:  ES64L-G16RevA.03 25-Dec-2016

 ---------------------------------
 #p PBE1PBE/Def2SVP td=(nstates=5)
 ---------------------------------

 ------------------------------------------------------
 step_1301_chromophore_19 TDDFT with PBE1PBE functional
 ------------------------------------------------------
 Symbolic Z-matrix:
 Charge =  0 Multiplicity = 1

                         Standard orientation:
 ---------------------------------------------------------------------
 Center     Atomic      Atomic             Coordinates (Angstroms)
 Number     Number       Type             X           Y           Z
 ---------------------------------------------------------------------
      1         12           0       -5.856156    0.371075   -0.208593
      2          6           0       -3.556702   -2.229999   -0.227968
      3          6           0       -3.279835    2.621165    0.551937
      4          6           0       -8.156094    2.729620    0.679450
      5          6           0       -8.401836   -1.869207   -0.653690
      6          7           0       -3.713604    0.174693    0.078485
      7          6           0       -2.954743   -0.978279   -0.032617
      8          6           0       -1.472784   -0.668402    0.127204
      9          6           0       -1.457716    0.851274    0.526667
     10          6           0       -2.928357    1.234926    0.406048
     11          6           0       -0.871830    1.265320    1.942370
     12          6           0       -0.601260   -1.027160   -1.110977
     13          6           0        0.655710   -1.808974   -0.797209
     14          6           0        1.638262   -1.025509    0.127529
     15          8           0        1.496464   -0.803299    1.307595
     16          8           0        2.839784   -0.817131   -0.587517
     17          7           0       -5.713570    2.378901    0.451934
     18          6           0       -4.603487    3.159337    0.621819
     19          6           0       -4.934785    4.473501    0.655356
     20          6           0       -6.403989    4.532010    0.811623
     21          6           0       -6.819203    3.129091    0.664008
     22          6           0       -3.969349    5.593398    0.478388
     23          6           0       -7.293018    5.747851    0.840482
     24          8           0       -8.528256    5.707123    0.867352
     25          6           0       -6.702861    7.107609    0.660949
     26          7           0       -7.985770    0.372808    0.099890
     27          6           0       -8.692945    1.490636    0.407322
     28          6           0      -10.170491    1.188665    0.463504
     29          6           0      -10.236337   -0.168026   -0.207347
     30          6           0       -8.789234   -0.611631   -0.328832
     31          6           0      -10.931099    1.149962    1.843491
     32          6           0      -11.111834   -0.186481   -1.453206
     33          6           0      -10.377772   -0.067255   -2.857611
     34          7           0       -6.021693   -1.694091   -0.544732
     35          6           0       -7.075518   -2.483713   -0.633084
     36          6           0       -6.708318   -3.930104   -0.860879
     37          6           0       -5.313865   -3.869494   -0.762615
     38          6           0       -4.993792   -2.491960   -0.456902
     39          6           0       -7.589161   -5.105108   -1.059651
     40          6           0       -4.105200   -4.615570   -0.776262
     41          8           0       -3.874737   -5.814539   -0.851219
     42          6           0       -2.991696   -3.641806   -0.415344
     43          6           0       -2.175023   -4.099443    0.656903
     44          8           0       -2.377845   -3.856360    1.853623
     45          8           0       -1.279739   -4.993243    0.224287
     46          6           0       -0.648622   -5.932737    1.277150
     47          6           0        3.932727   -0.333074    0.303359
     48          6           0        5.261682   -0.481450   -0.558380
     49          6           0        6.518010   -0.843397   -0.169855
     50          6           0        6.817107   -0.854605    1.327455
     51          6           0        7.600283   -1.179815   -1.167337
     52          6           0        8.595215   -0.022403   -1.288166
     53          6           0        8.361202    0.944701   -2.461920
     54          6           0        9.342942    2.106720   -2.429945
     55          6           0        8.599332    3.490614   -2.570872
     56          6           0       10.542357    1.974293   -3.509471
     57          6           0       11.876336    2.391859   -2.824977
     58          6           0       12.917841    1.180336   -2.543242
     59          6           0       13.466588    1.046359   -1.104038
     60          6           0       14.824343    0.380496   -0.998085
     61          6           0       12.418267    0.402734   -0.162214
     62          6           0       12.656098    0.796097    1.316051
     63          6           0       12.896944   -0.468985    2.197657
     64          6           0       11.926304   -0.534281    3.491479
     65          6           0       12.522081    0.258118    4.670140
     66          6           0       11.556654   -1.975263    3.947324
     67          1           0       -2.495038    3.282681    0.927647
     68          1           0       -8.961053    3.467398    0.650232
     69          1           0       -9.244117   -2.529428   -0.869798
     70          1           0       -1.070457   -1.353861    0.872803
     71          1           0       -0.701884    1.376442   -0.057369
     72          1           0       -0.596131    0.258230    2.255278
     73          1           0       -1.626667    1.700624    2.596784
     74          1           0       -0.110167    2.035621    1.821360
     75          1           0       -0.301219   -0.105847   -1.611010
     76          1           0       -1.237116   -1.438080   -1.894975
     77          1           0        1.173615   -2.194461   -1.675802
     78          1           0        0.336645   -2.701857   -0.258708
     79          1           0       -3.891045    6.198416    1.381182
     80          1           0       -4.141350    6.303244   -0.329513
     81          1           0       -2.933936    5.283768    0.333091
     82          1           0       -5.838330    7.248509    1.309956
     83          1           0       -7.421521    7.913185    0.808221
     84          1           0       -6.336703    7.185726   -0.362889
     85          1           0      -10.781308    1.908430   -0.080284
     86          1           0      -10.573116   -0.908179    0.518864
     87          1           0      -11.443998    2.094902    2.021236
     88          1           0      -10.196455    0.974857    2.629317
     89          1           0      -11.778859    0.471407    1.930153
     90          1           0      -11.947478    0.511487   -1.413586
     91          1           0      -11.663863   -1.126296   -1.490055
     92          1           0      -10.282498   -1.055987   -3.306357
     93          1           0       -9.405576    0.406915   -2.722843
     94          1           0      -10.915608    0.594302   -3.537791
     95          1           0       -8.590956   -4.822872   -1.385695
     96          1           0       -7.693271   -5.484357   -0.043571
     97          1           0       -7.301716   -5.850432   -1.801089
     98          1           0       -2.302975   -3.506225   -1.249992
     99          1           0       -1.372485   -6.164308    2.058780
    100          1           0        0.247180   -5.429155    1.639261
    101          1           0       -0.288887   -6.831061    0.774873
    102          1           0        4.235611   -1.055417    1.061354
    103          1           0        3.950080    0.701826    0.646564
    104          1           0        5.093287   -0.556598   -1.632700
    105          1           0        6.075756   -0.435494    2.007264
    106          1           0        7.723192   -0.303437    1.576038
    107          1           0        6.946944   -1.852607    1.744129
    108          1           0        7.148687   -1.525716   -2.096992
    109          1           0        8.087779   -2.074582   -0.782661
    110          1           0        9.627558   -0.358382   -1.390552
    111          1           0        8.664746    0.602463   -0.398142
    112          1           0        7.333426    1.302049   -2.515134
    113          1           0        8.534113    0.330905   -3.345770
    114          1           0        9.828763    2.165035   -1.456557
    115          1           0        7.583121    3.474721   -2.966932
    116          1           0        9.133852    4.129948   -3.273346
    117          1           0        8.597213    3.918762   -1.568945
    118          1           0       10.310165    2.596228   -4.373280
    119          1           0       10.625939    0.941460   -3.847309
    120          1           0       11.654586    2.820340   -1.847297
    121          1           0       12.292332    3.117185   -3.524190
    122          1           0       13.732029    1.306887   -3.256657
    123          1           0       12.516809    0.210535   -2.837965
    124          1           0       13.635156    2.071380   -0.775843
    125          1           0       14.810227   -0.532889   -0.403842
    126          1           0       15.569664    0.928616   -0.420444
    127          1           0       15.239241    0.142565   -1.977662
    128          1           0       12.404969   -0.687588   -0.157136
    129          1           0       11.432352    0.698667   -0.519773
    130          1           0       11.730707    1.154669    1.766708
    131          1           0       13.468319    1.506568    1.470536
    132          1           0       13.965960   -0.461832    2.413386
    133          1           0       12.828337   -1.420140    1.669468
    134          1           0       10.996287   -0.026111    3.236847
    135          1           0       12.392767    1.339875    4.634919
    136          1           0       13.561803   -0.012356    4.852615
    137          1           0       12.019474    0.061985    5.617275
    138          1           0       11.776337   -2.016251    5.014430
    139          1           0       12.137913   -2.708576    3.390534
    140          1           0       10.488620   -2.123267    3.782627
 ---------------------------------------------------------------------

 SCF Done:  E(RPBE1PBE) =  -3005.33900694     A.U. after   16 cycles

 Excitation energies and oscillator strengths:

 Excited State   1:      Singlet-A      1.8053 eV  686.78 nm  f=0.3850  <S**2>=0.000
     245 -> 248        0.16447
     246 -> 247        0.69719
     246 <- 247       -0.11925
 This state for optimization and/or second-order correction.
 Total Energy, E(TD-HF/TD-DFT) =  -3005.27266356
 Copying the excited state density for this state as the 1-particle RhoCI density.

 Excited State   2:      Singlet-A      2.1539 eV  575.64 nm  f=0.1695  <S**2>=0.000
     245 -> 247        0.66958
     246 -> 248       -0.21109

 Excited State   3:      Singlet-A      2.7633 eV  448.69 nm  f=0.0009  <S**2>=0.000
     243 -> 247        0.61665
     243 -> 249       -0.11259
     244 -> 247       -0.30027

 Excited State   4:      Singlet-A      2.7804 eV  445.92 nm  f=0.0144  <S**2>=0.000
     243 -> 247        0.29656
     244 -> 247        0.62930

 Excited State   5:      Singlet-A      3.0320 eV  408.92 nm  f=0.0005  <S**2>=0.000
     239 -> 247       -0.12257
     240 -> 247       -0.18575
     241 -> 247        0.63655
     241 -> 249        0.15753

 The electronic state is 1-A.
 Alpha  occ. eigenvalues --  -46.92539 -19.26800 -19.25373 -19.22074 -19.18920
 Alpha  occ. eigenvalues --  -19.18512 -19.17857 -14.41962 -14.40809 -14.39410
 Alpha  occ. eigenvalues --  -14.38529 -10.37753 -10.35020 -10.31886 -10.31280
 Alpha  occ. eigenvalues --  -10.30370 -10.29545 -10.29046 -10.29015 -10.28141
 Alpha  occ. eigenvalues --  -10.27752 -10.27515 -10.27352 -10.26990 -10.26588
 Alpha  occ. eigenvalues --  -10.26494 -10.26085 -10.25772 -10.25506 -10.25292
 Alpha  occ. eigenvalues --  -10.25256 -10.25102 -10.25054 -10.25014 -10.24777
 Alpha  occ. eigenvalues --  -10.24557 -10.24403 -10.24194 -10.24091 -10.23995
 Alpha  occ. eigenvalues --  -10.23908 -10.23887 -10.23880 -10.23797 -10.23614
 Alpha  occ. eigenvalues --  -10.23487 -10.23472 -10.23229 -10.23120 -10.23061
 Alpha  occ. eigenvalues --  -10.23032 -10.22987 -10.22909 -10.22795 -10.22729
 Alpha  occ. eigenvalues --  -10.22704 -10.22631 -10.22457 -10.22432 -10.22412
 Alpha  occ. eigenvalues --  -10.22335 -10.22051 -10.22028 -10.22000 -10.21818
 Alpha  occ. eigenvalues --  -10.21712  -3.14577  -1.87423  -1.86917  -1.86828
 Alpha  occ. eigenvalues --   -1.11305  -1.10325  -1.04483  -1.03776  -1.03121
 Alpha  occ. eigenvalues --   -1.00903  -1.00532  -0.98887  -0.98143  -0.97365
 Alpha  occ. eigenvalues --   -0.87073  -0.84598  -0.84123  -0.83573  -0.83409
 Alpha  occ. eigenvalues --   -0.82830  -0.82239  -0.81894  -0.81384  -0.81172
 Alpha  occ. eigenvalues --   -0.80507  -0.79401  -0.78373  -0.77855  -0.77136
 Alpha  occ. eigenvalues --   -0.76458  -0.75942  -0.75424  -0.74951  -0.74336
 Alpha  occ. eigenvalues --   -0.73778  -0.72524  -0.71817  -0.71502  -0.70626
 Alpha  occ. eigenvalues --   -0.70439  -0.69670  -0.69421  -0.69102  -0.68098
 Alpha  occ. eigenvalues --   -0.67886  -0.67116  -0.65620  -0.64939  -0.64637
 Alpha  occ. eigenvalues --   -0.63774  -0.62217  -0.61708  -0.60845  -0.59719
 Alpha  occ. eigenvalues --   -0.59663  -0.59359  -0.59083  -0.58818  -0.58329
 Alpha  occ. eigenvalues --   -0.58098  -0.57901  -0.57433  -0.55971  -0.54920
 Alpha  occ. eigenvalues --   -0.54698  -0.54090  -0.53772  -0.53421  -0.52485
 Alpha  occ. eigenvalues --   -0.51831  -0.51196  -0.50874  -0.50654  -0.50376
 Alpha  occ. eigenvalues --   -0.49838  -0.49779  -0.49391  -0.48607  -0.48128
 Alpha  occ. eigenvalues --   -0.47907  -0.47755  -0.47420  -0.47201  -0.47125
 Alpha  occ. eigenvalues --   -0.46876  -0.46680  -0.46427  -0.46189  -0.46104
 Alpha  occ. eigenvalues --   -0.46047  -0.45859  -0.45314  -0.45127  -0.44963
 Alpha  occ. eigenvalues --   -0.44731  -0.44534  -0.44405  -0.44205  -0.44068
 Alpha  occ. eigenvalues --   -0.43914  -0.43804  -0.43600  -0.43410  -0.43213
 Alpha  occ. eigenvalues --   -0.43023  -0.42827  -0.42779  -0.42714  -0.42233
 Alpha  occ. eigenvalues --   -0.42095  -0.41839  -0.41783  -0.41617  -0.41385
 Alpha  occ. eigenvalues --   -0.41262  -0.40918  -0.40675  -0.40550  -0.40464
 Alpha  occ. eigenvalues --   -0.40189  -0.39943  -0.39850  -0.39817  -0.39560
 Alpha  occ. eigenvalues --   -0.39377  -0.39083  -0.39044  -0.38762  -0.38634
 Alpha  occ. eigenvalues --   -0.38491  -0.38451  -0.38295  -0.37993  -0.37714
 Alpha  occ. eigenvalues --   -0.37537  -0.37352  -0.37159  -0.36807  -0.36452
 Alpha  occ. eigenvalues --   -0.36081  -0.36027  -0.35798  -0.35719  -0.35486
 Alpha  occ. eigenvalues --   -0.35417  -0.35327  -0.35290  -0.35124  -0.34995
 Alpha  occ. eigenvalues --   -0.34497  -0.34366  -0.34023  -0.33644  -0.33439
 Alpha  occ. eigenvalues --   -0.33114  -0.33080  -0.33065  -0.32875  -0.32559
 Alpha  occ. eigenvalues --   -0.32354  -0.31878  -0.31682  -0.31444  -0.31200
 Alpha  occ. eigenvalues --   -0.31105  -0.31031  -0.30205  -0.29920  -0.29672
 Alpha  occ. eigenvalues --   -0.29571  -0.28334  -0.27663  -0.26492  -0.26142
 Alpha  occ. eigenvalues --   -0.25795  -0.25192  -0.24748  -0.24464  -0.20628
 Alpha  occ. eigenvalues --   -0.18720
 Alpha virt. eigenvalues --   -0.11436  -0.04550  -0.04015  -0.01853  -0.01116
 Alpha virt. eigenvalues --   -0.00596   0.00933   0.01420   0.01574   0.03569
 Alpha virt. eigenvalues --    0.04116   0.04538   0.04985   0.05533   0.05968

 Mulliken charges:
               1
     1  Mg   0.978821
     2  C    0.042147
     3  C   -0.082173
     4  C   -0.048397
     5  C   -0.067031
     6  N   -0.407092
     7  C    0.043471
     8  C   -0.088263
     9  C   -0.166922
    10  C    0.133314
    11  C   -0.009950
    12  C   -0.004659
    13  C   -0.016770
    14  C    0.247169
    15  O   -0.237487
    16  O   -0.387480
    17  N   -0.469046
    18  C    0.152801
    19  C   -0.148651
    20  C   -0.089207
    21  C    0.181870
    22  C    0.041136
    23  C    0.047602
    24  O   -0.262669
    25  C   -0.012991
    26  N   -0.398354
    27  C    0.057174
    28  C   -0.107045
    29  C   -0.058168
    30  C    0.051673
    31  C   -0.001636
    32  C   -0.035319
    33  C   -0.069612
    34  N   -0.390586
    35  C    0.097236
    36  C   -0.180477
    37  C   -0.025302
    38  C    0.061096
    39  C    0.068644
    40  C    0.151269
    41  O   -0.210794
    42  C   -0.097817
    43  C    0.246559
    44  O   -0.281544
    45  O   -0.366414
    46  C    0.126303
    47  C    0.232831
    48  C   -0.154305
    49  C   -0.234288
    50  C   -0.013249
    51  C    0.098760
    52  C   -0.113489
    53  C    0.041852
    54  C   -0.256456
    55  C   -0.011238
    56  C   -0.002321
    57  C   -0.058070
    58  C   -0.013383
    59  C   -0.215443
    60  C    0.001714
    61  C   -0.013548
    62  C   -0.019743
    63  C   -0.045381
    64  C   -0.249421
    65  C   -0.029966
    66  C   -0.001472
    67  H    0.022046
    68  H    0.037072
    69  H   -0.007245
    70  H    0.075146
    71  H    0.047487
    72  H    0.073989
    73  H    0.047508
    74  H    0.039122
    75  H    0.031407
    76  H    0.042941
    77  H    0.061336
    78  H    0.074201
    79  H    0.050984
    80  H    0.053965
    81  H    0.027618
    82  H    0.042431
    83  H    0.053495
    84  H    0.060121
    85  H    0.045409
    86  H    0.046099
    87  H    0.039667
    88  H    0.052611
    89  H    0.041226
    90  H    0.035844
    91  H    0.026494
    92  H    0.049397
    93  H    0.052587
    94  H    0.041737
    95  H    0.030099
    96  H    0.071885
    97  H    0.068137
    98  H    0.070822
    99  H    0.085843
   100  H    0.061214
   101  H    0.066737
   102  H    0.071485
   103  H    0.077646
   104  H    0.025882
   105  H    0.035825
   106  H    0.040831
   107  H    0.045302
   108  H    0.030045
   109  H    0.026862
   110  H    0.042005
   111  H    0.035004
   112  H    0.023627
   113  H    0.020904
   114  H    0.043709
   115  H    0.037702
   116  H    0.027277
   117  H    0.037293
   118  H    0.030476
   119  H    0.028332
   120  H    0.042085
   121  H    0.036441
   122  H    0.021051
   123  H    0.023109
   124  H    0.034618
   125  H    0.022013
   126  H    0.029556
   127  H    0.033881
   128  H    0.027628
   129  H    0.027677
   130  H    0.024225
   131  H    0.040710
   132  H    0.024786
   133  H    0.022599
   134  H    0.037011
   135  H    0.032448
   136  H    0.038040
   137  H    0.024908
   138  H    0.031855
   139  H    0.037609
   140  H    0.038300
 Sum of Mulliken charges =  -0.00000

 Dipole moment (field-independent basis, Debye):
    X=              3.5603    Y=              1.0233    Z=             -2.6915  Tot=              4.5790
 Quadrupole moment (field-independent basis, Debye-Ang):
   XX=           -370.0658   YY=           -410.3924   ZZ=           -407.3165
   XY=             12.5865   XZ=             19.1147   YZ=             -4.9052

 Normal termination of Gaussian 16 at Wed May  4 03:02:26 2022.
