 Gaussian 16, Revision A.03,
 Gaussian 16:  ES64L-G16RevA.03 25-Dec-2016

 --------------------------------
 #p wB97XD/Def2SVP td=(nstates=5)
 --------------------------------

 -----------------------------------------------------
 step_1301_chromophore_19 TDDFT with wB97XD functional
 -----------------------------------------------------
 Symbolic Z-matrix:
 Charge =  0 Multiplicity = 1

                         Standard orientation:
 ---------------------------------------------------------------------
 Center     Atomic      Atomic             Coordinates (Angstroms)
 Number     Number       Type             X           Y           Z
 ---------------------------------------------------------------------
      1         12           0       -5.856156    0.371075   -0.208593
      2          6           0       -3.556702   -2.229999   -0.227968
      3          6           0       -3.279835    2.621165    0.551937
      4          6           0       -8.156094    2.729620    0.679450
      5          6           0       -8.401836   -1.869207   -0.653690
      6          7           0       -3.713604    0.174693    0.078485
      7          6           0       -2.954743   -0.978279   -0.032617
      8          6           0       -1.472784   -0.668402    0.127204
      9          6           0       -1.457716    0.851274    0.526667
     10          6           0       -2.928357    1.234926    0.406048
     11          6           0       -0.871830    1.265320    1.942370
     12          6           0       -0.601260   -1.027160   -1.110977
     13          6           0        0.655710   -1.808974   -0.797209
     14          6           0        1.638262   -1.025509    0.127529
     15          8           0        1.496464   -0.803299    1.307595
     16          8           0        2.839784   -0.817131   -0.587517
     17          7           0       -5.713570    2.378901    0.451934
     18          6           0       -4.603487    3.159337    0.621819
     19          6           0       -4.934785    4.473501    0.655356
     20          6           0       -6.403989    4.532010    0.811623
     21          6           0       -6.819203    3.129091    0.664008
     22          6           0       -3.969349    5.593398    0.478388
     23          6           0       -7.293018    5.747851    0.840482
     24          8           0       -8.528256    5.707123    0.867352
     25          6           0       -6.702861    7.107609    0.660949
     26          7           0       -7.985770    0.372808    0.099890
     27          6           0       -8.692945    1.490636    0.407322
     28          6           0      -10.170491    1.188665    0.463504
     29          6           0      -10.236337   -0.168026   -0.207347
     30          6           0       -8.789234   -0.611631   -0.328832
     31          6           0      -10.931099    1.149962    1.843491
     32          6           0      -11.111834   -0.186481   -1.453206
     33          6           0      -10.377772   -0.067255   -2.857611
     34          7           0       -6.021693   -1.694091   -0.544732
     35          6           0       -7.075518   -2.483713   -0.633084
     36          6           0       -6.708318   -3.930104   -0.860879
     37          6           0       -5.313865   -3.869494   -0.762615
     38          6           0       -4.993792   -2.491960   -0.456902
     39          6           0       -7.589161   -5.105108   -1.059651
     40          6           0       -4.105200   -4.615570   -0.776262
     41          8           0       -3.874737   -5.814539   -0.851219
     42          6           0       -2.991696   -3.641806   -0.415344
     43          6           0       -2.175023   -4.099443    0.656903
     44          8           0       -2.377845   -3.856360    1.853623
     45          8           0       -1.279739   -4.993243    0.224287
     46          6           0       -0.648622   -5.932737    1.277150
     47          6           0        3.932727   -0.333074    0.303359
     48          6           0        5.261682   -0.481450   -0.558380
     49          6           0        6.518010   -0.843397   -0.169855
     50          6           0        6.817107   -0.854605    1.327455
     51          6           0        7.600283   -1.179815   -1.167337
     52          6           0        8.595215   -0.022403   -1.288166
     53          6           0        8.361202    0.944701   -2.461920
     54          6           0        9.342942    2.106720   -2.429945
     55          6           0        8.599332    3.490614   -2.570872
     56          6           0       10.542357    1.974293   -3.509471
     57          6           0       11.876336    2.391859   -2.824977
     58          6           0       12.917841    1.180336   -2.543242
     59          6           0       13.466588    1.046359   -1.104038
     60          6           0       14.824343    0.380496   -0.998085
     61          6           0       12.418267    0.402734   -0.162214
     62          6           0       12.656098    0.796097    1.316051
     63          6           0       12.896944   -0.468985    2.197657
     64          6           0       11.926304   -0.534281    3.491479
     65          6           0       12.522081    0.258118    4.670140
     66          6           0       11.556654   -1.975263    3.947324
     67          1           0       -2.495038    3.282681    0.927647
     68          1           0       -8.961053    3.467398    0.650232
     69          1           0       -9.244117   -2.529428   -0.869798
     70          1           0       -1.070457   -1.353861    0.872803
     71          1           0       -0.701884    1.376442   -0.057369
     72          1           0       -0.596131    0.258230    2.255278
     73          1           0       -1.626667    1.700624    2.596784
     74          1           0       -0.110167    2.035621    1.821360
     75          1           0       -0.301219   -0.105847   -1.611010
     76          1           0       -1.237116   -1.438080   -1.894975
     77          1           0        1.173615   -2.194461   -1.675802
     78          1           0        0.336645   -2.701857   -0.258708
     79          1           0       -3.891045    6.198416    1.381182
     80          1           0       -4.141350    6.303244   -0.329513
     81          1           0       -2.933936    5.283768    0.333091
     82          1           0       -5.838330    7.248509    1.309956
     83          1           0       -7.421521    7.913185    0.808221
     84          1           0       -6.336703    7.185726   -0.362889
     85          1           0      -10.781308    1.908430   -0.080284
     86          1           0      -10.573116   -0.908179    0.518864
     87          1           0      -11.443998    2.094902    2.021236
     88          1           0      -10.196455    0.974857    2.629317
     89          1           0      -11.778859    0.471407    1.930153
     90          1           0      -11.947478    0.511487   -1.413586
     91          1           0      -11.663863   -1.126296   -1.490055
     92          1           0      -10.282498   -1.055987   -3.306357
     93          1           0       -9.405576    0.406915   -2.722843
     94          1           0      -10.915608    0.594302   -3.537791
     95          1           0       -8.590956   -4.822872   -1.385695
     96          1           0       -7.693271   -5.484357   -0.043571
     97          1           0       -7.301716   -5.850432   -1.801089
     98          1           0       -2.302975   -3.506225   -1.249992
     99          1           0       -1.372485   -6.164308    2.058780
    100          1           0        0.247180   -5.429155    1.639261
    101          1           0       -0.288887   -6.831061    0.774873
    102          1           0        4.235611   -1.055417    1.061354
    103          1           0        3.950080    0.701826    0.646564
    104          1           0        5.093287   -0.556598   -1.632700
    105          1           0        6.075756   -0.435494    2.007264
    106          1           0        7.723192   -0.303437    1.576038
    107          1           0        6.946944   -1.852607    1.744129
    108          1           0        7.148687   -1.525716   -2.096992
    109          1           0        8.087779   -2.074582   -0.782661
    110          1           0        9.627558   -0.358382   -1.390552
    111          1           0        8.664746    0.602463   -0.398142
    112          1           0        7.333426    1.302049   -2.515134
    113          1           0        8.534113    0.330905   -3.345770
    114          1           0        9.828763    2.165035   -1.456557
    115          1           0        7.583121    3.474721   -2.966932
    116          1           0        9.133852    4.129948   -3.273346
    117          1           0        8.597213    3.918762   -1.568945
    118          1           0       10.310165    2.596228   -4.373280
    119          1           0       10.625939    0.941460   -3.847309
    120          1           0       11.654586    2.820340   -1.847297
    121          1           0       12.292332    3.117185   -3.524190
    122          1           0       13.732029    1.306887   -3.256657
    123          1           0       12.516809    0.210535   -2.837965
    124          1           0       13.635156    2.071380   -0.775843
    125          1           0       14.810227   -0.532889   -0.403842
    126          1           0       15.569664    0.928616   -0.420444
    127          1           0       15.239241    0.142565   -1.977662
    128          1           0       12.404969   -0.687588   -0.157136
    129          1           0       11.432352    0.698667   -0.519773
    130          1           0       11.730707    1.154669    1.766708
    131          1           0       13.468319    1.506568    1.470536
    132          1           0       13.965960   -0.461832    2.413386
    133          1           0       12.828337   -1.420140    1.669468
    134          1           0       10.996287   -0.026111    3.236847
    135          1           0       12.392767    1.339875    4.634919
    136          1           0       13.561803   -0.012356    4.852615
    137          1           0       12.019474    0.061985    5.617275
    138          1           0       11.776337   -2.016251    5.014430
    139          1           0       12.137913   -2.708576    3.390534
    140          1           0       10.488620   -2.123267    3.782627
 ---------------------------------------------------------------------

 SCF Done:  E(RwB97XD) =  -3007.84877127     A.U. after   19 cycles

 Excitation energies and oscillator strengths:

 Excited State   1:      Singlet-A      1.5926 eV  778.51 nm  f=0.4085  <S**2>=0.000
     245 -> 248        0.17458
     246 -> 247        0.68694
     245 <- 248        0.11560
 This state for optimization and/or second-order correction.
 Total Energy, E(TD-HF/TD-DFT) =  -3007.79024527
 Copying the excited state density for this state as the 1-particle RhoCI density.

 Excited State   2:      Singlet-A      2.0864 eV  594.26 nm  f=0.1763  <S**2>=0.000
     245 -> 247        0.66081
     246 -> 248       -0.23489

 Excited State   3:      Singlet-A      3.0832 eV  402.13 nm  f=0.0122  <S**2>=0.000
     244 -> 247        0.68435

 Excited State   4:      Singlet-A      3.3896 eV  365.78 nm  f=0.0006  <S**2>=0.000
     242 -> 247        0.57931
     242 -> 248       -0.13415
     242 -> 249       -0.25397
     242 -> 250        0.21447

 Excited State   5:      Singlet-A      3.5661 eV  347.67 nm  f=0.0017  <S**2>=0.000
     239 -> 247        0.28816
     239 -> 249        0.24940
     239 -> 250        0.13035
     240 -> 247        0.22035
     240 -> 249        0.17121
     241 -> 247        0.44302
     241 -> 249        0.15158

 The electronic state is 1-A.
 Alpha  occ. eigenvalues --  -46.95482 -19.31330 -19.29915 -19.26745 -19.23693
 Alpha  occ. eigenvalues --  -19.23202 -19.22761 -14.47076 -14.45869 -14.44336
 Alpha  occ. eigenvalues --  -14.43511 -10.44511 -10.41857 -10.38732 -10.38233
 Alpha  occ. eigenvalues --  -10.36847 -10.36074 -10.35390 -10.35251 -10.34269
 Alpha  occ. eigenvalues --  -10.34147 -10.33845 -10.33696 -10.33147 -10.32983
 Alpha  occ. eigenvalues --  -10.32929 -10.32381 -10.32178 -10.31905 -10.31718
 Alpha  occ. eigenvalues --  -10.31508 -10.31421 -10.31393 -10.31376 -10.31251
 Alpha  occ. eigenvalues --  -10.30880 -10.30781 -10.30612 -10.30367 -10.30352
 Alpha  occ. eigenvalues --  -10.30252 -10.30212 -10.30183 -10.30182 -10.29910
 Alpha  occ. eigenvalues --  -10.29867 -10.29840 -10.29521 -10.29422 -10.29387
 Alpha  occ. eigenvalues --  -10.29371 -10.29345 -10.29288 -10.29216 -10.29090
 Alpha  occ. eigenvalues --  -10.29073 -10.29064 -10.28966 -10.28811 -10.28796
 Alpha  occ. eigenvalues --  -10.28714 -10.28464 -10.28414 -10.28403 -10.28251
 Alpha  occ. eigenvalues --  -10.28153  -3.21384  -1.94978  -1.94471  -1.94383
 Alpha  occ. eigenvalues --   -1.18669  -1.17719  -1.11929  -1.11102  -1.10708
 Alpha  occ. eigenvalues --   -1.08126  -1.07873  -1.06259  -1.05573  -1.04783
 Alpha  occ. eigenvalues --   -0.94660  -0.92268  -0.91745  -0.91249  -0.91021
 Alpha  occ. eigenvalues --   -0.90390  -0.89905  -0.89451  -0.89028  -0.88839
 Alpha  occ. eigenvalues --   -0.88194  -0.87045  -0.86023  -0.85471  -0.84769
 Alpha  occ. eigenvalues --   -0.84113  -0.83610  -0.83118  -0.82603  -0.82023
 Alpha  occ. eigenvalues --   -0.81430  -0.80158  -0.79504  -0.79125  -0.78245
 Alpha  occ. eigenvalues --   -0.78093  -0.77248  -0.77118  -0.76788  -0.75761
 Alpha  occ. eigenvalues --   -0.75415  -0.74716  -0.73163  -0.72551  -0.72111
 Alpha  occ. eigenvalues --   -0.71306  -0.69847  -0.69303  -0.68490  -0.67177
 Alpha  occ. eigenvalues --   -0.67112  -0.66989  -0.66554  -0.66258  -0.65805
 Alpha  occ. eigenvalues --   -0.65747  -0.65554  -0.65085  -0.63359  -0.62405
 Alpha  occ. eigenvalues --   -0.62141  -0.61540  -0.61200  -0.60785  -0.60000
 Alpha  occ. eigenvalues --   -0.59205  -0.58621  -0.58199  -0.58062  -0.57829
 Alpha  occ. eigenvalues --   -0.57251  -0.57175  -0.56833  -0.56013  -0.55509
 Alpha  occ. eigenvalues --   -0.55304  -0.55182  -0.54713  -0.54565  -0.54468
 Alpha  occ. eigenvalues --   -0.54278  -0.54110  -0.53876  -0.53799  -0.53483
 Alpha  occ. eigenvalues --   -0.53369  -0.53218  -0.52662  -0.52377  -0.52275
 Alpha  occ. eigenvalues --   -0.52043  -0.51864  -0.51688  -0.51534  -0.51391
 Alpha  occ. eigenvalues --   -0.51315  -0.51168  -0.51024  -0.50702  -0.50500
 Alpha  occ. eigenvalues --   -0.50357  -0.50143  -0.50061  -0.49966  -0.49508
 Alpha  occ. eigenvalues --   -0.49350  -0.49100  -0.49087  -0.48906  -0.48670
 Alpha  occ. eigenvalues --   -0.48501  -0.48108  -0.47852  -0.47787  -0.47705
 Alpha  occ. eigenvalues --   -0.47348  -0.47134  -0.47030  -0.46987  -0.46757
 Alpha  occ. eigenvalues --   -0.46531  -0.46224  -0.46126  -0.45914  -0.45800
 Alpha  occ. eigenvalues --   -0.45623  -0.45506  -0.45440  -0.45125  -0.44820
 Alpha  occ. eigenvalues --   -0.44708  -0.44503  -0.44293  -0.43881  -0.43594
 Alpha  occ. eigenvalues --   -0.43166  -0.43099  -0.42852  -0.42819  -0.42664
 Alpha  occ. eigenvalues --   -0.42525  -0.42463  -0.42252  -0.42182  -0.41996
 Alpha  occ. eigenvalues --   -0.41535  -0.41324  -0.41007  -0.40658  -0.40460
 Alpha  occ. eigenvalues --   -0.40156  -0.40111  -0.40014  -0.39914  -0.39479
 Alpha  occ. eigenvalues --   -0.39385  -0.38899  -0.38574  -0.38441  -0.38253
 Alpha  occ. eigenvalues --   -0.38141  -0.38037  -0.37060  -0.36910  -0.36567
 Alpha  occ. eigenvalues --   -0.36365  -0.35117  -0.34646  -0.33174  -0.32859
 Alpha  occ. eigenvalues --   -0.32527  -0.32023  -0.31929  -0.31098  -0.25560
 Alpha  occ. eigenvalues --   -0.22915
 Alpha virt. eigenvalues --   -0.07464   0.00974   0.02248   0.04569   0.05358
 Alpha virt. eigenvalues --    0.05726   0.07720   0.08117   0.08268   0.10065
 Alpha virt. eigenvalues --    0.10819   0.11105   0.11754   0.12272   0.12649

 Mulliken charges:
               1
     1  Mg   0.969537
     2  C    0.039087
     3  C   -0.105219
     4  C   -0.072034
     5  C   -0.085605
     6  N   -0.371356
     7  C    0.017948
     8  C   -0.061687
     9  C   -0.146494
    10  C    0.126042
    11  C    0.000991
    12  C   -0.001115
    13  C    0.013349
    14  C    0.232284
    15  O   -0.234164
    16  O   -0.387515
    17  N   -0.436314
    18  C    0.149036
    19  C   -0.138104
    20  C   -0.086305
    21  C    0.179001
    22  C    0.050578
    23  C    0.046764
    24  O   -0.256436
    25  C    0.000534
    26  N   -0.361630
    27  C    0.043726
    28  C   -0.083920
    29  C   -0.029042
    30  C    0.037498
    31  C    0.007879
    32  C   -0.024527
    33  C   -0.049176
    34  N   -0.351854
    35  C    0.088170
    36  C   -0.177543
    37  C   -0.025308
    38  C    0.041938
    39  C    0.078922
    40  C    0.134517
    41  O   -0.201001
    42  C   -0.055516
    43  C    0.218993
    44  O   -0.274710
    45  O   -0.364667
    46  C    0.142484
    47  C    0.251059
    48  C   -0.167105
    49  C   -0.216067
    50  C   -0.003434
    51  C    0.113746
    52  C   -0.083309
    53  C    0.054457
    54  C   -0.221525
    55  C   -0.000390
    56  C    0.009641
    57  C   -0.037537
    58  C    0.000711
    59  C   -0.182725
    60  C    0.009875
    61  C    0.021441
    62  C   -0.003720
    63  C   -0.033802
    64  C   -0.216705
    65  C   -0.018421
    66  C    0.011133
    67  H    0.015603
    68  H    0.033128
    69  H   -0.014254
    70  H    0.058064
    71  H    0.036806
    72  H    0.067161
    73  H    0.040596
    74  H    0.034962
    75  H    0.022885
    76  H    0.035847
    77  H    0.058385
    78  H    0.061207
    79  H    0.046109
    80  H    0.049582
    81  H    0.024331
    82  H    0.035406
    83  H    0.053114
    84  H    0.054245
    85  H    0.035223
    86  H    0.034270
    87  H    0.034340
    88  H    0.046715
    89  H    0.035757
    90  H    0.028067
    91  H    0.019181
    92  H    0.043803
    93  H    0.041400
    94  H    0.036650
    95  H    0.023844
    96  H    0.066420
    97  H    0.064693
    98  H    0.059238
    99  H    0.082584
   100  H    0.057208
   101  H    0.063704
   102  H    0.062957
   103  H    0.073696
   104  H    0.021277
   105  H    0.030518
   106  H    0.035256
   107  H    0.040075
   108  H    0.024456
   109  H    0.020238
   110  H    0.028634
   111  H    0.020956
   112  H    0.013243
   113  H    0.011259
   114  H    0.025508
   115  H    0.032110
   116  H    0.020469
   117  H    0.032155
   118  H    0.023231
   119  H    0.017695
   120  H    0.029389
   121  H    0.030370
   122  H    0.013332
   123  H    0.012489
   124  H    0.021239
   125  H    0.014260
   126  H    0.024660
   127  H    0.028774
   128  H    0.016366
   129  H   -0.001980
   130  H    0.013127
   131  H    0.033331
   132  H    0.016181
   133  H    0.011756
   134  H    0.024860
   135  H    0.026979
   136  H    0.031144
   137  H    0.017985
   138  H    0.025353
   139  H    0.031847
   140  H    0.033173
 Sum of Mulliken charges =  -0.00000

 Dipole moment (field-independent basis, Debye):
    X=              3.6309    Y=              1.3273    Z=             -2.6832  Tot=              4.7059
 Quadrupole moment (field-independent basis, Debye-Ang):
   XX=           -371.4881   YY=           -407.9588   ZZ=           -406.9637
   XY=             10.3469   XZ=             19.0681   YZ=             -4.8238

 Normal termination of Gaussian 16 at Wed May  4 03:31:27 2022.
