 Gaussian 16, Revision A.03,
 Gaussian 16:  ES64L-G16RevA.03 25-Dec-2016

 --------------------
 #p ZINDO=(nstates=5)
 --------------------

 ------------------------------
 step_1301_chromophore_19 ZINDO
 ------------------------------
 Symbolic Z-matrix:
 Charge =  0 Multiplicity = 1

                         Standard orientation:
 ---------------------------------------------------------------------
 Center     Atomic      Atomic             Coordinates (Angstroms)
 Number     Number       Type             X           Y           Z
 ---------------------------------------------------------------------
      1         12           0       -5.856156    0.371075   -0.208593
      2          6           0       -3.556702   -2.229999   -0.227968
      3          6           0       -3.279835    2.621165    0.551937
      4          6           0       -8.156094    2.729620    0.679450
      5          6           0       -8.401836   -1.869207   -0.653690
      6          7           0       -3.713604    0.174693    0.078485
      7          6           0       -2.954743   -0.978279   -0.032617
      8          6           0       -1.472784   -0.668402    0.127204
      9          6           0       -1.457716    0.851274    0.526667
     10          6           0       -2.928357    1.234926    0.406048
     11          6           0       -0.871830    1.265320    1.942370
     12          6           0       -0.601260   -1.027160   -1.110977
     13          6           0        0.655710   -1.808974   -0.797209
     14          6           0        1.638262   -1.025509    0.127529
     15          8           0        1.496464   -0.803299    1.307595
     16          8           0        2.839784   -0.817131   -0.587517
     17          7           0       -5.713570    2.378901    0.451934
     18          6           0       -4.603487    3.159337    0.621819
     19          6           0       -4.934785    4.473501    0.655356
     20          6           0       -6.403989    4.532010    0.811623
     21          6           0       -6.819203    3.129091    0.664008
     22          6           0       -3.969349    5.593398    0.478388
     23          6           0       -7.293018    5.747851    0.840482
     24          8           0       -8.528256    5.707123    0.867352
     25          6           0       -6.702861    7.107609    0.660949
     26          7           0       -7.985770    0.372808    0.099890
     27          6           0       -8.692945    1.490636    0.407322
     28          6           0      -10.170491    1.188665    0.463504
     29          6           0      -10.236337   -0.168026   -0.207347
     30          6           0       -8.789234   -0.611631   -0.328832
     31          6           0      -10.931099    1.149962    1.843491
     32          6           0      -11.111834   -0.186481   -1.453206
     33          6           0      -10.377772   -0.067255   -2.857611
     34          7           0       -6.021693   -1.694091   -0.544732
     35          6           0       -7.075518   -2.483713   -0.633084
     36          6           0       -6.708318   -3.930104   -0.860879
     37          6           0       -5.313865   -3.869494   -0.762615
     38          6           0       -4.993792   -2.491960   -0.456902
     39          6           0       -7.589161   -5.105108   -1.059651
     40          6           0       -4.105200   -4.615570   -0.776262
     41          8           0       -3.874737   -5.814539   -0.851219
     42          6           0       -2.991696   -3.641806   -0.415344
     43          6           0       -2.175023   -4.099443    0.656903
     44          8           0       -2.377845   -3.856360    1.853623
     45          8           0       -1.279739   -4.993243    0.224287
     46          6           0       -0.648622   -5.932737    1.277150
     47          6           0        3.932727   -0.333074    0.303359
     48          6           0        5.261682   -0.481450   -0.558380
     49          6           0        6.518010   -0.843397   -0.169855
     50          6           0        6.817107   -0.854605    1.327455
     51          6           0        7.600283   -1.179815   -1.167337
     52          6           0        8.595215   -0.022403   -1.288166
     53          6           0        8.361202    0.944701   -2.461920
     54          6           0        9.342942    2.106720   -2.429945
     55          6           0        8.599332    3.490614   -2.570872
     56          6           0       10.542357    1.974293   -3.509471
     57          6           0       11.876336    2.391859   -2.824977
     58          6           0       12.917841    1.180336   -2.543242
     59          6           0       13.466588    1.046359   -1.104038
     60          6           0       14.824343    0.380496   -0.998085
     61          6           0       12.418267    0.402734   -0.162214
     62          6           0       12.656098    0.796097    1.316051
     63          6           0       12.896944   -0.468985    2.197657
     64          6           0       11.926304   -0.534281    3.491479
     65          6           0       12.522081    0.258118    4.670140
     66          6           0       11.556654   -1.975263    3.947324
     67          1           0       -2.495038    3.282681    0.927647
     68          1           0       -8.961053    3.467398    0.650232
     69          1           0       -9.244117   -2.529428   -0.869798
     70          1           0       -1.070457   -1.353861    0.872803
     71          1           0       -0.701884    1.376442   -0.057369
     72          1           0       -0.596131    0.258230    2.255278
     73          1           0       -1.626667    1.700624    2.596784
     74          1           0       -0.110167    2.035621    1.821360
     75          1           0       -0.301219   -0.105847   -1.611010
     76          1           0       -1.237116   -1.438080   -1.894975
     77          1           0        1.173615   -2.194461   -1.675802
     78          1           0        0.336645   -2.701857   -0.258708
     79          1           0       -3.891045    6.198416    1.381182
     80          1           0       -4.141350    6.303244   -0.329513
     81          1           0       -2.933936    5.283768    0.333091
     82          1           0       -5.838330    7.248509    1.309956
     83          1           0       -7.421521    7.913185    0.808221
     84          1           0       -6.336703    7.185726   -0.362889
     85          1           0      -10.781308    1.908430   -0.080284
     86          1           0      -10.573116   -0.908179    0.518864
     87          1           0      -11.443998    2.094902    2.021236
     88          1           0      -10.196455    0.974857    2.629317
     89          1           0      -11.778859    0.471407    1.930153
     90          1           0      -11.947478    0.511487   -1.413586
     91          1           0      -11.663863   -1.126296   -1.490055
     92          1           0      -10.282498   -1.055987   -3.306357
     93          1           0       -9.405576    0.406915   -2.722843
     94          1           0      -10.915608    0.594302   -3.537791
     95          1           0       -8.590956   -4.822872   -1.385695
     96          1           0       -7.693271   -5.484357   -0.043571
     97          1           0       -7.301716   -5.850432   -1.801089
     98          1           0       -2.302975   -3.506225   -1.249992
     99          1           0       -1.372485   -6.164308    2.058780
    100          1           0        0.247180   -5.429155    1.639261
    101          1           0       -0.288887   -6.831061    0.774873
    102          1           0        4.235611   -1.055417    1.061354
    103          1           0        3.950080    0.701826    0.646564
    104          1           0        5.093287   -0.556598   -1.632700
    105          1           0        6.075756   -0.435494    2.007264
    106          1           0        7.723192   -0.303437    1.576038
    107          1           0        6.946944   -1.852607    1.744129
    108          1           0        7.148687   -1.525716   -2.096992
    109          1           0        8.087779   -2.074582   -0.782661
    110          1           0        9.627558   -0.358382   -1.390552
    111          1           0        8.664746    0.602463   -0.398142
    112          1           0        7.333426    1.302049   -2.515134
    113          1           0        8.534113    0.330905   -3.345770
    114          1           0        9.828763    2.165035   -1.456557
    115          1           0        7.583121    3.474721   -2.966932
    116          1           0        9.133852    4.129948   -3.273346
    117          1           0        8.597213    3.918762   -1.568945
    118          1           0       10.310165    2.596228   -4.373280
    119          1           0       10.625939    0.941460   -3.847309
    120          1           0       11.654586    2.820340   -1.847297
    121          1           0       12.292332    3.117185   -3.524190
    122          1           0       13.732029    1.306887   -3.256657
    123          1           0       12.516809    0.210535   -2.837965
    124          1           0       13.635156    2.071380   -0.775843
    125          1           0       14.810227   -0.532889   -0.403842
    126          1           0       15.569664    0.928616   -0.420444
    127          1           0       15.239241    0.142565   -1.977662
    128          1           0       12.404969   -0.687588   -0.157136
    129          1           0       11.432352    0.698667   -0.519773
    130          1           0       11.730707    1.154669    1.766708
    131          1           0       13.468319    1.506568    1.470536
    132          1           0       13.965960   -0.461832    2.413386
    133          1           0       12.828337   -1.420140    1.669468
    134          1           0       10.996287   -0.026111    3.236847
    135          1           0       12.392767    1.339875    4.634919
    136          1           0       13.561803   -0.012356    4.852615
    137          1           0       12.019474    0.061985    5.617275
    138          1           0       11.776337   -2.016251    5.014430
    139          1           0       12.137913   -2.708576    3.390534
    140          1           0       10.488620   -2.123267    3.782627
 ---------------------------------------------------------------------

 SCF Done:  E(RZINDO/S) =  -474.292424848     A.U. after   20 cycles

 Excitation energies and oscillator strengths:

 Excited State   1:      Singlet-A      1.2055 eV 1028.47 nm  f=0.6703  <S**2>=0.000
     175 ->178         0.17937
     176 ->177         0.66381
 This state for optimization and/or second-order correction.
 Total Energy, E(CIS/TDA) =  -474.248122814
 Copying the excited state density for this state as the 1-particle RhoCI density.

 Excited State   2:      Singlet-A      1.8854 eV  657.60 nm  f=0.1298  <S**2>=0.000
     175 ->177         0.59094
     176 ->178        -0.34592

 Excited State   3:      Singlet-A      2.8952 eV  428.24 nm  f=0.0364  <S**2>=0.000
     169 ->177         0.29094
     169 ->179         0.27218
     169 ->181         0.30139
     169 ->186         0.23083
     169 ->187         0.12987
     174 ->177        -0.18771
     176 ->178         0.15426
     176 ->179         0.18894

 Excited State   4:      Singlet-A      2.9171 eV  425.03 nm  f=0.1942  <S**2>=0.000
     169 ->177        -0.12684
     169 ->179        -0.10076
     169 ->181        -0.13001
     174 ->177         0.11370
     175 ->177         0.16885
     176 ->178         0.41729
     176 ->179         0.38052

 Excited State   5:      Singlet-A      2.9253 eV  423.83 nm  f=0.0095  <S**2>=0.000
     169 ->177         0.13278
     169 ->179         0.10218
     169 ->181         0.11381
     172 ->177        -0.29758
     174 ->177         0.57171

 The electronic state is 1-A.
 Alpha  occ. eigenvalues --   -1.86177  -1.83045  -1.80822  -1.73537  -1.72958
 Alpha  occ. eigenvalues --   -1.69612  -1.64761  -1.59741  -1.58475  -1.58023
 Alpha  occ. eigenvalues --   -1.53938  -1.51511  -1.48774  -1.48236  -1.46398
 Alpha  occ. eigenvalues --   -1.43545  -1.42306  -1.40373  -1.39212  -1.38088
 Alpha  occ. eigenvalues --   -1.36574  -1.34518  -1.32818  -1.31392  -1.29035
 Alpha  occ. eigenvalues --   -1.27387  -1.25184  -1.21631  -1.19836  -1.18524
 Alpha  occ. eigenvalues --   -1.17288  -1.15853  -1.14657  -1.14462  -1.13440
 Alpha  occ. eigenvalues --   -1.12455  -1.10075  -1.09982  -1.05354  -1.04987
 Alpha  occ. eigenvalues --   -1.02892  -1.02020  -0.99127  -0.97991  -0.96789
 Alpha  occ. eigenvalues --   -0.95799  -0.95124  -0.94275  -0.92811  -0.92432
 Alpha  occ. eigenvalues --   -0.90762  -0.90076  -0.89196  -0.88748  -0.87802
 Alpha  occ. eigenvalues --   -0.85777  -0.84603  -0.82816  -0.82411  -0.81557
 Alpha  occ. eigenvalues --   -0.80083  -0.77884  -0.76448  -0.76042  -0.75970
 Alpha  occ. eigenvalues --   -0.75513  -0.75212  -0.74473  -0.73988  -0.73679
 Alpha  occ. eigenvalues --   -0.73273  -0.72173  -0.71593  -0.71232  -0.70830
 Alpha  occ. eigenvalues --   -0.69972  -0.69258  -0.68866  -0.68502  -0.67963
 Alpha  occ. eigenvalues --   -0.67341  -0.67077  -0.66816  -0.65309  -0.65205
 Alpha  occ. eigenvalues --   -0.64808  -0.64589  -0.64448  -0.63889  -0.63494
 Alpha  occ. eigenvalues --   -0.63038  -0.62937  -0.62714  -0.62565  -0.61485
 Alpha  occ. eigenvalues --   -0.61256  -0.60842  -0.60622  -0.60161  -0.59949
 Alpha  occ. eigenvalues --   -0.59800  -0.58696  -0.58626  -0.58475  -0.58150
 Alpha  occ. eigenvalues --   -0.57792  -0.57309  -0.57005  -0.56854  -0.56557
 Alpha  occ. eigenvalues --   -0.55660  -0.55209  -0.55030  -0.54861  -0.54505
 Alpha  occ. eigenvalues --   -0.54216  -0.54082  -0.53494  -0.53380  -0.52969
 Alpha  occ. eigenvalues --   -0.52875  -0.52401  -0.52055  -0.51575  -0.51460
 Alpha  occ. eigenvalues --   -0.51232  -0.50651  -0.50329  -0.50139  -0.49852
 Alpha  occ. eigenvalues --   -0.49741  -0.49511  -0.49395  -0.48956  -0.48792
 Alpha  occ. eigenvalues --   -0.48537  -0.48309  -0.48171  -0.48092  -0.47685
 Alpha  occ. eigenvalues --   -0.47567  -0.47056  -0.46967  -0.46424  -0.46367
 Alpha  occ. eigenvalues --   -0.46093  -0.46038  -0.45524  -0.45446  -0.45192
 Alpha  occ. eigenvalues --   -0.44980  -0.44873  -0.44425  -0.44189  -0.43957
 Alpha  occ. eigenvalues --   -0.43702  -0.43366  -0.43292  -0.43075  -0.42667
 Alpha  occ. eigenvalues --   -0.42180  -0.41902  -0.41202  -0.39593  -0.38330
 Alpha  occ. eigenvalues --   -0.37761  -0.37237  -0.35515  -0.34371  -0.34182
 Alpha  occ. eigenvalues --   -0.32983  -0.32375  -0.31942  -0.31583  -0.26380
 Alpha  occ. eigenvalues --   -0.21804
 Alpha virt. eigenvalues --   -0.09033  -0.01503  -0.00652   0.01126   0.01320
 Alpha virt. eigenvalues --    0.01823   0.02754   0.03354   0.04579   0.05018
 Alpha virt. eigenvalues --    0.06394   0.07103   0.07793   0.07965   0.08227

 Mulliken charges:
               1
     1  Mg   0.428120
     2  C   -0.061288
     3  C   -0.094841
     4  C   -0.064844
     5  C   -0.080704
     6  N   -0.277255
     7  C    0.124136
     8  C    0.006864
     9  C   -0.008992
    10  C    0.143611
    11  C   -0.061421
    12  C   -0.019466
    13  C    0.012622
    14  C    0.462523
    15  O   -0.493162
    16  O   -0.269257
    17  N   -0.332565
    18  C    0.119183
    19  C    0.016608
    20  C   -0.077908
    21  C    0.155009
    22  C   -0.041840
    23  C    0.328041
    24  O   -0.541032
    25  C   -0.026984
    26  N   -0.277561
    27  C    0.145772
    28  C    0.005194
    29  C    0.011408
    30  C    0.138415
    31  C   -0.053063
    32  C   -0.029302
    33  C   -0.057572
    34  N   -0.273266
    35  C    0.094700
    36  C    0.038764
    37  C   -0.061034
    38  C    0.104402
    39  C   -0.030015
    40  C    0.348334
    41  O   -0.525099
    42  C    0.066289
    43  C    0.501395
    44  O   -0.546341
    45  O   -0.273773
    46  C    0.075067
    47  C    0.090894
    48  C   -0.116446
    49  C   -0.003761
    50  C   -0.046485
    51  C   -0.006869
    52  C   -0.027042
    53  C   -0.029224
    54  C   -0.021365
    55  C   -0.063462
    56  C   -0.040698
    57  C   -0.043405
    58  C   -0.040662
    59  C   -0.000774
    60  C   -0.055707
    61  C   -0.033797
    62  C   -0.042809
    63  C   -0.045221
    64  C   -0.013747
    65  C   -0.056611
    66  C   -0.059158
    67  H    0.032042
    68  H    0.050839
    69  H    0.015952
    70  H    0.046115
    71  H    0.035139
    72  H    0.044908
    73  H    0.021824
    74  H    0.027466
    75  H    0.013632
    76  H    0.022331
    77  H    0.035553
    78  H    0.041303
    79  H    0.024235
    80  H    0.031103
    81  H    0.015978
    82  H    0.027535
    83  H    0.037333
    84  H    0.036405
    85  H    0.028270
    86  H    0.025567
    87  H    0.016358
    88  H    0.025468
    89  H    0.024083
    90  H    0.021787
    91  H    0.007738
    92  H    0.024739
    93  H    0.023092
    94  H    0.018321
    95  H    0.015704
    96  H    0.042944
    97  H    0.042443
    98  H    0.046329
    99  H    0.061793
   100  H    0.040014
   101  H    0.037608
   102  H    0.060813
   103  H    0.065741
   104  H    0.020534
   105  H    0.020946
   106  H    0.020008
   107  H    0.025098
   108  H    0.027620
   109  H    0.018324
   110  H    0.014152
   111  H    0.020085
   112  H    0.022545
   113  H    0.014039
   114  H    0.023934
   115  H    0.021847
   116  H    0.015684
   117  H    0.017844
   118  H    0.023471
   119  H    0.020016
   120  H    0.026927
   121  H    0.021816
   122  H    0.010714
   123  H    0.017413
   124  H    0.016032
   125  H    0.013564
   126  H    0.016119
   127  H    0.019301
   128  H    0.024364
   129  H    0.016108
   130  H    0.019322
   131  H    0.029214
   132  H    0.014893
   133  H    0.018299
   134  H    0.020247
   135  H    0.015186
   136  H    0.019732
   137  H    0.008224
   138  H    0.023196
   139  H    0.023552
   140  H    0.019600
 Sum of Mulliken charges =  -0.00000

 Dipole moment (field-independent basis, Debye):
    X=              4.6493    Y=              2.1295    Z=             -4.2853  Tot=              6.6720
 N-N= 4.288230821965D+03 E-N= 0.000000000000D+00  KE=-9.250997341380D+03
 Leave Link  601 at Wed May  4 03:45:00 2022, MaxMem=  6710886400 cpu:               1.0 elap:               0.1
 (Enter /sw/apps/gaussian-16.0/g16/l9999.exe)
 1\1\GINC-BP1-COMPUTE062\SP\RZINDO CIS\STO-3G\C55H74Mg1N4O6\OF15641\04-
 May-2022\0\\#p ZINDO=(nstates=5)\\step_1301_chromophore_19 ZINDO\\0,1\
 Mg,0,25.399,51.293,26.224\C,0,23.496,52.578,28.828\C,0,27.782,50.177,2
 8.538\C,0,27.654,50.834,23.705\C,0,23.222,52.645,23.959\N,0,25.553,51.
 363,28.388\C,0,24.63,51.886,29.278\C,0,25.06,51.631,30.716\C,0,26.495,
 51.009,30.564\C,0,26.631,50.868,29.052\C,0,27.735,51.784,31.181\C,0,24
 .061,50.774,31.546\C,0,23.722,51.337,32.909\C,0,24.968,51.452,33.841\O

 Normal termination of Gaussian 16 at Wed May  4 03:45:01 2022.
