 Gaussian 16, Revision A.03,
 Gaussian 16:  ES64L-G16RevA.03 25-Dec-2016

 ------------------------------
 #p blyp/Def2SVP td=(nstates=5)
 ------------------------------

 -------------------------------------------------
 step_701_chromophore_5 TDDFT with blyp functional
 -------------------------------------------------
 Symbolic Z-matrix:
 Charge =  0 Multiplicity = 1

                         Standard orientation:
 ---------------------------------------------------------------------
 Center     Atomic      Atomic             Coordinates (Angstroms)
 Number     Number       Type             X           Y           Z
 ---------------------------------------------------------------------
      1         12           0        5.059358    0.421174   -0.266258
      2          6           0        3.911911   -2.765925    0.286881
      3          6           0        2.886038    0.721621   -2.877290
      4          6           0        5.856624    3.686773   -0.381612
      5          6           0        6.936702    0.108042    2.723830
      6          7           0        3.531281   -0.876414   -1.050819
      7          6           0        3.244367   -2.135576   -0.718583
      8          6           0        2.196868   -2.721085   -1.627265
      9          6           0        2.274380   -1.758942   -2.892311
     10          6           0        2.935025   -0.520233   -2.272459
     11          6           0        3.235782   -2.318526   -3.999033
     12          6           0        0.760592   -2.656678   -1.004083
     13          6           0       -0.185622   -3.831805   -1.362888
     14          6           0       -1.488497   -3.325929   -1.960324
     15          8           0       -1.702602   -3.200140   -3.192302
     16          8           0       -2.389694   -2.978578   -0.956790
     17          7           0        4.542707    1.963403   -1.549521
     18          6           0        3.559411    1.905539   -2.532685
     19          6           0        3.423177    3.217959   -3.233771
     20          6           0        4.324612    4.109013   -2.537139
     21          6           0        4.964105    3.263021   -1.412094
     22          6           0        2.570165    3.505487   -4.437741
     23          6           0        4.488593    5.597274   -2.866056
     24          8           0        3.894605    6.097994   -3.806009
     25          6           0        5.354331    6.479115   -2.124216
     26          7           0        6.084900    1.767626    1.181804
     27          6           0        6.376589    3.030220    0.754587
     28          6           0        7.036455    3.765665    1.960882
     29          6           0        7.650388    2.577904    2.722916
     30          6           0        6.881122    1.378449    2.201189
     31          6           0        8.102085    4.886168    1.761373
     32          6           0        7.587058    2.845287    4.247633
     33          6           0        8.789232    2.348572    5.022395
     34          7           0        5.403318   -1.076238    1.247211
     35          6           0        6.206589   -1.035457    2.329739
     36          6           0        6.209047   -2.334559    2.933279
     37          6           0        5.384066   -3.105802    2.061458
     38          6           0        4.884756   -2.240148    1.154613
     39          6           0        6.881289   -2.800227    4.172260
     40          6           0        4.745961   -4.368996    1.894491
     41          8           0        4.745876   -5.409291    2.552190
     42          6           0        3.834813   -4.242993    0.636363
     43          6           0        4.239346   -5.259115   -0.455895
     44          8           0        4.235438   -6.499651   -0.318947
     45          8           0        4.872536   -4.585615   -1.504616
     46          6           0        5.346678   -5.383621   -2.658559
     47          6           0       -3.457625   -2.061008   -1.277467
     48          6           0       -3.503809   -0.875240   -0.362872
     49          6           0       -4.609387   -0.367420    0.187718
     50          6           0       -5.928881   -1.144536    0.323365
     51          6           0       -4.506317    0.892632    1.068745
     52          6           0       -5.024188    2.210969    0.412867
     53          6           0       -5.884069    3.098424    1.395798
     54          6           0       -7.399248    3.286992    0.980894
     55          6           0       -7.899686    4.674723    0.927466
     56          6           0       -8.391488    2.464241    1.830262
     57          6           0       -9.606556    2.048504    0.961530
     58          6           0       -9.549104    0.511952    0.872002
     59          6           0      -10.848139   -0.118186    0.335454
     60          6           0      -10.579906   -0.391322   -1.158744
     61          6           0      -11.244968   -1.454466    1.162508
     62          6           0      -12.705560   -1.417950    1.666553
     63          6           0      -13.781491   -1.080925    0.560512
     64          6           0      -14.484296    0.300967    0.824595
     65          6           0      -15.810765    0.065300    1.552792
     66          6           0      -14.809414    0.947258   -0.595289
     67          1           0        2.163238    0.669394   -3.694197
     68          1           0        6.100360    4.746966   -0.478655
     69          1           0        7.642872    0.040761    3.554239
     70          1           0        2.478738   -3.718665   -1.965542
     71          1           0        1.334012   -1.516281   -3.387752
     72          1           0        3.555156   -3.338003   -3.780948
     73          1           0        4.085976   -1.647429   -4.113464
     74          1           0        2.648830   -2.212572   -4.912301
     75          1           0        0.210649   -1.773367   -1.329435
     76          1           0        0.763056   -2.621473    0.085951
     77          1           0       -0.425232   -4.393832   -0.460069
     78          1           0        0.107831   -4.442622   -2.217322
     79          1           0        2.252742    4.541670   -4.552956
     80          1           0        1.686827    2.866863   -4.430814
     81          1           0        3.047322    3.225069   -5.377632
     82          1           0        6.368926    6.115365   -2.288076
     83          1           0        4.960292    6.410299   -1.110181
     84          1           0        5.256265    7.469482   -2.567347
     85          1           0        6.237341    4.296399    2.478055
     86          1           0        8.704561    2.440655    2.484457
     87          1           0        7.926693    5.615370    2.551775
     88          1           0        7.966051    5.260406    0.746255
     89          1           0        9.099396    4.448149    1.795769
     90          1           0        6.707008    2.279256    4.554376
     91          1           0        7.410170    3.867479    4.579991
     92          1           0        9.566499    1.930484    4.382696
     93          1           0        8.558011    1.525929    5.698786
     94          1           0        9.168277    3.167586    5.634107
     95          1           0        7.929637   -2.647636    3.916859
     96          1           0        6.706716   -3.832321    4.476319
     97          1           0        6.691438   -2.133579    5.013748
     98          1           0        2.840181   -4.573123    0.937152
     99          1           0        6.425390   -5.515593   -2.564034
    100          1           0        5.189252   -4.832839   -3.585115
    101          1           0        4.819194   -6.318975   -2.843662
    102          1           0       -4.387256   -2.624860   -1.356161
    103          1           0       -3.277962   -1.600257   -2.249035
    104          1           0       -2.661708   -0.187732   -0.282972
    105          1           0       -6.622817   -0.427042   -0.116123
    106          1           0       -6.256737   -1.333907    1.345341
    107          1           0       -6.046939   -2.079269   -0.225334
    108          1           0       -3.471425    0.967765    1.402114
    109          1           0       -5.158882    0.845106    1.940421
    110          1           0       -5.689090    1.932466   -0.405516
    111          1           0       -4.231643    2.773264   -0.080131
    112          1           0       -5.459523    4.102360    1.423983
    113          1           0       -5.861590    2.699438    2.409661
    114          1           0       -7.519722    2.855974   -0.012721
    115          1           0       -8.498851    5.002783    1.777117
    116          1           0       -8.480469    4.804230    0.014602
    117          1           0       -7.101975    5.416379    0.921810
    118          1           0       -8.797992    2.909295    2.738762
    119          1           0       -7.839487    1.588145    2.168907
    120          1           0       -9.758749    2.520256   -0.009227
    121          1           0      -10.531749    2.381832    1.430319
    122          1           0       -9.453056    0.161846    1.900301
    123          1           0       -8.674112    0.281520    0.264717
    124          1           0      -11.582612    0.679391    0.225434
    125          1           0      -10.408681   -1.452532   -1.339882
    126          1           0       -9.812752    0.299763   -1.507452
    127          1           0      -11.499666   -0.227990   -1.720239
    128          1           0      -10.600709   -1.541142    2.037029
    129          1           0      -11.107572   -2.275049    0.458281
    130          1           0      -12.721607   -0.825485    2.582323
    131          1           0      -12.896089   -2.434228    2.010011
    132          1           0      -14.572594   -1.830362    0.535139
    133          1           0      -13.375691   -1.107114   -0.450722
    134          1           0      -13.851125    0.844919    1.525182
    135          1           0      -15.798630    0.391572    2.592428
    136          1           0      -15.980334   -1.001499    1.701967
    137          1           0      -16.677173    0.561096    1.115531
    138          1           0      -13.961263    0.947703   -1.280398
    139          1           0      -15.146263    1.964658   -0.399930
    140          1           0      -15.581048    0.448534   -1.181853
 ---------------------------------------------------------------------

 SCF Done:  E(RB-LYP) =  -3007.36370770     A.U. after   21 cycles

 Excitation energies and oscillator strengths:

 Excited State   1:      Singlet-A      1.7158 eV  722.60 nm  f=0.0056  <S**2>=0.000
     244 -> 247        0.58255
     245 -> 247       -0.38831
 This state for optimization and/or second-order correction.
 Total Energy, E(TD-HF/TD-DFT) =  -3007.30065335
 Copying the excited state density for this state as the 1-particle RhoCI density.

 Excited State   2:      Singlet-A      1.8121 eV  684.21 nm  f=0.0191  <S**2>=0.000
     243 -> 247        0.67493
     244 -> 247        0.13091
     246 -> 247       -0.14969

 Excited State   3:      Singlet-A      1.8341 eV  675.99 nm  f=0.2863  <S**2>=0.000
     243 -> 247        0.15762
     245 -> 248       -0.17895
     246 -> 247        0.67018
     246 <- 247       -0.14552

 Excited State   4:      Singlet-A      2.0487 eV  605.18 nm  f=0.0768  <S**2>=0.000
     243 -> 247       -0.11859
     244 -> 247        0.35767
     245 -> 247        0.53071
     246 -> 248        0.22608

 Excited State   5:      Singlet-A      2.3680 eV  523.57 nm  f=0.0006  <S**2>=0.000
     241 -> 247        0.70271

 The electronic state is 1-A.
 Alpha  occ. eigenvalues --  -46.28211 -18.82754 -18.82029 -18.77190 -18.76861
 Alpha  occ. eigenvalues --  -18.75345 -18.75135 -14.03514 -14.03206 -14.02354
 Alpha  occ. eigenvalues --  -14.00388 -10.04532 -10.04389  -9.99661  -9.99116
 Alpha  occ. eigenvalues --   -9.98350  -9.97761  -9.97488  -9.97164  -9.96821
 Alpha  occ. eigenvalues --   -9.96710  -9.96242  -9.96208  -9.95380  -9.94884
 Alpha  occ. eigenvalues --   -9.94508  -9.94325  -9.94115  -9.94094  -9.94064
 Alpha  occ. eigenvalues --   -9.93816  -9.93662  -9.93647  -9.93600  -9.93553
 Alpha  occ. eigenvalues --   -9.93532  -9.93355  -9.93210  -9.92944  -9.92894
 Alpha  occ. eigenvalues --   -9.92766  -9.92695  -9.92649  -9.92402  -9.92399
 Alpha  occ. eigenvalues --   -9.92327  -9.92317  -9.92135  -9.92120  -9.92101
 Alpha  occ. eigenvalues --   -9.91970  -9.91817  -9.91657  -9.91611  -9.91574
 Alpha  occ. eigenvalues --   -9.91466  -9.91340  -9.91263  -9.91133  -9.91020
 Alpha  occ. eigenvalues --   -9.90980  -9.90726  -9.90489  -9.90454  -9.90407
 Alpha  occ. eigenvalues --   -9.90368  -2.92707  -1.73129  -1.72575  -1.72435
 Alpha  occ. eigenvalues --   -0.96840  -0.96483  -0.92075  -0.90539  -0.89045
 Alpha  occ. eigenvalues --   -0.88821  -0.88598  -0.86469  -0.86385  -0.84744
 Alpha  occ. eigenvalues --   -0.76155  -0.73723  -0.73142  -0.72986  -0.72697
 Alpha  occ. eigenvalues --   -0.72288  -0.71893  -0.71595  -0.70613  -0.70566
 Alpha  occ. eigenvalues --   -0.69622  -0.69451  -0.68302  -0.67871  -0.67691
 Alpha  occ. eigenvalues --   -0.66830  -0.66621  -0.65956  -0.65134  -0.64822
 Alpha  occ. eigenvalues --   -0.64160  -0.62999  -0.62577  -0.61823  -0.61231
 Alpha  occ. eigenvalues --   -0.60763  -0.60409  -0.59958  -0.59197  -0.58757
 Alpha  occ. eigenvalues --   -0.58451  -0.57923  -0.57235  -0.55874  -0.54883
 Alpha  occ. eigenvalues --   -0.54204  -0.53955  -0.53140  -0.52407  -0.51976
 Alpha  occ. eigenvalues --   -0.51680  -0.51290  -0.51250  -0.50771  -0.50014
 Alpha  occ. eigenvalues --   -0.49869  -0.49691  -0.49532  -0.48682  -0.46583
 Alpha  occ. eigenvalues --   -0.46344  -0.46302  -0.46177  -0.45527  -0.44800
 Alpha  occ. eigenvalues --   -0.43974  -0.43724  -0.43408  -0.43040  -0.42963
 Alpha  occ. eigenvalues --   -0.42342  -0.42140  -0.42076  -0.41465  -0.41075
 Alpha  occ. eigenvalues --   -0.41018  -0.40892  -0.40743  -0.40557  -0.40149
 Alpha  occ. eigenvalues --   -0.39874  -0.39616  -0.39442  -0.39256  -0.39250
 Alpha  occ. eigenvalues --   -0.39022  -0.38890  -0.38710  -0.38541  -0.38371
 Alpha  occ. eigenvalues --   -0.38212  -0.37999  -0.37847  -0.37550  -0.37421
 Alpha  occ. eigenvalues --   -0.37306  -0.37220  -0.36987  -0.36744  -0.36560
 Alpha  occ. eigenvalues --   -0.36447  -0.36132  -0.35930  -0.35652  -0.35554
 Alpha  occ. eigenvalues --   -0.35459  -0.35227  -0.35170  -0.34923  -0.34867
 Alpha  occ. eigenvalues --   -0.34693  -0.34620  -0.34612  -0.34349  -0.34133
 Alpha  occ. eigenvalues --   -0.33979  -0.33929  -0.33605  -0.33249  -0.33152
 Alpha  occ. eigenvalues --   -0.32917  -0.32870  -0.32810  -0.32575  -0.32112
 Alpha  occ. eigenvalues --   -0.31935  -0.31932  -0.31846  -0.31595  -0.31517
 Alpha  occ. eigenvalues --   -0.31510  -0.31413  -0.31144  -0.30959  -0.30735
 Alpha  occ. eigenvalues --   -0.30664  -0.30606  -0.30352  -0.30016  -0.29948
 Alpha  occ. eigenvalues --   -0.29810  -0.29714  -0.29676  -0.29473  -0.29364
 Alpha  occ. eigenvalues --   -0.29263  -0.28597  -0.28501  -0.28197  -0.27680
 Alpha  occ. eigenvalues --   -0.27559  -0.27455  -0.27424  -0.26970  -0.26735
 Alpha  occ. eigenvalues --   -0.26632  -0.26617  -0.25846  -0.25643  -0.25502
 Alpha  occ. eigenvalues --   -0.25150  -0.24865  -0.24689  -0.24366  -0.23314
 Alpha  occ. eigenvalues --   -0.23089  -0.22948  -0.22151  -0.21591  -0.20970
 Alpha  occ. eigenvalues --   -0.20689  -0.20503  -0.18592  -0.18362  -0.17607
 Alpha  occ. eigenvalues --   -0.16324
 Alpha virt. eigenvalues --   -0.11989  -0.07351  -0.06071  -0.05071  -0.04019
 Alpha virt. eigenvalues --   -0.03270  -0.03082  -0.01967  -0.01645  -0.00011
 Alpha virt. eigenvalues --    0.01285   0.01450   0.02112   0.02290   0.02812

 Mulliken charges:
               1
     1  Mg   0.680337
     2  C    0.068155
     3  C   -0.060838
     4  C   -0.043161
     5  C   -0.097957
     6  N   -0.232625
     7  C   -0.095894
     8  C    0.049878
     9  C   -0.068998
    10  C    0.013269
    11  C    0.141104
    12  C    0.121604
    13  C    0.171098
    14  C    0.045568
    15  O   -0.221140
    16  O   -0.280184
    17  N   -0.309180
    18  C    0.175134
    19  C   -0.122547
    20  C    0.010640
    21  C    0.106390
    22  C    0.177636
    23  C   -0.126240
    24  O   -0.161917
    25  C    0.188722
    26  N   -0.208278
    27  C    0.054079
    28  C   -0.051826
    29  C    0.058446
    30  C    0.014354
    31  C    0.139353
    32  C    0.080059
    33  C    0.065832
    34  N   -0.144275
    35  C    0.129076
    36  C   -0.185539
    37  C    0.106510
    38  C    0.027313
    39  C    0.188764
    40  C   -0.083109
    41  O   -0.125372
    42  C    0.030891
    43  C    0.133678
    44  O   -0.178441
    45  O   -0.293164
    46  C    0.207486
    47  C    0.326906
    48  C   -0.063750
    49  C   -0.155949
    50  C    0.121682
    51  C    0.130924
    52  C    0.063469
    53  C    0.116598
    54  C   -0.089935
    55  C    0.136101
    56  C    0.118977
    57  C    0.026518
    58  C    0.073201
    59  C   -0.077094
    60  C    0.085405
    61  C    0.118024
    62  C    0.071316
    63  C    0.108433
    64  C   -0.086855
    65  C    0.111806
    66  C    0.080981
    67  H   -0.061135
    68  H   -0.091664
    69  H   -0.078095
    70  H   -0.024312
    71  H   -0.015893
    72  H    0.001297
    73  H   -0.006261
    74  H   -0.005815
    75  H   -0.004151
    76  H   -0.011656
    77  H    0.001646
    78  H   -0.002599
    79  H    0.015804
    80  H   -0.022135
    81  H   -0.000183
    82  H    0.017549
    83  H    0.020171
    84  H   -0.009108
    85  H   -0.004737
    86  H   -0.023727
    87  H   -0.000304
    88  H   -0.012018
    89  H   -0.017728
    90  H   -0.022309
    91  H   -0.019154
    92  H   -0.012254
    93  H   -0.009435
    94  H   -0.009200
    95  H   -0.004623
    96  H    0.014450
    97  H   -0.007556
    98  H    0.002266
    99  H    0.021861
   100  H    0.009510
   101  H    0.025537
   102  H   -0.008859
   103  H   -0.002952
   104  H   -0.045285
   105  H    0.002692
   106  H    0.009163
   107  H   -0.015523
   108  H   -0.021229
   109  H   -0.033491
   110  H   -0.029210
   111  H   -0.023971
   112  H   -0.043502
   113  H   -0.026904
   114  H   -0.035975
   115  H   -0.022108
   116  H   -0.015157
   117  H   -0.033187
   118  H   -0.031495
   119  H   -0.039991
   120  H   -0.034063
   121  H   -0.046433
   122  H   -0.034067
   123  H   -0.018273
   124  H   -0.021758
   125  H   -0.024226
   126  H   -0.013970
   127  H   -0.024350
   128  H   -0.027537
   129  H   -0.029077
   130  H   -0.025336
   131  H   -0.040491
   132  H   -0.038116
   133  H   -0.040246
   134  H   -0.018003
   135  H   -0.032862
   136  H   -0.025664
   137  H   -0.013436
   138  H   -0.016023
   139  H   -0.012418
   140  H   -0.012159
 Sum of Mulliken charges =  -0.00000

 Dipole moment (field-independent basis, Debye):
    X=              1.1126    Y=              4.9225    Z=              0.9113  Tot=              5.1282
 Quadrupole moment (field-independent basis, Debye-Ang):
   XX=           -355.1213   YY=           -456.2528   ZZ=           -407.6072
   XY=             23.7792   XZ=             -5.0127   YZ=             35.7921

 Normal termination of Gaussian 16 at Thu May  5 07:37:39 2022.
