 Gaussian 16, Revision A.03,
 Gaussian 16:  ES64L-G16RevA.03 25-Dec-2016

 -----------------------------------
 #p cam-b3lyp/Def2SVP td=(nstates=5)
 -----------------------------------

 ------------------------------------------------------
 step_701_chromophore_5 TDDFT with cam-b3lyp functional
 ------------------------------------------------------
 Symbolic Z-matrix:
 Charge =  0 Multiplicity = 1

                         Standard orientation:
 ---------------------------------------------------------------------
 Center     Atomic      Atomic             Coordinates (Angstroms)
 Number     Number       Type             X           Y           Z
 ---------------------------------------------------------------------
      1         12           0        5.059358    0.421174   -0.266258
      2          6           0        3.911911   -2.765925    0.286881
      3          6           0        2.886038    0.721621   -2.877290
      4          6           0        5.856624    3.686773   -0.381612
      5          6           0        6.936702    0.108042    2.723830
      6          7           0        3.531281   -0.876414   -1.050819
      7          6           0        3.244367   -2.135576   -0.718583
      8          6           0        2.196868   -2.721085   -1.627265
      9          6           0        2.274380   -1.758942   -2.892311
     10          6           0        2.935025   -0.520233   -2.272459
     11          6           0        3.235782   -2.318526   -3.999033
     12          6           0        0.760592   -2.656678   -1.004083
     13          6           0       -0.185622   -3.831805   -1.362888
     14          6           0       -1.488497   -3.325929   -1.960324
     15          8           0       -1.702602   -3.200140   -3.192302
     16          8           0       -2.389694   -2.978578   -0.956790
     17          7           0        4.542707    1.963403   -1.549521
     18          6           0        3.559411    1.905539   -2.532685
     19          6           0        3.423177    3.217959   -3.233771
     20          6           0        4.324612    4.109013   -2.537139
     21          6           0        4.964105    3.263021   -1.412094
     22          6           0        2.570165    3.505487   -4.437741
     23          6           0        4.488593    5.597274   -2.866056
     24          8           0        3.894605    6.097994   -3.806009
     25          6           0        5.354331    6.479115   -2.124216
     26          7           0        6.084900    1.767626    1.181804
     27          6           0        6.376589    3.030220    0.754587
     28          6           0        7.036455    3.765665    1.960882
     29          6           0        7.650388    2.577904    2.722916
     30          6           0        6.881122    1.378449    2.201189
     31          6           0        8.102085    4.886168    1.761373
     32          6           0        7.587058    2.845287    4.247633
     33          6           0        8.789232    2.348572    5.022395
     34          7           0        5.403318   -1.076238    1.247211
     35          6           0        6.206589   -1.035457    2.329739
     36          6           0        6.209047   -2.334559    2.933279
     37          6           0        5.384066   -3.105802    2.061458
     38          6           0        4.884756   -2.240148    1.154613
     39          6           0        6.881289   -2.800227    4.172260
     40          6           0        4.745961   -4.368996    1.894491
     41          8           0        4.745876   -5.409291    2.552190
     42          6           0        3.834813   -4.242993    0.636363
     43          6           0        4.239346   -5.259115   -0.455895
     44          8           0        4.235438   -6.499651   -0.318947
     45          8           0        4.872536   -4.585615   -1.504616
     46          6           0        5.346678   -5.383621   -2.658559
     47          6           0       -3.457625   -2.061008   -1.277467
     48          6           0       -3.503809   -0.875240   -0.362872
     49          6           0       -4.609387   -0.367420    0.187718
     50          6           0       -5.928881   -1.144536    0.323365
     51          6           0       -4.506317    0.892632    1.068745
     52          6           0       -5.024188    2.210969    0.412867
     53          6           0       -5.884069    3.098424    1.395798
     54          6           0       -7.399248    3.286992    0.980894
     55          6           0       -7.899686    4.674723    0.927466
     56          6           0       -8.391488    2.464241    1.830262
     57          6           0       -9.606556    2.048504    0.961530
     58          6           0       -9.549104    0.511952    0.872002
     59          6           0      -10.848139   -0.118186    0.335454
     60          6           0      -10.579906   -0.391322   -1.158744
     61          6           0      -11.244968   -1.454466    1.162508
     62          6           0      -12.705560   -1.417950    1.666553
     63          6           0      -13.781491   -1.080925    0.560512
     64          6           0      -14.484296    0.300967    0.824595
     65          6           0      -15.810765    0.065300    1.552792
     66          6           0      -14.809414    0.947258   -0.595289
     67          1           0        2.163238    0.669394   -3.694197
     68          1           0        6.100360    4.746966   -0.478655
     69          1           0        7.642872    0.040761    3.554239
     70          1           0        2.478738   -3.718665   -1.965542
     71          1           0        1.334012   -1.516281   -3.387752
     72          1           0        3.555156   -3.338003   -3.780948
     73          1           0        4.085976   -1.647429   -4.113464
     74          1           0        2.648830   -2.212572   -4.912301
     75          1           0        0.210649   -1.773367   -1.329435
     76          1           0        0.763056   -2.621473    0.085951
     77          1           0       -0.425232   -4.393832   -0.460069
     78          1           0        0.107831   -4.442622   -2.217322
     79          1           0        2.252742    4.541670   -4.552956
     80          1           0        1.686827    2.866863   -4.430814
     81          1           0        3.047322    3.225069   -5.377632
     82          1           0        6.368926    6.115365   -2.288076
     83          1           0        4.960292    6.410299   -1.110181
     84          1           0        5.256265    7.469482   -2.567347
     85          1           0        6.237341    4.296399    2.478055
     86          1           0        8.704561    2.440655    2.484457
     87          1           0        7.926693    5.615370    2.551775
     88          1           0        7.966051    5.260406    0.746255
     89          1           0        9.099396    4.448149    1.795769
     90          1           0        6.707008    2.279256    4.554376
     91          1           0        7.410170    3.867479    4.579991
     92          1           0        9.566499    1.930484    4.382696
     93          1           0        8.558011    1.525929    5.698786
     94          1           0        9.168277    3.167586    5.634107
     95          1           0        7.929637   -2.647636    3.916859
     96          1           0        6.706716   -3.832321    4.476319
     97          1           0        6.691438   -2.133579    5.013748
     98          1           0        2.840181   -4.573123    0.937152
     99          1           0        6.425390   -5.515593   -2.564034
    100          1           0        5.189252   -4.832839   -3.585115
    101          1           0        4.819194   -6.318975   -2.843662
    102          1           0       -4.387256   -2.624860   -1.356161
    103          1           0       -3.277962   -1.600257   -2.249035
    104          1           0       -2.661708   -0.187732   -0.282972
    105          1           0       -6.622817   -0.427042   -0.116123
    106          1           0       -6.256737   -1.333907    1.345341
    107          1           0       -6.046939   -2.079269   -0.225334
    108          1           0       -3.471425    0.967765    1.402114
    109          1           0       -5.158882    0.845106    1.940421
    110          1           0       -5.689090    1.932466   -0.405516
    111          1           0       -4.231643    2.773264   -0.080131
    112          1           0       -5.459523    4.102360    1.423983
    113          1           0       -5.861590    2.699438    2.409661
    114          1           0       -7.519722    2.855974   -0.012721
    115          1           0       -8.498851    5.002783    1.777117
    116          1           0       -8.480469    4.804230    0.014602
    117          1           0       -7.101975    5.416379    0.921810
    118          1           0       -8.797992    2.909295    2.738762
    119          1           0       -7.839487    1.588145    2.168907
    120          1           0       -9.758749    2.520256   -0.009227
    121          1           0      -10.531749    2.381832    1.430319
    122          1           0       -9.453056    0.161846    1.900301
    123          1           0       -8.674112    0.281520    0.264717
    124          1           0      -11.582612    0.679391    0.225434
    125          1           0      -10.408681   -1.452532   -1.339882
    126          1           0       -9.812752    0.299763   -1.507452
    127          1           0      -11.499666   -0.227990   -1.720239
    128          1           0      -10.600709   -1.541142    2.037029
    129          1           0      -11.107572   -2.275049    0.458281
    130          1           0      -12.721607   -0.825485    2.582323
    131          1           0      -12.896089   -2.434228    2.010011
    132          1           0      -14.572594   -1.830362    0.535139
    133          1           0      -13.375691   -1.107114   -0.450722
    134          1           0      -13.851125    0.844919    1.525182
    135          1           0      -15.798630    0.391572    2.592428
    136          1           0      -15.980334   -1.001499    1.701967
    137          1           0      -16.677173    0.561096    1.115531
    138          1           0      -13.961263    0.947703   -1.280398
    139          1           0      -15.146263    1.964658   -0.399930
    140          1           0      -15.581048    0.448534   -1.181853
 ---------------------------------------------------------------------

 SCF Done:  E(RCAM-B3LYP) =  -3007.15786430     A.U. after   18 cycles

 Excitation energies and oscillator strengths:

 Excited State   1:      Singlet-A      1.7309 eV  716.30 nm  f=0.3766  <S**2>=0.000
     245 -> 248        0.17230
     246 -> 247        0.68681
     245 <- 248        0.10373
 This state for optimization and/or second-order correction.
 Total Energy, E(TD-HF/TD-DFT) =  -3007.09425458
 Copying the excited state density for this state as the 1-particle RhoCI density.

 Excited State   2:      Singlet-A      2.2422 eV  552.96 nm  f=0.1193  <S**2>=0.000
     245 -> 247        0.64072
     246 -> 248       -0.28171

 Excited State   3:      Singlet-A      3.2900 eV  376.86 nm  f=0.0003  <S**2>=0.000
     243 -> 247        0.14226
     243 -> 249        0.11293
     243 -> 251       -0.10816
     244 -> 247        0.63889
     246 -> 248        0.12872

 Excited State   4:      Singlet-A      3.4470 eV  359.69 nm  f=0.0067  <S**2>=0.000
     241 -> 247        0.18751
     243 -> 247        0.55272
     243 -> 249        0.21867
     243 -> 251       -0.15861
     244 -> 247       -0.19927

 Excited State   5:      Singlet-A      3.4985 eV  354.39 nm  f=0.0770  <S**2>=0.000
     241 -> 247        0.57819
     243 -> 247       -0.17049
     246 -> 248        0.32281

 The electronic state is 1-A.
 Alpha  occ. eigenvalues --  -46.89860 -19.25666 -19.24900 -19.20202 -19.19952
 Alpha  occ. eigenvalues --  -19.18748 -19.17932 -14.42455 -14.42080 -14.41142
 Alpha  occ. eigenvalues --  -14.38535 -10.40109 -10.39828 -10.34991 -10.34124
 Alpha  occ. eigenvalues --  -10.32474 -10.32340 -10.31945 -10.31810 -10.31585
 Alpha  occ. eigenvalues --  -10.31545 -10.30432 -10.30387 -10.29986 -10.29185
 Alpha  occ. eigenvalues --  -10.28667 -10.28590 -10.28430 -10.28302 -10.28142
 Alpha  occ. eigenvalues --  -10.28040 -10.27804 -10.27653 -10.27651 -10.27644
 Alpha  occ. eigenvalues --  -10.27509 -10.27429 -10.27354 -10.27059 -10.26851
 Alpha  occ. eigenvalues --  -10.26596 -10.26428 -10.26365 -10.26252 -10.26185
 Alpha  occ. eigenvalues --  -10.26134 -10.26083 -10.25998 -10.25819 -10.25816
 Alpha  occ. eigenvalues --  -10.25743 -10.25559 -10.25394 -10.25318 -10.25311
 Alpha  occ. eigenvalues --  -10.25130 -10.25107 -10.24895 -10.24845 -10.24686
 Alpha  occ. eigenvalues --  -10.24658 -10.24404 -10.24108 -10.24021 -10.24011
 Alpha  occ. eigenvalues --  -10.23969  -3.18251  -1.93152  -1.92689  -1.92565
 Alpha  occ. eigenvalues --   -1.15241  -1.14889  -1.10706  -1.08575  -1.06925
 Alpha  occ. eigenvalues --   -1.06598  -1.06205  -1.04187  -1.04114  -1.02540
 Alpha  occ. eigenvalues --   -0.93150  -0.90611  -0.89956  -0.89711  -0.89467
 Alpha  occ. eigenvalues --   -0.89088  -0.88604  -0.88215  -0.87130  -0.87010
 Alpha  occ. eigenvalues --   -0.86463  -0.85932  -0.84692  -0.84119  -0.83923
 Alpha  occ. eigenvalues --   -0.83062  -0.82706  -0.81890  -0.80901  -0.80596
 Alpha  occ. eigenvalues --   -0.79934  -0.78584  -0.78176  -0.77601  -0.76707
 Alpha  occ. eigenvalues --   -0.76128  -0.75757  -0.75282  -0.74484  -0.73911
 Alpha  occ. eigenvalues --   -0.73541  -0.72908  -0.72189  -0.70726  -0.69431
 Alpha  occ. eigenvalues --   -0.68762  -0.68544  -0.67803  -0.66772  -0.66109
 Alpha  occ. eigenvalues --   -0.65832  -0.65531  -0.65423  -0.64790  -0.63984
 Alpha  occ. eigenvalues --   -0.63544  -0.63502  -0.63468  -0.62598  -0.60220
 Alpha  occ. eigenvalues --   -0.59945  -0.59825  -0.59629  -0.58902  -0.58213
 Alpha  occ. eigenvalues --   -0.57327  -0.57081  -0.56743  -0.56165  -0.56053
 Alpha  occ. eigenvalues --   -0.55687  -0.55179  -0.55066  -0.54293  -0.54002
 Alpha  occ. eigenvalues --   -0.53758  -0.53698  -0.53599  -0.53252  -0.53095
 Alpha  occ. eigenvalues --   -0.52806  -0.52370  -0.52143  -0.51874  -0.51716
 Alpha  occ. eigenvalues --   -0.51552  -0.51435  -0.51130  -0.51084  -0.50949
 Alpha  occ. eigenvalues --   -0.50635  -0.50445  -0.50115  -0.49902  -0.49796
 Alpha  occ. eigenvalues --   -0.49698  -0.49522  -0.49262  -0.48928  -0.48772
 Alpha  occ. eigenvalues --   -0.48622  -0.48576  -0.48156  -0.48146  -0.47773
 Alpha  occ. eigenvalues --   -0.47605  -0.47247  -0.47116  -0.47012  -0.46890
 Alpha  occ. eigenvalues --   -0.46656  -0.46529  -0.46504  -0.46148  -0.45997
 Alpha  occ. eigenvalues --   -0.45941  -0.45563  -0.45391  -0.45185  -0.44834
 Alpha  occ. eigenvalues --   -0.44745  -0.44617  -0.44424  -0.44398  -0.43631
 Alpha  occ. eigenvalues --   -0.43558  -0.43411  -0.43347  -0.43186  -0.43052
 Alpha  occ. eigenvalues --   -0.42934  -0.42863  -0.42748  -0.42487  -0.42254
 Alpha  occ. eigenvalues --   -0.42212  -0.41915  -0.41664  -0.41553  -0.41386
 Alpha  occ. eigenvalues --   -0.41135  -0.41128  -0.41032  -0.40886  -0.40529
 Alpha  occ. eigenvalues --   -0.40405  -0.39614  -0.39502  -0.39172  -0.38672
 Alpha  occ. eigenvalues --   -0.38534  -0.38452  -0.38343  -0.38125  -0.37637
 Alpha  occ. eigenvalues --   -0.37377  -0.37365  -0.36581  -0.36531  -0.36432
 Alpha  occ. eigenvalues --   -0.36274  -0.36148  -0.35164  -0.34571  -0.34361
 Alpha  occ. eigenvalues --   -0.34157  -0.33461  -0.33430  -0.31657  -0.31142
 Alpha  occ. eigenvalues --   -0.30688  -0.30446  -0.30158  -0.29377  -0.24532
 Alpha  occ. eigenvalues --   -0.21705
 Alpha virt. eigenvalues --   -0.09167  -0.02202   0.00419   0.01740   0.01915
 Alpha virt. eigenvalues --    0.03705   0.04489   0.05171   0.05585   0.06682
 Alpha virt. eigenvalues --    0.07915   0.08249   0.08574   0.08706   0.09131

 Mulliken charges:
               1
     1  Mg   0.811841
     2  C    0.040508
     3  C   -0.074093
     4  C   -0.069582
     5  C   -0.097910
     6  N   -0.301929
     7  C   -0.053081
     8  C   -0.004766
     9  C   -0.116834
    10  C    0.026257
    11  C    0.091494
    12  C    0.072014
    13  C    0.099970
    14  C    0.130187
    15  O   -0.263677
    16  O   -0.344139
    17  N   -0.396427
    18  C    0.182438
    19  C   -0.123589
    20  C   -0.057489
    21  C    0.141474
    22  C    0.121608
    23  C   -0.040290
    24  O   -0.203122
    25  C    0.094012
    26  N   -0.278709
    27  C    0.082648
    28  C   -0.106001
    29  C   -0.002262
    30  C    0.032400
    31  C    0.087022
    32  C    0.024408
    33  C    0.001401
    34  N   -0.238115
    35  C    0.125466
    36  C   -0.178890
    37  C    0.027587
    38  C    0.064741
    39  C    0.131986
    40  C    0.010223
    41  O   -0.167270
    42  C   -0.033036
    43  C    0.218190
    44  O   -0.216137
    45  O   -0.356034
    46  C    0.171924
    47  C    0.286264
    48  C   -0.081550
    49  C   -0.176059
    50  C    0.064255
    51  C    0.071613
    52  C    0.012349
    53  C    0.059269
    54  C   -0.143810
    55  C    0.073992
    56  C    0.064366
    57  C   -0.022414
    58  C    0.027416
    59  C   -0.137941
    60  C    0.037371
    61  C    0.070015
    62  C    0.019538
    63  C    0.049302
    64  C   -0.147172
    65  C    0.051687
    66  C    0.025195
    67  H   -0.024019
    68  H   -0.057099
    69  H   -0.042065
    70  H    0.009241
    71  H    0.018455
    72  H    0.018359
    73  H    0.019509
    74  H    0.019014
    75  H    0.023003
    76  H    0.021265
    77  H    0.036410
    78  H    0.029769
    79  H    0.048162
    80  H    0.004086
    81  H    0.029055
    82  H    0.044778
    83  H    0.045735
    84  H    0.029783
    85  H    0.029036
    86  H    0.010199
    87  H    0.023938
    88  H    0.010144
    89  H    0.007801
    90  H    0.009545
    91  H    0.008937
    92  H    0.010489
    93  H    0.014438
    94  H    0.015550
    95  H    0.018688
    96  H    0.042560
    97  H    0.016834
    98  H    0.041166
    99  H    0.044857
   100  H    0.027669
   101  H    0.049927
   102  H    0.020155
   103  H    0.030085
   104  H   -0.012752
   105  H    0.018802
   106  H    0.032762
   107  H    0.009993
   108  H    0.009692
   109  H   -0.004497
   110  H   -0.002186
   111  H    0.004770
   112  H   -0.012302
   113  H    0.001204
   114  H   -0.004772
   115  H    0.002737
   116  H    0.008937
   117  H   -0.007049
   118  H   -0.001468
   119  H   -0.013840
   120  H   -0.007906
   121  H   -0.016028
   122  H   -0.006173
   123  H    0.002279
   124  H    0.005543
   125  H   -0.000160
   126  H    0.009243
   127  H   -0.003454
   128  H    0.001104
   129  H   -0.002152
   130  H    0.000730
   131  H   -0.009824
   132  H   -0.007813
   133  H   -0.012985
   134  H    0.010968
   135  H   -0.007388
   136  H   -0.001277
   137  H    0.011297
   138  H    0.004380
   139  H    0.012086
   140  H    0.011937
 Sum of Mulliken charges =  -0.00000

 Dipole moment (field-independent basis, Debye):
    X=              1.0514    Y=              5.8039    Z=              0.3418  Tot=              5.9083
 Quadrupole moment (field-independent basis, Debye-Ang):
   XX=           -354.1591   YY=           -454.4046   ZZ=           -406.4053
   XY=             28.8954   XZ=             -7.3410   YZ=             36.8394

 Normal termination of Gaussian 16 at Thu May  5 06:32:30 2022.
