 Gaussian 16, Revision A.03,
 Gaussian 16:  ES64L-G16RevA.03 25-Dec-2016

 ---------------------------------
 #p PBE1PBE/Def2SVP td=(nstates=5)
 ---------------------------------

 ----------------------------------------------------
 step_701_chromophore_5 TDDFT with PBE1PBE functional
 ----------------------------------------------------
 Symbolic Z-matrix:
 Charge =  0 Multiplicity = 1

                         Standard orientation:
 ---------------------------------------------------------------------
 Center     Atomic      Atomic             Coordinates (Angstroms)
 Number     Number       Type             X           Y           Z
 ---------------------------------------------------------------------
      1         12           0        5.059358    0.421174   -0.266258
      2          6           0        3.911911   -2.765925    0.286881
      3          6           0        2.886038    0.721621   -2.877290
      4          6           0        5.856624    3.686773   -0.381612
      5          6           0        6.936702    0.108042    2.723830
      6          7           0        3.531281   -0.876414   -1.050819
      7          6           0        3.244367   -2.135576   -0.718583
      8          6           0        2.196868   -2.721085   -1.627265
      9          6           0        2.274380   -1.758942   -2.892311
     10          6           0        2.935025   -0.520233   -2.272459
     11          6           0        3.235782   -2.318526   -3.999033
     12          6           0        0.760592   -2.656678   -1.004083
     13          6           0       -0.185622   -3.831805   -1.362888
     14          6           0       -1.488497   -3.325929   -1.960324
     15          8           0       -1.702602   -3.200140   -3.192302
     16          8           0       -2.389694   -2.978578   -0.956790
     17          7           0        4.542707    1.963403   -1.549521
     18          6           0        3.559411    1.905539   -2.532685
     19          6           0        3.423177    3.217959   -3.233771
     20          6           0        4.324612    4.109013   -2.537139
     21          6           0        4.964105    3.263021   -1.412094
     22          6           0        2.570165    3.505487   -4.437741
     23          6           0        4.488593    5.597274   -2.866056
     24          8           0        3.894605    6.097994   -3.806009
     25          6           0        5.354331    6.479115   -2.124216
     26          7           0        6.084900    1.767626    1.181804
     27          6           0        6.376589    3.030220    0.754587
     28          6           0        7.036455    3.765665    1.960882
     29          6           0        7.650388    2.577904    2.722916
     30          6           0        6.881122    1.378449    2.201189
     31          6           0        8.102085    4.886168    1.761373
     32          6           0        7.587058    2.845287    4.247633
     33          6           0        8.789232    2.348572    5.022395
     34          7           0        5.403318   -1.076238    1.247211
     35          6           0        6.206589   -1.035457    2.329739
     36          6           0        6.209047   -2.334559    2.933279
     37          6           0        5.384066   -3.105802    2.061458
     38          6           0        4.884756   -2.240148    1.154613
     39          6           0        6.881289   -2.800227    4.172260
     40          6           0        4.745961   -4.368996    1.894491
     41          8           0        4.745876   -5.409291    2.552190
     42          6           0        3.834813   -4.242993    0.636363
     43          6           0        4.239346   -5.259115   -0.455895
     44          8           0        4.235438   -6.499651   -0.318947
     45          8           0        4.872536   -4.585615   -1.504616
     46          6           0        5.346678   -5.383621   -2.658559
     47          6           0       -3.457625   -2.061008   -1.277467
     48          6           0       -3.503809   -0.875240   -0.362872
     49          6           0       -4.609387   -0.367420    0.187718
     50          6           0       -5.928881   -1.144536    0.323365
     51          6           0       -4.506317    0.892632    1.068745
     52          6           0       -5.024188    2.210969    0.412867
     53          6           0       -5.884069    3.098424    1.395798
     54          6           0       -7.399248    3.286992    0.980894
     55          6           0       -7.899686    4.674723    0.927466
     56          6           0       -8.391488    2.464241    1.830262
     57          6           0       -9.606556    2.048504    0.961530
     58          6           0       -9.549104    0.511952    0.872002
     59          6           0      -10.848139   -0.118186    0.335454
     60          6           0      -10.579906   -0.391322   -1.158744
     61          6           0      -11.244968   -1.454466    1.162508
     62          6           0      -12.705560   -1.417950    1.666553
     63          6           0      -13.781491   -1.080925    0.560512
     64          6           0      -14.484296    0.300967    0.824595
     65          6           0      -15.810765    0.065300    1.552792
     66          6           0      -14.809414    0.947258   -0.595289
     67          1           0        2.163238    0.669394   -3.694197
     68          1           0        6.100360    4.746966   -0.478655
     69          1           0        7.642872    0.040761    3.554239
     70          1           0        2.478738   -3.718665   -1.965542
     71          1           0        1.334012   -1.516281   -3.387752
     72          1           0        3.555156   -3.338003   -3.780948
     73          1           0        4.085976   -1.647429   -4.113464
     74          1           0        2.648830   -2.212572   -4.912301
     75          1           0        0.210649   -1.773367   -1.329435
     76          1           0        0.763056   -2.621473    0.085951
     77          1           0       -0.425232   -4.393832   -0.460069
     78          1           0        0.107831   -4.442622   -2.217322
     79          1           0        2.252742    4.541670   -4.552956
     80          1           0        1.686827    2.866863   -4.430814
     81          1           0        3.047322    3.225069   -5.377632
     82          1           0        6.368926    6.115365   -2.288076
     83          1           0        4.960292    6.410299   -1.110181
     84          1           0        5.256265    7.469482   -2.567347
     85          1           0        6.237341    4.296399    2.478055
     86          1           0        8.704561    2.440655    2.484457
     87          1           0        7.926693    5.615370    2.551775
     88          1           0        7.966051    5.260406    0.746255
     89          1           0        9.099396    4.448149    1.795769
     90          1           0        6.707008    2.279256    4.554376
     91          1           0        7.410170    3.867479    4.579991
     92          1           0        9.566499    1.930484    4.382696
     93          1           0        8.558011    1.525929    5.698786
     94          1           0        9.168277    3.167586    5.634107
     95          1           0        7.929637   -2.647636    3.916859
     96          1           0        6.706716   -3.832321    4.476319
     97          1           0        6.691438   -2.133579    5.013748
     98          1           0        2.840181   -4.573123    0.937152
     99          1           0        6.425390   -5.515593   -2.564034
    100          1           0        5.189252   -4.832839   -3.585115
    101          1           0        4.819194   -6.318975   -2.843662
    102          1           0       -4.387256   -2.624860   -1.356161
    103          1           0       -3.277962   -1.600257   -2.249035
    104          1           0       -2.661708   -0.187732   -0.282972
    105          1           0       -6.622817   -0.427042   -0.116123
    106          1           0       -6.256737   -1.333907    1.345341
    107          1           0       -6.046939   -2.079269   -0.225334
    108          1           0       -3.471425    0.967765    1.402114
    109          1           0       -5.158882    0.845106    1.940421
    110          1           0       -5.689090    1.932466   -0.405516
    111          1           0       -4.231643    2.773264   -0.080131
    112          1           0       -5.459523    4.102360    1.423983
    113          1           0       -5.861590    2.699438    2.409661
    114          1           0       -7.519722    2.855974   -0.012721
    115          1           0       -8.498851    5.002783    1.777117
    116          1           0       -8.480469    4.804230    0.014602
    117          1           0       -7.101975    5.416379    0.921810
    118          1           0       -8.797992    2.909295    2.738762
    119          1           0       -7.839487    1.588145    2.168907
    120          1           0       -9.758749    2.520256   -0.009227
    121          1           0      -10.531749    2.381832    1.430319
    122          1           0       -9.453056    0.161846    1.900301
    123          1           0       -8.674112    0.281520    0.264717
    124          1           0      -11.582612    0.679391    0.225434
    125          1           0      -10.408681   -1.452532   -1.339882
    126          1           0       -9.812752    0.299763   -1.507452
    127          1           0      -11.499666   -0.227990   -1.720239
    128          1           0      -10.600709   -1.541142    2.037029
    129          1           0      -11.107572   -2.275049    0.458281
    130          1           0      -12.721607   -0.825485    2.582323
    131          1           0      -12.896089   -2.434228    2.010011
    132          1           0      -14.572594   -1.830362    0.535139
    133          1           0      -13.375691   -1.107114   -0.450722
    134          1           0      -13.851125    0.844919    1.525182
    135          1           0      -15.798630    0.391572    2.592428
    136          1           0      -15.980334   -1.001499    1.701967
    137          1           0      -16.677173    0.561096    1.115531
    138          1           0      -13.961263    0.947703   -1.280398
    139          1           0      -15.146263    1.964658   -0.399930
    140          1           0      -15.581048    0.448534   -1.181853
 ---------------------------------------------------------------------

 SCF Done:  E(RPBE1PBE) =  -3005.34698320     A.U. after   15 cycles

 Excitation energies and oscillator strengths:

 Excited State   1:      Singlet-A      1.8783 eV  660.07 nm  f=0.3634  <S**2>=0.000
     245 -> 248       -0.16963
     246 -> 247        0.69292
     246 <- 247       -0.10787
 This state for optimization and/or second-order correction.
 Total Energy, E(TD-HF/TD-DFT) =  -3005.27795555
 Copying the excited state density for this state as the 1-particle RhoCI density.

 Excited State   2:      Singlet-A      2.2487 eV  551.36 nm  f=0.1136  <S**2>=0.000
     245 -> 247        0.65150
     246 -> 248        0.25221

 Excited State   3:      Singlet-A      2.7911 eV  444.21 nm  f=0.0023  <S**2>=0.000
     243 -> 247        0.15590
     244 -> 247        0.66245
     244 -> 249       -0.11320

 Excited State   4:      Singlet-A      2.9976 eV  413.61 nm  f=0.0003  <S**2>=0.000
     242 -> 247        0.62869
     242 -> 248        0.10117
     242 -> 249        0.12710
     242 -> 250        0.10011
     243 -> 247        0.24310

 Excited State   5:      Singlet-A      3.0190 eV  410.67 nm  f=0.0040  <S**2>=0.000
     242 -> 247       -0.24088
     243 -> 247        0.62205
     244 -> 247       -0.15844

 The electronic state is 1-A.
 Alpha  occ. eigenvalues --  -46.93223 -19.26371 -19.25602 -19.20525 -19.20257
 Alpha  occ. eigenvalues --  -19.18825 -19.18379 -14.41941 -14.41582 -14.40652
 Alpha  occ. eigenvalues --  -14.38267 -10.37207 -10.36908 -10.31963 -10.31431
 Alpha  occ. eigenvalues --  -10.29933 -10.29596 -10.29517 -10.29183 -10.29161
 Alpha  occ. eigenvalues --  -10.28984 -10.28251 -10.28238 -10.27412 -10.27151
 Alpha  occ. eigenvalues --  -10.26430 -10.26218 -10.26212 -10.26026 -10.25919
 Alpha  occ. eigenvalues --  -10.25687 -10.25600 -10.25398 -10.25373 -10.25230
 Alpha  occ. eigenvalues --  -10.25157 -10.25155 -10.25023 -10.24906 -10.24540
 Alpha  occ. eigenvalues --  -10.24041 -10.24028 -10.23888 -10.23828 -10.23637
 Alpha  occ. eigenvalues --  -10.23467 -10.23446 -10.23417 -10.23387 -10.23371
 Alpha  occ. eigenvalues --  -10.23268 -10.23027 -10.23003 -10.22968 -10.22900
 Alpha  occ. eigenvalues --  -10.22828 -10.22678 -10.22434 -10.22312 -10.22247
 Alpha  occ. eigenvalues --  -10.22239 -10.21986 -10.21949 -10.21516 -10.21408
 Alpha  occ. eigenvalues --  -10.21325  -3.15200  -1.88040  -1.87555  -1.87435
 Alpha  occ. eigenvalues --   -1.10057  -1.09682  -1.05297  -1.03487  -1.01787
 Alpha  occ. eigenvalues --   -1.01465  -1.01128  -0.98795  -0.98689  -0.97022
 Alpha  occ. eigenvalues --   -0.87638  -0.84719  -0.84100  -0.83992  -0.83662
 Alpha  occ. eigenvalues --   -0.83361  -0.82688  -0.82552  -0.81455  -0.81235
 Alpha  occ. eigenvalues --   -0.80588  -0.80170  -0.78838  -0.78316  -0.78178
 Alpha  occ. eigenvalues --   -0.77288  -0.76870  -0.76232  -0.75197  -0.74865
 Alpha  occ. eigenvalues --   -0.74117  -0.72918  -0.72483  -0.71797  -0.71031
 Alpha  occ. eigenvalues --   -0.70320  -0.70066  -0.69362  -0.68605  -0.68186
 Alpha  occ. eigenvalues --   -0.67896  -0.67271  -0.66620  -0.65014  -0.63859
 Alpha  occ. eigenvalues --   -0.63245  -0.62752  -0.62137  -0.60997  -0.60518
 Alpha  occ. eigenvalues --   -0.60330  -0.59894  -0.59714  -0.59361  -0.58222
 Alpha  occ. eigenvalues --   -0.58094  -0.57935  -0.57668  -0.56763  -0.54819
 Alpha  occ. eigenvalues --   -0.54453  -0.54289  -0.54111  -0.53553  -0.52847
 Alpha  occ. eigenvalues --   -0.51787  -0.51536  -0.51239  -0.50619  -0.50554
 Alpha  occ. eigenvalues --   -0.50190  -0.49651  -0.49509  -0.48888  -0.48433
 Alpha  occ. eigenvalues --   -0.48240  -0.48107  -0.48083  -0.47915  -0.47602
 Alpha  occ. eigenvalues --   -0.47329  -0.46923  -0.46724  -0.46495  -0.46256
 Alpha  occ. eigenvalues --   -0.46060  -0.45917  -0.45737  -0.45680  -0.45538
 Alpha  occ. eigenvalues --   -0.45179  -0.45133  -0.44715  -0.44429  -0.44392
 Alpha  occ. eigenvalues --   -0.44191  -0.44066  -0.43897  -0.43579  -0.43306
 Alpha  occ. eigenvalues --   -0.43252  -0.43139  -0.42843  -0.42736  -0.42377
 Alpha  occ. eigenvalues --   -0.42244  -0.41986  -0.41786  -0.41704  -0.41568
 Alpha  occ. eigenvalues --   -0.41269  -0.41226  -0.41164  -0.40780  -0.40747
 Alpha  occ. eigenvalues --   -0.40711  -0.40235  -0.40122  -0.40035  -0.39475
 Alpha  occ. eigenvalues --   -0.39429  -0.39304  -0.39155  -0.39076  -0.38389
 Alpha  occ. eigenvalues --   -0.38246  -0.38232  -0.38061  -0.37994  -0.37841
 Alpha  occ. eigenvalues --   -0.37793  -0.37631  -0.37537  -0.37274  -0.37049
 Alpha  occ. eigenvalues --   -0.37044  -0.36691  -0.36541  -0.36435  -0.36217
 Alpha  occ. eigenvalues --   -0.36053  -0.35937  -0.35833  -0.35617  -0.35440
 Alpha  occ. eigenvalues --   -0.35158  -0.34452  -0.34343  -0.33934  -0.33627
 Alpha  occ. eigenvalues --   -0.33303  -0.33275  -0.33181  -0.33092  -0.32694
 Alpha  occ. eigenvalues --   -0.32204  -0.32148  -0.31582  -0.31483  -0.31349
 Alpha  occ. eigenvalues --   -0.31154  -0.31124  -0.30099  -0.29741  -0.29469
 Alpha  occ. eigenvalues --   -0.29052  -0.28862  -0.28406  -0.27244  -0.26103
 Alpha  occ. eigenvalues --   -0.25753  -0.25712  -0.25476  -0.24955  -0.21438
 Alpha  occ. eigenvalues --   -0.19308
 Alpha virt. eigenvalues --   -0.11621  -0.05697  -0.03784  -0.02517  -0.01097
 Alpha virt. eigenvalues --   -0.00814  -0.00129   0.00915   0.01355   0.02856
 Alpha virt. eigenvalues --    0.04105   0.04442   0.04960   0.05175   0.05727

 Mulliken charges:
               1
     1  Mg   0.952949
     2  C    0.025349
     3  C   -0.059635
     4  C   -0.076758
     5  C   -0.086444
     6  N   -0.404663
     7  C    0.028138
     8  C   -0.083474
     9  C   -0.190474
    10  C    0.050481
    11  C    0.033750
    12  C    0.028113
    13  C    0.025985
    14  C    0.192360
    15  O   -0.294813
    16  O   -0.371969
    17  N   -0.508141
    18  C    0.194260
    19  C   -0.143682
    20  C   -0.104442
    21  C    0.172611
    22  C    0.065418
    23  C    0.012081
    24  O   -0.239974
    25  C    0.010995
    26  N   -0.379913
    27  C    0.122270
    28  C   -0.182112
    29  C   -0.087268
    30  C    0.076868
    31  C    0.030651
    32  C   -0.030397
    33  C   -0.070192
    34  N   -0.377808
    35  C    0.148719
    36  C   -0.199543
    37  C   -0.008946
    38  C    0.118901
    39  C    0.078063
    40  C    0.099096
    41  O   -0.211282
    42  C   -0.124743
    43  C    0.297437
    44  O   -0.249910
    45  O   -0.384186
    46  C    0.117544
    47  C    0.243175
    48  C   -0.097295
    49  C   -0.213130
    50  C   -0.004573
    51  C    0.005567
    52  C   -0.046345
    53  C    0.001189
    54  C   -0.231589
    55  C    0.019376
    56  C    0.006000
    57  C   -0.076332
    58  C   -0.045049
    59  C   -0.220105
    60  C   -0.021236
    61  C    0.013168
    62  C   -0.044426
    63  C   -0.005638
    64  C   -0.242498
    65  C   -0.002177
    66  C   -0.039784
    67  H    0.006625
    68  H   -0.019172
    69  H   -0.006170
    70  H    0.049727
    71  H    0.051898
    72  H    0.049528
    73  H    0.048357
    74  H    0.046591
    75  H    0.056143
    76  H    0.053509
    77  H    0.068016
    78  H    0.060934
    79  H    0.073650
    80  H    0.031067
    81  H    0.056164
    82  H    0.071521
    83  H    0.071508
    84  H    0.057574
    85  H    0.065853
    86  H    0.048050
    87  H    0.050190
    88  H    0.038988
    89  H    0.035131
    90  H    0.043547
    91  H    0.040811
    92  H    0.036936
    93  H    0.041122
    94  H    0.043675
    95  H    0.048139
    96  H    0.069692
    97  H    0.045613
    98  H    0.078685
    99  H    0.067188
   100  H    0.048508
   101  H    0.070314
   102  H    0.046628
   103  H    0.058073
   104  H    0.017655
   105  H    0.051599
   106  H    0.059133
   107  H    0.036406
   108  H    0.041434
   109  H    0.029301
   110  H    0.031135
   111  H    0.036939
   112  H    0.021333
   113  H    0.032503
   114  H    0.034537
   115  H    0.029639
   116  H    0.035856
   117  H    0.020495
   118  H    0.030770
   119  H    0.020362
   120  H    0.022710
   121  H    0.017185
   122  H    0.028055
   123  H    0.045639
   124  H    0.046910
   125  H    0.027162
   126  H    0.036316
   127  H    0.025062
   128  H    0.032393
   129  H    0.029963
   130  H    0.032175
   131  H    0.024465
   132  H    0.024292
   133  H    0.021590
   134  H    0.046034
   135  H    0.020699
   136  H    0.025186
   137  H    0.037801
   138  H    0.032879
   139  H    0.040938
   140  H    0.039274
 Sum of Mulliken charges =  -0.00000

 Dipole moment (field-independent basis, Debye):
    X=              1.1559    Y=              5.5309    Z=              0.6849  Tot=              5.6917
 Quadrupole moment (field-independent basis, Debye-Ang):
   XX=           -348.3712   YY=           -451.8818   ZZ=           -402.4270
   XY=             27.7090   XZ=             -4.6639   YZ=             37.4466

 Normal termination of Gaussian 16 at Thu May  5 06:51:01 2022.
