 Gaussian 16, Revision A.03,
 Gaussian 16:  ES64L-G16RevA.03 25-Dec-2016

 --------------------------------
 #p wB97XD/Def2SVP td=(nstates=5)
 --------------------------------

 ---------------------------------------------------
 step_701_chromophore_5 TDDFT with wB97XD functional
 ---------------------------------------------------
 Symbolic Z-matrix:
 Charge =  0 Multiplicity = 1

                         Standard orientation:
 ---------------------------------------------------------------------
 Center     Atomic      Atomic             Coordinates (Angstroms)
 Number     Number       Type             X           Y           Z
 ---------------------------------------------------------------------
      1         12           0        5.059358    0.421174   -0.266258
      2          6           0        3.911911   -2.765925    0.286881
      3          6           0        2.886038    0.721621   -2.877290
      4          6           0        5.856624    3.686773   -0.381612
      5          6           0        6.936702    0.108042    2.723830
      6          7           0        3.531281   -0.876414   -1.050819
      7          6           0        3.244367   -2.135576   -0.718583
      8          6           0        2.196868   -2.721085   -1.627265
      9          6           0        2.274380   -1.758942   -2.892311
     10          6           0        2.935025   -0.520233   -2.272459
     11          6           0        3.235782   -2.318526   -3.999033
     12          6           0        0.760592   -2.656678   -1.004083
     13          6           0       -0.185622   -3.831805   -1.362888
     14          6           0       -1.488497   -3.325929   -1.960324
     15          8           0       -1.702602   -3.200140   -3.192302
     16          8           0       -2.389694   -2.978578   -0.956790
     17          7           0        4.542707    1.963403   -1.549521
     18          6           0        3.559411    1.905539   -2.532685
     19          6           0        3.423177    3.217959   -3.233771
     20          6           0        4.324612    4.109013   -2.537139
     21          6           0        4.964105    3.263021   -1.412094
     22          6           0        2.570165    3.505487   -4.437741
     23          6           0        4.488593    5.597274   -2.866056
     24          8           0        3.894605    6.097994   -3.806009
     25          6           0        5.354331    6.479115   -2.124216
     26          7           0        6.084900    1.767626    1.181804
     27          6           0        6.376589    3.030220    0.754587
     28          6           0        7.036455    3.765665    1.960882
     29          6           0        7.650388    2.577904    2.722916
     30          6           0        6.881122    1.378449    2.201189
     31          6           0        8.102085    4.886168    1.761373
     32          6           0        7.587058    2.845287    4.247633
     33          6           0        8.789232    2.348572    5.022395
     34          7           0        5.403318   -1.076238    1.247211
     35          6           0        6.206589   -1.035457    2.329739
     36          6           0        6.209047   -2.334559    2.933279
     37          6           0        5.384066   -3.105802    2.061458
     38          6           0        4.884756   -2.240148    1.154613
     39          6           0        6.881289   -2.800227    4.172260
     40          6           0        4.745961   -4.368996    1.894491
     41          8           0        4.745876   -5.409291    2.552190
     42          6           0        3.834813   -4.242993    0.636363
     43          6           0        4.239346   -5.259115   -0.455895
     44          8           0        4.235438   -6.499651   -0.318947
     45          8           0        4.872536   -4.585615   -1.504616
     46          6           0        5.346678   -5.383621   -2.658559
     47          6           0       -3.457625   -2.061008   -1.277467
     48          6           0       -3.503809   -0.875240   -0.362872
     49          6           0       -4.609387   -0.367420    0.187718
     50          6           0       -5.928881   -1.144536    0.323365
     51          6           0       -4.506317    0.892632    1.068745
     52          6           0       -5.024188    2.210969    0.412867
     53          6           0       -5.884069    3.098424    1.395798
     54          6           0       -7.399248    3.286992    0.980894
     55          6           0       -7.899686    4.674723    0.927466
     56          6           0       -8.391488    2.464241    1.830262
     57          6           0       -9.606556    2.048504    0.961530
     58          6           0       -9.549104    0.511952    0.872002
     59          6           0      -10.848139   -0.118186    0.335454
     60          6           0      -10.579906   -0.391322   -1.158744
     61          6           0      -11.244968   -1.454466    1.162508
     62          6           0      -12.705560   -1.417950    1.666553
     63          6           0      -13.781491   -1.080925    0.560512
     64          6           0      -14.484296    0.300967    0.824595
     65          6           0      -15.810765    0.065300    1.552792
     66          6           0      -14.809414    0.947258   -0.595289
     67          1           0        2.163238    0.669394   -3.694197
     68          1           0        6.100360    4.746966   -0.478655
     69          1           0        7.642872    0.040761    3.554239
     70          1           0        2.478738   -3.718665   -1.965542
     71          1           0        1.334012   -1.516281   -3.387752
     72          1           0        3.555156   -3.338003   -3.780948
     73          1           0        4.085976   -1.647429   -4.113464
     74          1           0        2.648830   -2.212572   -4.912301
     75          1           0        0.210649   -1.773367   -1.329435
     76          1           0        0.763056   -2.621473    0.085951
     77          1           0       -0.425232   -4.393832   -0.460069
     78          1           0        0.107831   -4.442622   -2.217322
     79          1           0        2.252742    4.541670   -4.552956
     80          1           0        1.686827    2.866863   -4.430814
     81          1           0        3.047322    3.225069   -5.377632
     82          1           0        6.368926    6.115365   -2.288076
     83          1           0        4.960292    6.410299   -1.110181
     84          1           0        5.256265    7.469482   -2.567347
     85          1           0        6.237341    4.296399    2.478055
     86          1           0        8.704561    2.440655    2.484457
     87          1           0        7.926693    5.615370    2.551775
     88          1           0        7.966051    5.260406    0.746255
     89          1           0        9.099396    4.448149    1.795769
     90          1           0        6.707008    2.279256    4.554376
     91          1           0        7.410170    3.867479    4.579991
     92          1           0        9.566499    1.930484    4.382696
     93          1           0        8.558011    1.525929    5.698786
     94          1           0        9.168277    3.167586    5.634107
     95          1           0        7.929637   -2.647636    3.916859
     96          1           0        6.706716   -3.832321    4.476319
     97          1           0        6.691438   -2.133579    5.013748
     98          1           0        2.840181   -4.573123    0.937152
     99          1           0        6.425390   -5.515593   -2.564034
    100          1           0        5.189252   -4.832839   -3.585115
    101          1           0        4.819194   -6.318975   -2.843662
    102          1           0       -4.387256   -2.624860   -1.356161
    103          1           0       -3.277962   -1.600257   -2.249035
    104          1           0       -2.661708   -0.187732   -0.282972
    105          1           0       -6.622817   -0.427042   -0.116123
    106          1           0       -6.256737   -1.333907    1.345341
    107          1           0       -6.046939   -2.079269   -0.225334
    108          1           0       -3.471425    0.967765    1.402114
    109          1           0       -5.158882    0.845106    1.940421
    110          1           0       -5.689090    1.932466   -0.405516
    111          1           0       -4.231643    2.773264   -0.080131
    112          1           0       -5.459523    4.102360    1.423983
    113          1           0       -5.861590    2.699438    2.409661
    114          1           0       -7.519722    2.855974   -0.012721
    115          1           0       -8.498851    5.002783    1.777117
    116          1           0       -8.480469    4.804230    0.014602
    117          1           0       -7.101975    5.416379    0.921810
    118          1           0       -8.797992    2.909295    2.738762
    119          1           0       -7.839487    1.588145    2.168907
    120          1           0       -9.758749    2.520256   -0.009227
    121          1           0      -10.531749    2.381832    1.430319
    122          1           0       -9.453056    0.161846    1.900301
    123          1           0       -8.674112    0.281520    0.264717
    124          1           0      -11.582612    0.679391    0.225434
    125          1           0      -10.408681   -1.452532   -1.339882
    126          1           0       -9.812752    0.299763   -1.507452
    127          1           0      -11.499666   -0.227990   -1.720239
    128          1           0      -10.600709   -1.541142    2.037029
    129          1           0      -11.107572   -2.275049    0.458281
    130          1           0      -12.721607   -0.825485    2.582323
    131          1           0      -12.896089   -2.434228    2.010011
    132          1           0      -14.572594   -1.830362    0.535139
    133          1           0      -13.375691   -1.107114   -0.450722
    134          1           0      -13.851125    0.844919    1.525182
    135          1           0      -15.798630    0.391572    2.592428
    136          1           0      -15.980334   -1.001499    1.701967
    137          1           0      -16.677173    0.561096    1.115531
    138          1           0      -13.961263    0.947703   -1.280398
    139          1           0      -15.146263    1.964658   -0.399930
    140          1           0      -15.581048    0.448534   -1.181853
 ---------------------------------------------------------------------

 SCF Done:  E(RwB97XD) =  -3007.85777123     A.U. after   19 cycles

 Excitation energies and oscillator strengths:

 Excited State   1:      Singlet-A      1.6816 eV  737.29 nm  f=0.3757  <S**2>=0.000
     245 -> 248        0.17710
     246 -> 247        0.68478
     245 <- 248        0.11255
 This state for optimization and/or second-order correction.
 Total Energy, E(TD-HF/TD-DFT) =  -3007.79597266
 Copying the excited state density for this state as the 1-particle RhoCI density.

 Excited State   2:      Singlet-A      2.1910 eV  565.88 nm  f=0.1168  <S**2>=0.000
     245 -> 247        0.63846
     246 -> 248       -0.28474

 Excited State   3:      Singlet-A      3.3391 eV  371.31 nm  f=0.0014  <S**2>=0.000
     243 -> 249        0.10428
     243 -> 250        0.11157
     244 -> 247        0.63558
     244 -> 249        0.13306
     246 -> 248        0.14920

 Excited State   4:      Singlet-A      3.5014 eV  354.10 nm  f=0.0250  <S**2>=0.000
     241 -> 247        0.37483
     243 -> 247        0.45981
     243 -> 249        0.19988
     243 -> 250        0.13859
     244 -> 247       -0.11444
     246 -> 248        0.14744

 Excited State   5:      Singlet-A      3.5275 eV  351.48 nm  f=0.0833  <S**2>=0.000
     240 -> 247       -0.11139
     241 -> 247        0.44096
     243 -> 247       -0.34868
     243 -> 249       -0.14505
     243 -> 250       -0.10457
     246 -> 248        0.31779

 The electronic state is 1-A.
 Alpha  occ. eigenvalues --  -46.96201 -19.30879 -19.30150 -19.25178 -19.24915
 Alpha  occ. eigenvalues --  -19.23809 -19.22950 -14.47077 -14.46660 -14.45780
 Alpha  occ. eigenvalues --  -14.43078 -10.43983 -10.43673 -10.38969 -10.38101
 Alpha  occ. eigenvalues --  -10.36618 -10.36096 -10.36027 -10.35689 -10.35683
 Alpha  occ. eigenvalues --  -10.35675 -10.34405 -10.34332 -10.34224 -10.33130
 Alpha  occ. eigenvalues --  -10.32862 -10.32682 -10.32513 -10.32336 -10.32193
 Alpha  occ. eigenvalues --  -10.32018 -10.31897 -10.31718 -10.31714 -10.31557
 Alpha  occ. eigenvalues --  -10.31537 -10.31360 -10.31327 -10.31153 -10.30834
 Alpha  occ. eigenvalues --  -10.30477 -10.30332 -10.30284 -10.30159 -10.30144
 Alpha  occ. eigenvalues --  -10.30100 -10.30020 -10.29848 -10.29740 -10.29655
 Alpha  occ. eigenvalues --  -10.29643 -10.29370 -10.29327 -10.29289 -10.29259
 Alpha  occ. eigenvalues --  -10.29105 -10.29041 -10.28787 -10.28737 -10.28612
 Alpha  occ. eigenvalues --  -10.28599 -10.28354 -10.27988 -10.27948 -10.27829
 Alpha  occ. eigenvalues --  -10.27778  -3.22049  -1.95636  -1.95151  -1.95029
 Alpha  occ. eigenvalues --   -1.17436  -1.17052  -1.12953  -1.10760  -1.09134
 Alpha  occ. eigenvalues --   -1.08782  -1.08240  -1.06187  -1.06131  -1.04626
 Alpha  occ. eigenvalues --   -0.95118  -0.92397  -0.91761  -0.91577  -0.91309
 Alpha  occ. eigenvalues --   -0.91036  -0.90365  -0.90143  -0.88952  -0.88890
 Alpha  occ. eigenvalues --   -0.88466  -0.87832  -0.86594  -0.85973  -0.85813
 Alpha  occ. eigenvalues --   -0.85009  -0.84540  -0.83816  -0.82824  -0.82490
 Alpha  occ. eigenvalues --   -0.81771  -0.80492  -0.80113  -0.79570  -0.78635
 Alpha  occ. eigenvalues --   -0.77978  -0.77697  -0.77064  -0.76297  -0.75790
 Alpha  occ. eigenvalues --   -0.75473  -0.74849  -0.74180  -0.72647  -0.71338
 Alpha  occ. eigenvalues --   -0.70750  -0.70404  -0.69815  -0.68640  -0.68018
 Alpha  occ. eigenvalues --   -0.67819  -0.67436  -0.67373  -0.66799  -0.65820
 Alpha  occ. eigenvalues --   -0.65503  -0.65445  -0.65320  -0.64425  -0.62196
 Alpha  occ. eigenvalues --   -0.61968  -0.61726  -0.61609  -0.60897  -0.60197
 Alpha  occ. eigenvalues --   -0.59254  -0.59027  -0.58675  -0.58046  -0.57985
 Alpha  occ. eigenvalues --   -0.57672  -0.57083  -0.56936  -0.56231  -0.55967
 Alpha  occ. eigenvalues --   -0.55714  -0.55579  -0.55470  -0.55197  -0.55044
 Alpha  occ. eigenvalues --   -0.54715  -0.54320  -0.54060  -0.53808  -0.53600
 Alpha  occ. eigenvalues --   -0.53445  -0.53303  -0.53040  -0.52991  -0.52860
 Alpha  occ. eigenvalues --   -0.52565  -0.52361  -0.52014  -0.51879  -0.51747
 Alpha  occ. eigenvalues --   -0.51652  -0.51393  -0.51203  -0.50851  -0.50633
 Alpha  occ. eigenvalues --   -0.50546  -0.50479  -0.50065  -0.50018  -0.49710
 Alpha  occ. eigenvalues --   -0.49530  -0.49167  -0.49019  -0.48942  -0.48810
 Alpha  occ. eigenvalues --   -0.48635  -0.48437  -0.48394  -0.48013  -0.47927
 Alpha  occ. eigenvalues --   -0.47839  -0.47433  -0.47372  -0.47085  -0.46676
 Alpha  occ. eigenvalues --   -0.46666  -0.46562  -0.46328  -0.46264  -0.45566
 Alpha  occ. eigenvalues --   -0.45424  -0.45331  -0.45204  -0.45108  -0.44991
 Alpha  occ. eigenvalues --   -0.44854  -0.44745  -0.44661  -0.44505  -0.44228
 Alpha  occ. eigenvalues --   -0.44138  -0.43797  -0.43584  -0.43490  -0.43297
 Alpha  occ. eigenvalues --   -0.43068  -0.43006  -0.42933  -0.42743  -0.42399
 Alpha  occ. eigenvalues --   -0.42260  -0.41463  -0.41446  -0.41017  -0.40592
 Alpha  occ. eigenvalues --   -0.40364  -0.40301  -0.40224  -0.40065  -0.39773
 Alpha  occ. eigenvalues --   -0.39228  -0.39209  -0.38592  -0.38379  -0.38358
 Alpha  occ. eigenvalues --   -0.38127  -0.38099  -0.37012  -0.36619  -0.36324
 Alpha  occ. eigenvalues --   -0.36112  -0.35616  -0.35265  -0.33863  -0.33107
 Alpha  occ. eigenvalues --   -0.32924  -0.32461  -0.32140  -0.31481  -0.26462
 Alpha  occ. eigenvalues --   -0.23524
 Alpha virt. eigenvalues --   -0.07508  -0.00270   0.02470   0.04021   0.04883
 Alpha virt. eigenvalues --    0.05908   0.06694   0.07576   0.08071   0.09256
 Alpha virt. eigenvalues --    0.10649   0.11333   0.11479   0.11947   0.12331

 Mulliken charges:
               1
     1  Mg   0.946259
     2  C    0.030455
     3  C   -0.082544
     4  C   -0.081312
     5  C   -0.101485
     6  N   -0.371502
     7  C   -0.012391
     8  C   -0.050059
     9  C   -0.165483
    10  C    0.044560
    11  C    0.049897
    12  C    0.035259
    13  C    0.040370
    14  C    0.183924
    15  O   -0.293065
    16  O   -0.372713
    17  N   -0.478879
    18  C    0.194352
    19  C   -0.138041
    20  C   -0.099884
    21  C    0.168464
    22  C    0.076823
    23  C    0.010893
    24  O   -0.234674
    25  C    0.024967
    26  N   -0.347771
    27  C    0.109427
    28  C   -0.157485
    29  C   -0.053798
    30  C    0.059840
    31  C    0.041739
    32  C   -0.019285
    33  C   -0.055447
    34  N   -0.332205
    35  C    0.135018
    36  C   -0.193555
    37  C   -0.011495
    38  C    0.097391
    39  C    0.086291
    40  C    0.082443
    41  O   -0.203210
    42  C   -0.094055
    43  C    0.278702
    44  O   -0.245548
    45  O   -0.382904
    46  C    0.132535
    47  C    0.257137
    48  C   -0.103608
    49  C   -0.201638
    50  C    0.016466
    51  C    0.026908
    52  C   -0.031557
    53  C    0.017164
    54  C   -0.195819
    55  C    0.027332
    56  C    0.026379
    57  C   -0.065275
    58  C   -0.003910
    59  C   -0.192970
    60  C   -0.005630
    61  C    0.030530
    62  C   -0.028791
    63  C    0.012803
    64  C   -0.213485
    65  C    0.006358
    66  C   -0.023391
    67  H    0.002272
    68  H   -0.038111
    69  H   -0.014873
    70  H    0.031246
    71  H    0.044817
    72  H    0.034690
    73  H    0.040978
    74  H    0.042155
    75  H    0.045550
    76  H    0.047321
    77  H    0.064130
    78  H    0.055275
    79  H    0.071607
    80  H    0.025819
    81  H    0.053114
    82  H    0.066640
    83  H    0.066235
    84  H    0.057464
    85  H    0.055957
    86  H    0.033159
    87  H    0.045768
    88  H    0.031964
    89  H    0.029502
    90  H    0.033987
    91  H    0.033154
    92  H    0.030364
    93  H    0.035878
    94  H    0.038753
    95  H    0.040536
    96  H    0.067273
    97  H    0.039334
    98  H    0.071913
    99  H    0.063855
   100  H    0.044042
   101  H    0.066978
   102  H    0.042160
   103  H    0.052734
   104  H    0.013602
   105  H    0.036679
   106  H    0.054289
   107  H    0.031758
   108  H    0.035434
   109  H    0.016948
   110  H    0.018705
   111  H    0.031178
   112  H    0.013223
   113  H    0.023471
   114  H    0.016663
   115  H    0.023491
   116  H    0.030590
   117  H    0.014361
   118  H    0.023748
   119  H    0.003990
   120  H    0.013128
   121  H    0.009125
   122  H    0.014949
   123  H    0.018118
   124  H    0.026354
   125  H    0.020580
   126  H    0.029962
   127  H    0.016944
   128  H    0.025161
   129  H    0.020821
   130  H    0.023892
   131  H    0.017251
   132  H    0.015494
   133  H    0.006811
   134  H    0.034826
   135  H    0.015258
   136  H    0.018273
   137  H    0.032625
   138  H    0.024839
   139  H    0.034857
   140  H    0.033142
 Sum of Mulliken charges =  -0.00000

 Dipole moment (field-independent basis, Debye):
    X=              1.0545    Y=              6.0036    Z=              0.2388  Tot=              6.1002
 Quadrupole moment (field-independent basis, Debye-Ang):
   XX=           -349.5129   YY=           -450.6259   ZZ=           -402.3089
   XY=             29.8315   XZ=             -7.3671   YZ=             36.9437

 Normal termination of Gaussian 16 at Thu May  5 07:23:49 2022.
