 Gaussian 16, Revision A.03,
 Gaussian 16:  ES64L-G16RevA.03 25-Dec-2016

 --------------------
 #p ZINDO=(nstates=5)
 --------------------

 ----------------------------
 step_701_chromophore_5 ZINDO
 ----------------------------
 Symbolic Z-matrix:
 Charge =  0 Multiplicity = 1

                         Standard orientation:
 ---------------------------------------------------------------------
 Center     Atomic      Atomic             Coordinates (Angstroms)
 Number     Number       Type             X           Y           Z
 ---------------------------------------------------------------------
      1         12           0        5.059358    0.421174   -0.266258
      2          6           0        3.911911   -2.765925    0.286881
      3          6           0        2.886038    0.721621   -2.877290
      4          6           0        5.856624    3.686773   -0.381612
      5          6           0        6.936702    0.108042    2.723830
      6          7           0        3.531281   -0.876414   -1.050819
      7          6           0        3.244367   -2.135576   -0.718583
      8          6           0        2.196868   -2.721085   -1.627265
      9          6           0        2.274380   -1.758942   -2.892311
     10          6           0        2.935025   -0.520233   -2.272459
     11          6           0        3.235782   -2.318526   -3.999033
     12          6           0        0.760592   -2.656678   -1.004083
     13          6           0       -0.185622   -3.831805   -1.362888
     14          6           0       -1.488497   -3.325929   -1.960324
     15          8           0       -1.702602   -3.200140   -3.192302
     16          8           0       -2.389694   -2.978578   -0.956790
     17          7           0        4.542707    1.963403   -1.549521
     18          6           0        3.559411    1.905539   -2.532685
     19          6           0        3.423177    3.217959   -3.233771
     20          6           0        4.324612    4.109013   -2.537139
     21          6           0        4.964105    3.263021   -1.412094
     22          6           0        2.570165    3.505487   -4.437741
     23          6           0        4.488593    5.597274   -2.866056
     24          8           0        3.894605    6.097994   -3.806009
     25          6           0        5.354331    6.479115   -2.124216
     26          7           0        6.084900    1.767626    1.181804
     27          6           0        6.376589    3.030220    0.754587
     28          6           0        7.036455    3.765665    1.960882
     29          6           0        7.650388    2.577904    2.722916
     30          6           0        6.881122    1.378449    2.201189
     31          6           0        8.102085    4.886168    1.761373
     32          6           0        7.587058    2.845287    4.247633
     33          6           0        8.789232    2.348572    5.022395
     34          7           0        5.403318   -1.076238    1.247211
     35          6           0        6.206589   -1.035457    2.329739
     36          6           0        6.209047   -2.334559    2.933279
     37          6           0        5.384066   -3.105802    2.061458
     38          6           0        4.884756   -2.240148    1.154613
     39          6           0        6.881289   -2.800227    4.172260
     40          6           0        4.745961   -4.368996    1.894491
     41          8           0        4.745876   -5.409291    2.552190
     42          6           0        3.834813   -4.242993    0.636363
     43          6           0        4.239346   -5.259115   -0.455895
     44          8           0        4.235438   -6.499651   -0.318947
     45          8           0        4.872536   -4.585615   -1.504616
     46          6           0        5.346678   -5.383621   -2.658559
     47          6           0       -3.457625   -2.061008   -1.277467
     48          6           0       -3.503809   -0.875240   -0.362872
     49          6           0       -4.609387   -0.367420    0.187718
     50          6           0       -5.928881   -1.144536    0.323365
     51          6           0       -4.506317    0.892632    1.068745
     52          6           0       -5.024188    2.210969    0.412867
     53          6           0       -5.884069    3.098424    1.395798
     54          6           0       -7.399248    3.286992    0.980894
     55          6           0       -7.899686    4.674723    0.927466
     56          6           0       -8.391488    2.464241    1.830262
     57          6           0       -9.606556    2.048504    0.961530
     58          6           0       -9.549104    0.511952    0.872002
     59          6           0      -10.848139   -0.118186    0.335454
     60          6           0      -10.579906   -0.391322   -1.158744
     61          6           0      -11.244968   -1.454466    1.162508
     62          6           0      -12.705560   -1.417950    1.666553
     63          6           0      -13.781491   -1.080925    0.560512
     64          6           0      -14.484296    0.300967    0.824595
     65          6           0      -15.810765    0.065300    1.552792
     66          6           0      -14.809414    0.947258   -0.595289
     67          1           0        2.163238    0.669394   -3.694197
     68          1           0        6.100360    4.746966   -0.478655
     69          1           0        7.642872    0.040761    3.554239
     70          1           0        2.478738   -3.718665   -1.965542
     71          1           0        1.334012   -1.516281   -3.387752
     72          1           0        3.555156   -3.338003   -3.780948
     73          1           0        4.085976   -1.647429   -4.113464
     74          1           0        2.648830   -2.212572   -4.912301
     75          1           0        0.210649   -1.773367   -1.329435
     76          1           0        0.763056   -2.621473    0.085951
     77          1           0       -0.425232   -4.393832   -0.460069
     78          1           0        0.107831   -4.442622   -2.217322
     79          1           0        2.252742    4.541670   -4.552956
     80          1           0        1.686827    2.866863   -4.430814
     81          1           0        3.047322    3.225069   -5.377632
     82          1           0        6.368926    6.115365   -2.288076
     83          1           0        4.960292    6.410299   -1.110181
     84          1           0        5.256265    7.469482   -2.567347
     85          1           0        6.237341    4.296399    2.478055
     86          1           0        8.704561    2.440655    2.484457
     87          1           0        7.926693    5.615370    2.551775
     88          1           0        7.966051    5.260406    0.746255
     89          1           0        9.099396    4.448149    1.795769
     90          1           0        6.707008    2.279256    4.554376
     91          1           0        7.410170    3.867479    4.579991
     92          1           0        9.566499    1.930484    4.382696
     93          1           0        8.558011    1.525929    5.698786
     94          1           0        9.168277    3.167586    5.634107
     95          1           0        7.929637   -2.647636    3.916859
     96          1           0        6.706716   -3.832321    4.476319
     97          1           0        6.691438   -2.133579    5.013748
     98          1           0        2.840181   -4.573123    0.937152
     99          1           0        6.425390   -5.515593   -2.564034
    100          1           0        5.189252   -4.832839   -3.585115
    101          1           0        4.819194   -6.318975   -2.843662
    102          1           0       -4.387256   -2.624860   -1.356161
    103          1           0       -3.277962   -1.600257   -2.249035
    104          1           0       -2.661708   -0.187732   -0.282972
    105          1           0       -6.622817   -0.427042   -0.116123
    106          1           0       -6.256737   -1.333907    1.345341
    107          1           0       -6.046939   -2.079269   -0.225334
    108          1           0       -3.471425    0.967765    1.402114
    109          1           0       -5.158882    0.845106    1.940421
    110          1           0       -5.689090    1.932466   -0.405516
    111          1           0       -4.231643    2.773264   -0.080131
    112          1           0       -5.459523    4.102360    1.423983
    113          1           0       -5.861590    2.699438    2.409661
    114          1           0       -7.519722    2.855974   -0.012721
    115          1           0       -8.498851    5.002783    1.777117
    116          1           0       -8.480469    4.804230    0.014602
    117          1           0       -7.101975    5.416379    0.921810
    118          1           0       -8.797992    2.909295    2.738762
    119          1           0       -7.839487    1.588145    2.168907
    120          1           0       -9.758749    2.520256   -0.009227
    121          1           0      -10.531749    2.381832    1.430319
    122          1           0       -9.453056    0.161846    1.900301
    123          1           0       -8.674112    0.281520    0.264717
    124          1           0      -11.582612    0.679391    0.225434
    125          1           0      -10.408681   -1.452532   -1.339882
    126          1           0       -9.812752    0.299763   -1.507452
    127          1           0      -11.499666   -0.227990   -1.720239
    128          1           0      -10.600709   -1.541142    2.037029
    129          1           0      -11.107572   -2.275049    0.458281
    130          1           0      -12.721607   -0.825485    2.582323
    131          1           0      -12.896089   -2.434228    2.010011
    132          1           0      -14.572594   -1.830362    0.535139
    133          1           0      -13.375691   -1.107114   -0.450722
    134          1           0      -13.851125    0.844919    1.525182
    135          1           0      -15.798630    0.391572    2.592428
    136          1           0      -15.980334   -1.001499    1.701967
    137          1           0      -16.677173    0.561096    1.115531
    138          1           0      -13.961263    0.947703   -1.280398
    139          1           0      -15.146263    1.964658   -0.399930
    140          1           0      -15.581048    0.448534   -1.181853
 ---------------------------------------------------------------------

 SCF Done:  E(RZINDO/S) =  -474.332372782     A.U. after   19 cycles

 Excitation energies and oscillator strengths:

 Excited State   1:      Singlet-A      1.3037 eV  951.05 nm  f=0.5899  <S**2>=0.000
     175 ->178         0.16367
     176 ->177         0.66916
 This state for optimization and/or second-order correction.
 Total Energy, E(CIS/TDA) =  -474.284464160
 Copying the excited state density for this state as the 1-particle RhoCI density.

 Excited State   2:      Singlet-A      1.9266 eV  643.54 nm  f=0.0420  <S**2>=0.000
     175 ->177         0.54475
     176 ->178        -0.41398

 Excited State   3:      Singlet-A      2.8883 eV  429.26 nm  f=0.0115  <S**2>=0.000
     168 ->177         0.30863
     168 ->178        -0.19330
     168 ->179         0.39163
     168 ->180         0.21351
     168 ->183        -0.17084
     168 ->185        -0.23622

 Excited State   4:      Singlet-A      2.9642 eV  418.27 nm  f=0.8049  <S**2>=0.000
     171 ->177         0.10526
     175 ->177         0.35162
     176 ->178         0.50842
     176 ->179        -0.10747
     176 ->182         0.11161

 Excited State   5:      Singlet-A      3.0027 eV  412.91 nm  f=0.1091  <S**2>=0.000
     171 ->177         0.25994
     171 ->179        -0.27508
     171 ->180         0.30460
     171 ->183        -0.22872
     171 ->185         0.15673
     171 ->188         0.18752
     175 ->177        -0.11070
     176 ->178        -0.15539
     176 ->179         0.10075

 The electronic state is 1-A.
 Alpha  occ. eigenvalues --   -1.88974  -1.82108  -1.80076  -1.72418  -1.71042
 Alpha  occ. eigenvalues --   -1.69163  -1.66416  -1.62635  -1.60376  -1.58185
 Alpha  occ. eigenvalues --   -1.54276  -1.51265  -1.49507  -1.47875  -1.47575
 Alpha  occ. eigenvalues --   -1.43631  -1.42534  -1.41059  -1.39116  -1.38622
 Alpha  occ. eigenvalues --   -1.36641  -1.33839  -1.33536  -1.32370  -1.28467
 Alpha  occ. eigenvalues --   -1.27894  -1.27519  -1.23880  -1.20688  -1.18978
 Alpha  occ. eigenvalues --   -1.17536  -1.15490  -1.15135  -1.13505  -1.12728
 Alpha  occ. eigenvalues --   -1.12144  -1.10829  -1.09227  -1.06432  -1.05000
 Alpha  occ. eigenvalues --   -1.02469  -1.01194  -0.99385  -0.98570  -0.97513
 Alpha  occ. eigenvalues --   -0.96624  -0.95151  -0.93975  -0.92969  -0.92490
 Alpha  occ. eigenvalues --   -0.91450  -0.91292  -0.89910  -0.88560  -0.86740
 Alpha  occ. eigenvalues --   -0.86323  -0.84530  -0.84112  -0.83529  -0.81044
 Alpha  occ. eigenvalues --   -0.80083  -0.79907  -0.77709  -0.77648  -0.76809
 Alpha  occ. eigenvalues --   -0.76121  -0.75351  -0.75015  -0.74443  -0.73950
 Alpha  occ. eigenvalues --   -0.73620  -0.72841  -0.72364  -0.72109  -0.70386
 Alpha  occ. eigenvalues --   -0.70227  -0.69440  -0.68836  -0.68392  -0.67820
 Alpha  occ. eigenvalues --   -0.67710  -0.67368  -0.66671  -0.66239  -0.66077
 Alpha  occ. eigenvalues --   -0.65805  -0.64742  -0.64504  -0.64180  -0.63330
 Alpha  occ. eigenvalues --   -0.63178  -0.62797  -0.62433  -0.62309  -0.61999
 Alpha  occ. eigenvalues --   -0.61843  -0.61559  -0.61447  -0.61013  -0.60430
 Alpha  occ. eigenvalues --   -0.59922  -0.59490  -0.59280  -0.58637  -0.58492
 Alpha  occ. eigenvalues --   -0.57859  -0.57564  -0.57382  -0.56342  -0.56088
 Alpha  occ. eigenvalues --   -0.55981  -0.55960  -0.55403  -0.55248  -0.54984
 Alpha  occ. eigenvalues --   -0.54621  -0.54217  -0.53880  -0.53728  -0.53168
 Alpha  occ. eigenvalues --   -0.52890  -0.52786  -0.52241  -0.51981  -0.51769
 Alpha  occ. eigenvalues --   -0.51506  -0.51086  -0.50814  -0.50705  -0.50308
 Alpha  occ. eigenvalues --   -0.50003  -0.49902  -0.49127  -0.48962  -0.48870
 Alpha  occ. eigenvalues --   -0.48753  -0.48718  -0.48305  -0.48250  -0.47611
 Alpha  occ. eigenvalues --   -0.47540  -0.47108  -0.47098  -0.47014  -0.46783
 Alpha  occ. eigenvalues --   -0.46342  -0.46275  -0.45849  -0.45734  -0.45684
 Alpha  occ. eigenvalues --   -0.45587  -0.45275  -0.44989  -0.44458  -0.44411
 Alpha  occ. eigenvalues --   -0.44036  -0.43971  -0.43098  -0.42931  -0.41833
 Alpha  occ. eigenvalues --   -0.41600  -0.41539  -0.40725  -0.40009  -0.39220
 Alpha  occ. eigenvalues --   -0.38645  -0.36911  -0.35765  -0.35309  -0.34355
 Alpha  occ. eigenvalues --   -0.33998  -0.33321  -0.33066  -0.31636  -0.27330
 Alpha  occ. eigenvalues --   -0.22392
 Alpha virt. eigenvalues --   -0.08965  -0.02704  -0.00686   0.00629   0.01047
 Alpha virt. eigenvalues --    0.01088   0.02228   0.02711   0.04219   0.04386
 Alpha virt. eigenvalues --    0.05481   0.06315   0.06779   0.07418   0.07653

 Mulliken charges:
               1
     1  Mg   0.428019
     2  C   -0.051251
     3  C   -0.074878
     4  C   -0.092760
     5  C   -0.057588
     6  N   -0.296905
     7  C    0.118898
     8  C    0.008747
     9  C   -0.005502
    10  C    0.159256
    11  C   -0.053975
    12  C   -0.014687
    13  C    0.001305
    14  C    0.466435
    15  O   -0.537186
    16  O   -0.275148
    17  N   -0.321806
    18  C    0.137248
    19  C    0.053572
    20  C   -0.059797
    21  C    0.141060
    22  C   -0.029029
    23  C    0.337069
    24  O   -0.528897
    25  C   -0.023584
    26  N   -0.274078
    27  C    0.147293
    28  C   -0.002700
    29  C    0.007854
    30  C    0.096179
    31  C   -0.060749
    32  C   -0.032555
    33  C   -0.058159
    34  N   -0.309474
    35  C    0.068687
    36  C    0.014177
    37  C   -0.072617
    38  C    0.129462
    39  C   -0.036777
    40  C    0.331352
    41  O   -0.529707
    42  C    0.048347
    43  C    0.469415
    44  O   -0.498282
    45  O   -0.277644
    46  C    0.073720
    47  C    0.111418
    48  C   -0.079403
    49  C   -0.011972
    50  C   -0.049062
    51  C   -0.026043
    52  C   -0.034054
    53  C   -0.039597
    54  C   -0.007785
    55  C   -0.047973
    56  C   -0.033336
    57  C   -0.042779
    58  C   -0.036773
    59  C   -0.033973
    60  C   -0.064603
    61  C   -0.034096
    62  C   -0.037127
    63  C   -0.037648
    64  C   -0.013897
    65  C   -0.060641
    66  C   -0.056613
    67  H    0.031661
    68  H    0.022746
    69  H    0.023500
    70  H    0.037778
    71  H    0.039848
    72  H    0.036384
    73  H    0.024739
    74  H    0.021969
    75  H    0.031486
    76  H    0.027343
    77  H    0.045078
    78  H    0.048024
    79  H    0.049689
    80  H    0.019352
    81  H    0.037935
    82  H    0.044728
    83  H    0.044766
    84  H    0.042161
    85  H    0.037758
    86  H    0.032793
    87  H    0.028751
    88  H    0.019144
    89  H    0.023779
    90  H    0.017056
    91  H    0.023051
    92  H    0.019681
    93  H    0.017174
    94  H    0.017286
    95  H    0.025052
    96  H    0.040246
    97  H    0.024804
    98  H    0.056309
    99  H    0.043906
   100  H    0.024924
   101  H    0.052496
   102  H    0.047920
   103  H    0.047903
   104  H    0.031068
   105  H    0.022426
   106  H    0.030078
   107  H    0.025372
   108  H    0.023924
   109  H    0.024382
   110  H    0.017687
   111  H    0.023039
   112  H    0.015457
   113  H    0.023631
   114  H    0.019429
   115  H    0.017479
   116  H    0.016060
   117  H    0.009071
   118  H    0.021894
   119  H    0.010705
   120  H    0.023709
   121  H    0.007610
   122  H    0.013904
   123  H    0.026970
   124  H    0.031841
   125  H    0.020752
   126  H    0.024800
   127  H    0.005958
   128  H    0.022670
   129  H    0.025549
   130  H    0.025923
   131  H    0.006343
   132  H    0.017812
   133  H    0.022288
   134  H    0.035529
   135  H    0.007221
   136  H    0.018459
   137  H    0.021804
   138  H    0.015771
   139  H    0.013572
   140  H    0.024186
 Sum of Mulliken charges =  -0.00000

 Dipole moment (field-independent basis, Debye):
    X=              0.6869    Y=              9.3091    Z=             -1.4347  Tot=              9.4440
 N-N= 4.351124847698D+03 E-N= 0.000000000000D+00  KE=-9.375716458460D+03
 Leave Link  601 at Thu May  5 07:37:46 2022, MaxMem=  6710886400 cpu:               0.8 elap:               0.0
 (Enter /sw/apps/gaussian-16.0/g16/l9999.exe)
 1\1\GINC-BP1-COMPUTE067\SP\RZINDO CIS\STO-3G\C55H74Mg1N4O6\OF15641\05-
 May-2022\0\\#p ZINDO=(nstates=5)\\step_701_chromophore_5 ZINDO\\0,1\Mg
 ,0,24.89,-6.079,46.624\C,0,27.241,-3.869,45.454\C,0,22.542,-4.582,44.6
 55\C,0,22.812,-8.604,47.411\C,0,27.525,-7.786,48.269\N,0,24.999,-4.498
 ,45.167\C,0,26.026,-3.704,44.862\C,0,25.622,-2.628,43.89\C,0,24.04,-2.
 6,44.059\C,0,23.79,-3.988,44.664\C,0,23.579,-1.525,45.105\C,0,25.987,-
 2.991,42.41\C,0,26.385,-1.8,41.5\C,0,25.53,-1.758,40.244\O,0,24.478,-1

 Normal termination of Gaussian 16 at Thu May  5 07:37:46 2022.
