 Gaussian 16, Revision A.03,
 Gaussian 16:  ES64L-G16RevA.03 25-Dec-2016

 ------------------------------
 #p blyp/Def2SVP td=(nstates=5)
 ------------------------------

 --------------------------------------------------
 step_651_chromophore_13 TDDFT with blyp functional
 --------------------------------------------------
 Symbolic Z-matrix:
 Charge =  0 Multiplicity = 1

                         Standard orientation:
 ---------------------------------------------------------------------
 Center     Atomic      Atomic             Coordinates (Angstroms)
 Number     Number       Type             X           Y           Z
 ---------------------------------------------------------------------
      1         12           0        5.775562    0.466567   -0.002659
      2          6           0        3.655581   -2.261492   -0.000879
      3          6           0        3.261453    2.534562   -0.674814
      4          6           0        8.163381    2.791562   -0.262986
      5          6           0        8.378400   -1.942592    0.719594
      6          7           0        3.742043    0.138478   -0.467294
      7          6           0        2.999389   -1.057873   -0.256111
      8          6           0        1.493739   -0.814295   -0.435628
      9          6           0        1.441014    0.679266   -0.782452
     10          6           0        2.909013    1.147286   -0.650229
     11          6           0        0.754699    0.971801   -2.124301
     12          6           0        0.577002   -1.313085    0.768607
     13          6           0       -0.593293   -2.268203    0.470708
     14          6           0       -1.997544   -1.931574    1.121144
     15          8           0       -2.208779   -1.391350    2.192645
     16          8           0       -2.949736   -2.171619    0.213712
     17          7           0        5.690526    2.391408   -0.470562
     18          6           0        4.576508    3.119772   -0.691421
     19          6           0        4.857732    4.545067   -0.685237
     20          6           0        6.267679    4.613918   -0.756603
     21          6           0        6.799837    3.234510   -0.456330
     22          6           0        3.875544    5.627601   -0.455349
     23          6           0        7.141018    5.852383   -0.838510
     24          8           0        8.425795    5.761450   -0.818667
     25          6           0        6.566362    7.204953   -1.025953
     26          7           0        7.873432    0.452256    0.272845
     27          6           0        8.652538    1.566027    0.046178
     28          6           0       10.187259    1.270079    0.163211
     29          6           0       10.173496   -0.097340    0.928078
     30          6           0        8.723696   -0.537005    0.564917
     31          6           0       10.750330    1.183070   -1.324537
     32          6           0       10.522527   -0.013204    2.432793
     33          6           0        9.487181   -0.357059    3.533833
     34          7           0        6.056733   -1.652520    0.253839
     35          6           0        7.151018   -2.435916    0.612981
     36          6           0        6.692706   -3.784399    0.703256
     37          6           0        5.329941   -3.835294    0.478150
     38          6           0        5.040447   -2.497540    0.213212
     39          6           0        7.562584   -4.964002    0.963263
     40          6           0        4.060855   -4.674920    0.396943
     41          8           0        3.928374   -5.895195    0.401692
     42          6           0        2.980949   -3.647398   -0.024053
     43          6           0        2.452704   -3.974491   -1.388830
     44          8           0        3.012347   -3.654760   -2.434972
     45          8           0        1.141640   -4.479301   -1.270190
     46          6           0        0.317815   -4.740745   -2.451414
     47          6           0       -4.335434   -1.998103    0.633746
     48          6           0       -5.175264   -0.994798   -0.137717
     49          6           0       -6.496675   -1.028156   -0.372172
     50          6           0       -7.442402   -1.892155    0.455988
     51          6           0       -7.235154    0.058116   -1.151966
     52          6           0       -7.224591    1.373733   -0.316137
     53          6           0       -8.546590    2.164164   -0.437333
     54          6           0       -8.976526    2.786365    0.935637
     55          6           0       -7.915260    3.773693    1.557836
     56          6           0       -9.372160    1.677912    2.063487
     57          6           0      -10.777553    1.861809    2.727548
     58          6           0      -11.779329    0.720939    2.304768
     59          6           0      -12.987586    1.209860    1.526999
     60          6           0      -13.922351    2.026588    2.381159
     61          6           0      -13.682833    0.049784    0.708707
     62          6           0      -14.105580    0.485442   -0.685430
     63          6           0      -13.650759   -0.538512   -1.720660
     64          6           0      -12.106539   -0.484175   -2.043042
     65          6           0      -12.039273   -0.113368   -3.519515
     66          6           0      -11.413014   -1.802803   -1.690275
     67          1           0        2.468516    3.272551   -0.807393
     68          1           0        9.030098    3.441442   -0.401200
     69          1           0        9.308769   -2.498876    0.859301
     70          1           0        1.182817   -1.404371   -1.298449
     71          1           0        0.897807    1.266970   -0.042865
     72          1           0        0.460852    0.038380   -2.605079
     73          1           0        1.466782    1.433847   -2.806853
     74          1           0       -0.160294    1.554765   -2.015692
     75          1           0        0.173785   -0.408260    1.221783
     76          1           0        1.142785   -1.967177    1.431222
     77          1           0       -0.298997   -3.238815    0.869862
     78          1           0       -0.703839   -2.338295   -0.611185
     79          1           0        2.879315    5.240426   -0.243852
     80          1           0        3.812279    6.203684   -1.379407
     81          1           0        4.110998    6.245395    0.410713
     82          1           0        5.908789    7.389731   -1.874542
     83          1           0        7.319354    7.969526   -0.835131
     84          1           0        5.862801    7.280959   -0.197318
     85          1           0       10.809168    1.980854    0.708471
     86          1           0       10.788726   -0.837489    0.416732
     87          1           0       11.387929    0.315430   -1.500228
     88          1           0       11.421085    2.009967   -1.555946
     89          1           0        9.903675    1.169288   -2.010463
     90          1           0       11.032716    0.912221    2.701390
     91          1           0       11.254270   -0.814767    2.534203
     92          1           0        9.682750   -1.393660    3.810326
     93          1           0        8.491690   -0.279816    3.096518
     94          1           0        9.473579    0.257298    4.434073
     95          1           0        7.567966   -5.197586    2.028775
     96          1           0        8.564310   -4.966194    0.533391
     97          1           0        7.073385   -5.880149    0.633248
     98          1           0        2.175408   -3.805345    0.691874
     99          1           0       -0.108287   -5.742015   -2.386509
    100          1           0        0.896787   -4.722221   -3.374321
    101          1           0       -0.456316   -3.976103   -2.519387
    102          1           0       -4.551200   -1.914789    1.698953
    103          1           0       -4.824017   -2.953740    0.443190
    104          1           0       -4.609408   -0.283195   -0.738940
    105          1           0       -8.159467   -2.418330   -0.174061
    106          1           0       -7.905929   -1.240288    1.197625
    107          1           0       -6.838431   -2.669706    0.924821
    108          1           0       -8.226313   -0.178912   -1.537197
    109          1           0       -6.485301    0.229414   -1.924229
    110          1           0       -6.529883    2.065735   -0.791083
    111          1           0       -6.991314    1.194478    0.733529
    112          1           0       -9.395837    1.588300   -0.804216
    113          1           0       -8.395405    3.022982   -1.091412
    114          1           0       -9.968068    3.157778    0.674576
    115          1           0       -8.278172    4.165897    2.507840
    116          1           0       -7.574477    4.582208    0.910418
    117          1           0       -7.025864    3.184664    1.777911
    118          1           0       -8.635212    1.738004    2.864538
    119          1           0       -9.191634    0.709340    1.597710
    120          1           0      -11.264228    2.771638    2.377026
    121          1           0      -10.669158    1.876513    3.812518
    122          1           0      -12.097838    0.235703    3.227511
    123          1           0      -11.388077   -0.119658    1.731218
    124          1           0      -12.637986    1.942216    0.799156
    125          1           0      -14.920221    1.597956    2.284214
    126          1           0      -13.912683    3.097394    2.180382
    127          1           0      -13.792840    1.827765    3.445776
    128          1           0      -14.522367   -0.330832    1.290887
    129          1           0      -13.105679   -0.872916    0.655036
    130          1           0      -13.924224    1.549329   -0.840379
    131          1           0      -15.180926    0.308233   -0.668768
    132          1           0      -14.238004   -0.280326   -2.602344
    133          1           0      -13.979525   -1.525326   -1.395359
    134          1           0      -11.639239    0.282922   -1.425895
    135          1           0      -11.140368   -0.517977   -3.985307
    136          1           0      -11.984951    0.949029   -3.757604
    137          1           0      -12.893777   -0.331176   -4.159817
    138          1           0      -10.570008   -1.992380   -2.355291
    139          1           0      -12.142802   -2.602425   -1.815224
    140          1           0      -11.045759   -1.795663   -0.664563
 ---------------------------------------------------------------------

 SCF Done:  E(RB-LYP) =  -3007.35800458     A.U. after   21 cycles

 Excitation energies and oscillator strengths:

 Excited State   1:      Singlet-A      1.7476 eV  709.46 nm  f=0.2808  <S**2>=0.000
     244 -> 247        0.15593
     245 -> 248        0.14586
     246 -> 247        0.67961
     246 <- 247       -0.16048
 This state for optimization and/or second-order correction.
 Total Energy, E(TD-HF/TD-DFT) =  -3007.29378219
 Copying the excited state density for this state as the 1-particle RhoCI density.

 Excited State   2:      Singlet-A      1.7854 eV  694.44 nm  f=0.0211  <S**2>=0.000
     244 -> 247        0.68847
     246 -> 247       -0.15322

 Excited State   3:      Singlet-A      2.0828 eV  595.29 nm  f=0.0607  <S**2>=0.000
     245 -> 247        0.62791
     246 -> 248       -0.25888
     246 -> 249        0.13434
     246 -> 250        0.10482

 Excited State   4:      Singlet-A      2.2963 eV  539.93 nm  f=0.0000  <S**2>=0.000
     243 -> 247        0.70319

 Excited State   5:      Singlet-A      2.3245 eV  533.39 nm  f=0.0000  <S**2>=0.000
     242 -> 247        0.70700

 The electronic state is 1-A.
 Alpha  occ. eigenvalues --  -46.26240 -18.83294 -18.82411 -18.77567 -18.76884
 Alpha  occ. eigenvalues --  -18.76856 -18.74688 -14.03386 -14.03134 -14.01360
 Alpha  occ. eigenvalues --  -14.00285 -10.04780 -10.04519 -10.01003  -9.99628
 Alpha  occ. eigenvalues --   -9.98398  -9.98109  -9.96837  -9.96726  -9.96583
 Alpha  occ. eigenvalues --   -9.96331  -9.95730  -9.95677  -9.94504  -9.94483
 Alpha  occ. eigenvalues --   -9.94479  -9.94218  -9.93973  -9.93953  -9.93748
 Alpha  occ. eigenvalues --   -9.93677  -9.93648  -9.93536  -9.93516  -9.93288
 Alpha  occ. eigenvalues --   -9.93033  -9.93032  -9.92998  -9.92916  -9.92640
 Alpha  occ. eigenvalues --   -9.92540  -9.92417  -9.92415  -9.92335  -9.92283
 Alpha  occ. eigenvalues --   -9.92202  -9.92056  -9.92000  -9.91983  -9.91818
 Alpha  occ. eigenvalues --   -9.91777  -9.91699  -9.91589  -9.91544  -9.91498
 Alpha  occ. eigenvalues --   -9.91474  -9.91460  -9.91392  -9.91231  -9.91223
 Alpha  occ. eigenvalues --   -9.91055  -9.90904  -9.90819  -9.90766  -9.90723
 Alpha  occ. eigenvalues --   -9.90549  -2.91099  -1.71524  -1.70963  -1.70832
 Alpha  occ. eigenvalues --   -0.99419  -0.96765  -0.91862  -0.90344  -0.90069
 Alpha  occ. eigenvalues --   -0.87734  -0.86997  -0.86057  -0.85957  -0.84956
 Alpha  occ. eigenvalues --   -0.75473  -0.73922  -0.73362  -0.72815  -0.71948
 Alpha  occ. eigenvalues --   -0.71865  -0.71423  -0.71036  -0.70863  -0.70563
 Alpha  occ. eigenvalues --   -0.69871  -0.69285  -0.68102  -0.67811  -0.67172
 Alpha  occ. eigenvalues --   -0.66677  -0.65997  -0.65570  -0.65216  -0.64622
 Alpha  occ. eigenvalues --   -0.63912  -0.62534  -0.62182  -0.61729  -0.60981
 Alpha  occ. eigenvalues --   -0.60891  -0.60697  -0.59777  -0.59511  -0.58975
 Alpha  occ. eigenvalues --   -0.58674  -0.57662  -0.56417  -0.55619  -0.54837
 Alpha  occ. eigenvalues --   -0.54336  -0.53752  -0.53154  -0.52711  -0.51468
 Alpha  occ. eigenvalues --   -0.51317  -0.50916  -0.50641  -0.50330  -0.50069
 Alpha  occ. eigenvalues --   -0.50051  -0.49116  -0.48294  -0.47557  -0.46551
 Alpha  occ. eigenvalues --   -0.46450  -0.46025  -0.45754  -0.45310  -0.44650
 Alpha  occ. eigenvalues --   -0.44191  -0.44063  -0.42995  -0.42704  -0.42263
 Alpha  occ. eigenvalues --   -0.42091  -0.41752  -0.41692  -0.41582  -0.41508
 Alpha  occ. eigenvalues --   -0.41251  -0.40830  -0.40288  -0.40264  -0.40200
 Alpha  occ. eigenvalues --   -0.39898  -0.39808  -0.39756  -0.39598  -0.39377
 Alpha  occ. eigenvalues --   -0.39013  -0.38915  -0.38704  -0.38421  -0.38333
 Alpha  occ. eigenvalues --   -0.38045  -0.37732  -0.37517  -0.37497  -0.37416
 Alpha  occ. eigenvalues --   -0.37181  -0.37138  -0.37026  -0.36758  -0.36557
 Alpha  occ. eigenvalues --   -0.36501  -0.36262  -0.36205  -0.35885  -0.35796
 Alpha  occ. eigenvalues --   -0.35468  -0.35304  -0.34891  -0.34848  -0.34815
 Alpha  occ. eigenvalues --   -0.34341  -0.34155  -0.34039  -0.33784  -0.33651
 Alpha  occ. eigenvalues --   -0.33411  -0.33264  -0.33225  -0.33099  -0.32888
 Alpha  occ. eigenvalues --   -0.32768  -0.32700  -0.32546  -0.32365  -0.32319
 Alpha  occ. eigenvalues --   -0.32198  -0.32074  -0.31888  -0.31789  -0.31640
 Alpha  occ. eigenvalues --   -0.31564  -0.31385  -0.31176  -0.30834  -0.30701
 Alpha  occ. eigenvalues --   -0.30636  -0.30411  -0.30120  -0.29933  -0.29866
 Alpha  occ. eigenvalues --   -0.29715  -0.29673  -0.29583  -0.29342  -0.29051
 Alpha  occ. eigenvalues --   -0.28773  -0.28629  -0.28232  -0.28097  -0.27980
 Alpha  occ. eigenvalues --   -0.27568  -0.27189  -0.27099  -0.26982  -0.26757
 Alpha  occ. eigenvalues --   -0.26340  -0.26225  -0.25673  -0.25643  -0.25397
 Alpha  occ. eigenvalues --   -0.25109  -0.24812  -0.24390  -0.23912  -0.23835
 Alpha  occ. eigenvalues --   -0.23545  -0.22662  -0.22138  -0.21964  -0.20833
 Alpha  occ. eigenvalues --   -0.20470  -0.19911  -0.19679  -0.17844  -0.17588
 Alpha  occ. eigenvalues --   -0.15337
 Alpha virt. eigenvalues --   -0.11369  -0.07059  -0.06499  -0.05144  -0.03639
 Alpha virt. eigenvalues --   -0.02646  -0.02084  -0.01888  -0.01108  -0.00084
 Alpha virt. eigenvalues --    0.00791   0.00823   0.01360   0.02227   0.02394

 Mulliken charges:
               1
     1  Mg   0.711876
     2  C    0.004102
     3  C   -0.080085
     4  C   -0.006244
     5  C   -0.137068
     6  N   -0.242021
     7  C   -0.087044
     8  C    0.062991
     9  C   -0.010332
    10  C    0.056410
    11  C    0.136807
    12  C    0.128134
    13  C    0.068919
    14  C    0.061417
    15  O   -0.181897
    16  O   -0.229404
    17  N   -0.320982
    18  C    0.126252
    19  C   -0.158095
    20  C    0.048150
    21  C    0.125500
    22  C    0.173402
    23  C   -0.069440
    24  O   -0.226824
    25  C    0.166137
    26  N   -0.193802
    27  C    0.009630
    28  C   -0.014437
    29  C    0.063410
    30  C   -0.089134
    31  C    0.105537
    32  C    0.104420
    33  C    0.061583
    34  N   -0.214101
    35  C    0.253247
    36  C   -0.203417
    37  C    0.062153
    38  C    0.086950
    39  C    0.173360
    40  C   -0.006162
    41  O   -0.124298
    42  C    0.046191
    43  C    0.148485
    44  O   -0.171747
    45  O   -0.300561
    46  C    0.202661
    47  C    0.298479
    48  C   -0.072591
    49  C   -0.196241
    50  C    0.129970
    51  C    0.161792
    52  C    0.049843
    53  C    0.057249
    54  C   -0.068265
    55  C    0.105352
    56  C    0.064375
    57  C    0.100820
    58  C    0.089897
    59  C   -0.108229
    60  C    0.142179
    61  C    0.098196
    62  C    0.095543
    63  C    0.083707
    64  C   -0.066327
    65  C    0.091659
    66  C    0.094041
    67  H   -0.066226
    68  H   -0.047609
    69  H   -0.064875
    70  H   -0.013680
    71  H   -0.022425
    72  H   -0.019624
    73  H   -0.003572
    74  H   -0.006879
    75  H   -0.007239
    76  H   -0.014726
    77  H    0.016059
    78  H   -0.006017
    79  H   -0.020748
    80  H    0.004839
    81  H    0.021086
    82  H    0.013811
    83  H   -0.004052
    84  H   -0.026653
    85  H   -0.023407
    86  H   -0.039514
    87  H   -0.013108
    88  H   -0.000110
    89  H    0.011224
    90  H   -0.016913
    91  H   -0.028199
    92  H   -0.009494
    93  H    0.010055
    94  H   -0.006890
    95  H   -0.009205
    96  H   -0.000439
    97  H   -0.012820
    98  H   -0.007117
    99  H    0.023595
   100  H    0.017818
   101  H    0.019654
   102  H    0.009690
   103  H   -0.002084
   104  H   -0.047830
   105  H   -0.001706
   106  H    0.019960
   107  H   -0.033080
   108  H   -0.015708
   109  H   -0.030801
   110  H   -0.025806
   111  H    0.009216
   112  H   -0.022276
   113  H   -0.031844
   114  H   -0.045299
   115  H   -0.008136
   116  H   -0.015514
   117  H   -0.012954
   118  H   -0.040390
   119  H   -0.026907
   120  H   -0.020288
   121  H   -0.027006
   122  H   -0.044587
   123  H   -0.041485
   124  H   -0.037982
   125  H   -0.035252
   126  H   -0.004634
   127  H   -0.032931
   128  H   -0.045874
   129  H   -0.051411
   130  H   -0.023028
   131  H   -0.046563
   132  H   -0.034899
   133  H   -0.030842
   134  H   -0.013076
   135  H   -0.029283
   136  H   -0.028755
   137  H   -0.016011
   138  H   -0.015476
   139  H   -0.018274
   140  H    0.000450
 Sum of Mulliken charges =  -0.00000

 Dipole moment (field-independent basis, Debye):
    X=             -4.1913    Y=              2.0319    Z=              0.1307  Tot=              4.6597
 Quadrupole moment (field-independent basis, Debye-Ang):
   XX=           -380.7409   YY=           -421.6240   ZZ=           -411.0878
   XY=             -6.0613   XZ=             22.6116   YZ=              1.6623

 Normal termination of Gaussian 16 at Thu May  5 07:33:19 2022.
