 Gaussian 16, Revision A.03,
 Gaussian 16:  ES64L-G16RevA.03 25-Dec-2016

 -----------------------------------
 #p cam-b3lyp/Def2SVP td=(nstates=5)
 -----------------------------------

 -------------------------------------------------------
 step_651_chromophore_13 TDDFT with cam-b3lyp functional
 -------------------------------------------------------
 Symbolic Z-matrix:
 Charge =  0 Multiplicity = 1

                         Standard orientation:
 ---------------------------------------------------------------------
 Center     Atomic      Atomic             Coordinates (Angstroms)
 Number     Number       Type             X           Y           Z
 ---------------------------------------------------------------------
      1         12           0        5.775562    0.466567   -0.002659
      2          6           0        3.655581   -2.261492   -0.000879
      3          6           0        3.261453    2.534562   -0.674814
      4          6           0        8.163381    2.791562   -0.262986
      5          6           0        8.378400   -1.942592    0.719594
      6          7           0        3.742043    0.138478   -0.467294
      7          6           0        2.999389   -1.057873   -0.256111
      8          6           0        1.493739   -0.814295   -0.435628
      9          6           0        1.441014    0.679266   -0.782452
     10          6           0        2.909013    1.147286   -0.650229
     11          6           0        0.754699    0.971801   -2.124301
     12          6           0        0.577002   -1.313085    0.768607
     13          6           0       -0.593293   -2.268203    0.470708
     14          6           0       -1.997544   -1.931574    1.121144
     15          8           0       -2.208779   -1.391350    2.192645
     16          8           0       -2.949736   -2.171619    0.213712
     17          7           0        5.690526    2.391408   -0.470562
     18          6           0        4.576508    3.119772   -0.691421
     19          6           0        4.857732    4.545067   -0.685237
     20          6           0        6.267679    4.613918   -0.756603
     21          6           0        6.799837    3.234510   -0.456330
     22          6           0        3.875544    5.627601   -0.455349
     23          6           0        7.141018    5.852383   -0.838510
     24          8           0        8.425795    5.761450   -0.818667
     25          6           0        6.566362    7.204953   -1.025953
     26          7           0        7.873432    0.452256    0.272845
     27          6           0        8.652538    1.566027    0.046178
     28          6           0       10.187259    1.270079    0.163211
     29          6           0       10.173496   -0.097340    0.928078
     30          6           0        8.723696   -0.537005    0.564917
     31          6           0       10.750330    1.183070   -1.324537
     32          6           0       10.522527   -0.013204    2.432793
     33          6           0        9.487181   -0.357059    3.533833
     34          7           0        6.056733   -1.652520    0.253839
     35          6           0        7.151018   -2.435916    0.612981
     36          6           0        6.692706   -3.784399    0.703256
     37          6           0        5.329941   -3.835294    0.478150
     38          6           0        5.040447   -2.497540    0.213212
     39          6           0        7.562584   -4.964002    0.963263
     40          6           0        4.060855   -4.674920    0.396943
     41          8           0        3.928374   -5.895195    0.401692
     42          6           0        2.980949   -3.647398   -0.024053
     43          6           0        2.452704   -3.974491   -1.388830
     44          8           0        3.012347   -3.654760   -2.434972
     45          8           0        1.141640   -4.479301   -1.270190
     46          6           0        0.317815   -4.740745   -2.451414
     47          6           0       -4.335434   -1.998103    0.633746
     48          6           0       -5.175264   -0.994798   -0.137717
     49          6           0       -6.496675   -1.028156   -0.372172
     50          6           0       -7.442402   -1.892155    0.455988
     51          6           0       -7.235154    0.058116   -1.151966
     52          6           0       -7.224591    1.373733   -0.316137
     53          6           0       -8.546590    2.164164   -0.437333
     54          6           0       -8.976526    2.786365    0.935637
     55          6           0       -7.915260    3.773693    1.557836
     56          6           0       -9.372160    1.677912    2.063487
     57          6           0      -10.777553    1.861809    2.727548
     58          6           0      -11.779329    0.720939    2.304768
     59          6           0      -12.987586    1.209860    1.526999
     60          6           0      -13.922351    2.026588    2.381159
     61          6           0      -13.682833    0.049784    0.708707
     62          6           0      -14.105580    0.485442   -0.685430
     63          6           0      -13.650759   -0.538512   -1.720660
     64          6           0      -12.106539   -0.484175   -2.043042
     65          6           0      -12.039273   -0.113368   -3.519515
     66          6           0      -11.413014   -1.802803   -1.690275
     67          1           0        2.468516    3.272551   -0.807393
     68          1           0        9.030098    3.441442   -0.401200
     69          1           0        9.308769   -2.498876    0.859301
     70          1           0        1.182817   -1.404371   -1.298449
     71          1           0        0.897807    1.266970   -0.042865
     72          1           0        0.460852    0.038380   -2.605079
     73          1           0        1.466782    1.433847   -2.806853
     74          1           0       -0.160294    1.554765   -2.015692
     75          1           0        0.173785   -0.408260    1.221783
     76          1           0        1.142785   -1.967177    1.431222
     77          1           0       -0.298997   -3.238815    0.869862
     78          1           0       -0.703839   -2.338295   -0.611185
     79          1           0        2.879315    5.240426   -0.243852
     80          1           0        3.812279    6.203684   -1.379407
     81          1           0        4.110998    6.245395    0.410713
     82          1           0        5.908789    7.389731   -1.874542
     83          1           0        7.319354    7.969526   -0.835131
     84          1           0        5.862801    7.280959   -0.197318
     85          1           0       10.809168    1.980854    0.708471
     86          1           0       10.788726   -0.837489    0.416732
     87          1           0       11.387929    0.315430   -1.500228
     88          1           0       11.421085    2.009967   -1.555946
     89          1           0        9.903675    1.169288   -2.010463
     90          1           0       11.032716    0.912221    2.701390
     91          1           0       11.254270   -0.814767    2.534203
     92          1           0        9.682750   -1.393660    3.810326
     93          1           0        8.491690   -0.279816    3.096518
     94          1           0        9.473579    0.257298    4.434073
     95          1           0        7.567966   -5.197586    2.028775
     96          1           0        8.564310   -4.966194    0.533391
     97          1           0        7.073385   -5.880149    0.633248
     98          1           0        2.175408   -3.805345    0.691874
     99          1           0       -0.108287   -5.742015   -2.386509
    100          1           0        0.896787   -4.722221   -3.374321
    101          1           0       -0.456316   -3.976103   -2.519387
    102          1           0       -4.551200   -1.914789    1.698953
    103          1           0       -4.824017   -2.953740    0.443190
    104          1           0       -4.609408   -0.283195   -0.738940
    105          1           0       -8.159467   -2.418330   -0.174061
    106          1           0       -7.905929   -1.240288    1.197625
    107          1           0       -6.838431   -2.669706    0.924821
    108          1           0       -8.226313   -0.178912   -1.537197
    109          1           0       -6.485301    0.229414   -1.924229
    110          1           0       -6.529883    2.065735   -0.791083
    111          1           0       -6.991314    1.194478    0.733529
    112          1           0       -9.395837    1.588300   -0.804216
    113          1           0       -8.395405    3.022982   -1.091412
    114          1           0       -9.968068    3.157778    0.674576
    115          1           0       -8.278172    4.165897    2.507840
    116          1           0       -7.574477    4.582208    0.910418
    117          1           0       -7.025864    3.184664    1.777911
    118          1           0       -8.635212    1.738004    2.864538
    119          1           0       -9.191634    0.709340    1.597710
    120          1           0      -11.264228    2.771638    2.377026
    121          1           0      -10.669158    1.876513    3.812518
    122          1           0      -12.097838    0.235703    3.227511
    123          1           0      -11.388077   -0.119658    1.731218
    124          1           0      -12.637986    1.942216    0.799156
    125          1           0      -14.920221    1.597956    2.284214
    126          1           0      -13.912683    3.097394    2.180382
    127          1           0      -13.792840    1.827765    3.445776
    128          1           0      -14.522367   -0.330832    1.290887
    129          1           0      -13.105679   -0.872916    0.655036
    130          1           0      -13.924224    1.549329   -0.840379
    131          1           0      -15.180926    0.308233   -0.668768
    132          1           0      -14.238004   -0.280326   -2.602344
    133          1           0      -13.979525   -1.525326   -1.395359
    134          1           0      -11.639239    0.282922   -1.425895
    135          1           0      -11.140368   -0.517977   -3.985307
    136          1           0      -11.984951    0.949029   -3.757604
    137          1           0      -12.893777   -0.331176   -4.159817
    138          1           0      -10.570008   -1.992380   -2.355291
    139          1           0      -12.142802   -2.602425   -1.815224
    140          1           0      -11.045759   -1.795663   -0.664563
 ---------------------------------------------------------------------

 SCF Done:  E(RCAM-B3LYP) =  -3007.14897934     A.U. after   19 cycles

 Excitation energies and oscillator strengths:

 Excited State   1:      Singlet-A      1.6489 eV  751.94 nm  f=0.3822  <S**2>=0.000
     245 -> 248       -0.15717
     246 -> 247        0.68919
     245 <- 248       -0.10291
 This state for optimization and/or second-order correction.
 Total Energy, E(TD-HF/TD-DFT) =  -3007.08838492
 Copying the excited state density for this state as the 1-particle RhoCI density.

 Excited State   2:      Singlet-A      2.3098 eV  536.78 nm  f=0.0593  <S**2>=0.000
     245 -> 247        0.60042
     246 -> 248        0.35552

 Excited State   3:      Singlet-A      3.4088 eV  363.71 nm  f=0.5048  <S**2>=0.000
     241 -> 250       -0.10068
     242 -> 247       -0.18424
     243 -> 247       -0.18983
     245 -> 247       -0.30014
     246 -> 248        0.53772

 Excited State   4:      Singlet-A      3.4436 eV  360.04 nm  f=0.1328  <S**2>=0.000
     241 -> 247        0.36909
     241 -> 248       -0.19183
     241 -> 249        0.19877
     241 -> 250        0.24781
     242 -> 249        0.11776
     242 -> 250        0.11593
     243 -> 247        0.26956
     245 -> 247       -0.14160
     246 -> 248        0.24543

 Excited State   5:      Singlet-A      3.5120 eV  353.03 nm  f=0.0021  <S**2>=0.000
     241 -> 247       -0.10675
     242 -> 247       -0.42254
     243 -> 247        0.51524

 The electronic state is 1-A.
 Alpha  occ. eigenvalues --  -46.87638 -19.26182 -19.25430 -19.20777 -19.20450
 Alpha  occ. eigenvalues --  -19.19811 -19.17793 -14.42120 -14.42070 -14.39706
 Alpha  occ. eigenvalues --  -14.38738 -10.40441 -10.39797 -10.36696 -10.34826
 Alpha  occ. eigenvalues --  -10.32445 -10.32172 -10.31506 -10.31034 -10.30864
 Alpha  occ. eigenvalues --  -10.30781 -10.29862 -10.29810 -10.29000 -10.28777
 Alpha  occ. eigenvalues --  -10.28707 -10.28553 -10.28038 -10.27895 -10.27831
 Alpha  occ. eigenvalues --  -10.27736 -10.27728 -10.27707 -10.27670 -10.27266
 Alpha  occ. eigenvalues --  -10.27253 -10.27252 -10.27091 -10.26839 -10.26605
 Alpha  occ. eigenvalues --  -10.26363 -10.26360 -10.26114 -10.26065 -10.26042
 Alpha  occ. eigenvalues --  -10.26033 -10.25946 -10.25925 -10.25835 -10.25596
 Alpha  occ. eigenvalues --  -10.25473 -10.25464 -10.25420 -10.25381 -10.25202
 Alpha  occ. eigenvalues --  -10.25166 -10.25150 -10.25117 -10.25075 -10.24898
 Alpha  occ. eigenvalues --  -10.24859 -10.24506 -10.24446 -10.24412 -10.24388
 Alpha  occ. eigenvalues --  -10.24111  -3.16414  -1.91311  -1.90861  -1.90745
 Alpha  occ. eigenvalues --   -1.17901  -1.15361  -1.10576  -1.08239  -1.08074
 Alpha  occ. eigenvalues --   -1.05882  -1.04814  -1.03706  -1.03529  -1.02312
 Alpha  occ. eigenvalues --   -0.92743  -0.90839  -0.90191  -0.89565  -0.88638
 Alpha  occ. eigenvalues --   -0.88545  -0.87992  -0.87615  -0.87478  -0.87218
 Alpha  occ. eigenvalues --   -0.86346  -0.85616  -0.84350  -0.84043  -0.83270
 Alpha  occ. eigenvalues --   -0.82752  -0.82131  -0.81466  -0.81027  -0.80505
 Alpha  occ. eigenvalues --   -0.79663  -0.78165  -0.77797  -0.77251  -0.76449
 Alpha  occ. eigenvalues --   -0.76304  -0.76084  -0.75002  -0.74795  -0.74091
 Alpha  occ. eigenvalues --   -0.73805  -0.72711  -0.71250  -0.70400  -0.69493
 Alpha  occ. eigenvalues --   -0.68952  -0.68399  -0.67636  -0.67112  -0.65604
 Alpha  occ. eigenvalues --   -0.65553  -0.64955  -0.64539  -0.64197  -0.64066
 Alpha  occ. eigenvalues --   -0.64002  -0.63043  -0.62048  -0.61289  -0.60199
 Alpha  occ. eigenvalues --   -0.60005  -0.59692  -0.59289  -0.58710  -0.58109
 Alpha  occ. eigenvalues --   -0.57752  -0.57533  -0.56045  -0.55747  -0.55516
 Alpha  occ. eigenvalues --   -0.55403  -0.54917  -0.54726  -0.54509  -0.54431
 Alpha  occ. eigenvalues --   -0.54147  -0.53518  -0.53290  -0.52847  -0.52756
 Alpha  occ. eigenvalues --   -0.52673  -0.52557  -0.52373  -0.52157  -0.52057
 Alpha  occ. eigenvalues --   -0.51747  -0.51556  -0.51326  -0.51060  -0.50767
 Alpha  occ. eigenvalues --   -0.50384  -0.50036  -0.49834  -0.49753  -0.49672
 Alpha  occ. eigenvalues --   -0.49648  -0.49582  -0.49239  -0.49231  -0.48836
 Alpha  occ. eigenvalues --   -0.48774  -0.48515  -0.48357  -0.47959  -0.47848
 Alpha  occ. eigenvalues --   -0.47443  -0.47365  -0.46977  -0.46849  -0.46697
 Alpha  occ. eigenvalues --   -0.46295  -0.45917  -0.45894  -0.45658  -0.45475
 Alpha  occ. eigenvalues --   -0.45353  -0.45172  -0.44971  -0.44857  -0.44668
 Alpha  occ. eigenvalues --   -0.44460  -0.44354  -0.44167  -0.44079  -0.43950
 Alpha  occ. eigenvalues --   -0.43704  -0.43639  -0.43526  -0.43507  -0.43095
 Alpha  occ. eigenvalues --   -0.43038  -0.42944  -0.42743  -0.42387  -0.42005
 Alpha  occ. eigenvalues --   -0.41942  -0.41883  -0.41817  -0.41472  -0.41092
 Alpha  occ. eigenvalues --   -0.40952  -0.40866  -0.40862  -0.40597  -0.40105
 Alpha  occ. eigenvalues --   -0.39830  -0.39790  -0.39462  -0.39037  -0.38948
 Alpha  occ. eigenvalues --   -0.38418  -0.38166  -0.38127  -0.37896  -0.37659
 Alpha  occ. eigenvalues --   -0.37235  -0.37068  -0.36973  -0.36442  -0.36401
 Alpha  occ. eigenvalues --   -0.35770  -0.35329  -0.34999  -0.34883  -0.34686
 Alpha  occ. eigenvalues --   -0.34230  -0.34220  -0.33076  -0.32002  -0.31176
 Alpha  occ. eigenvalues --   -0.30403  -0.30154  -0.29712  -0.29578  -0.24496
 Alpha  occ. eigenvalues --   -0.20377
 Alpha virt. eigenvalues --   -0.08356  -0.01697  -0.00045   0.01663   0.03226
 Alpha virt. eigenvalues --    0.04144   0.05049   0.05448   0.05835   0.06706
 Alpha virt. eigenvalues --    0.06773   0.07422   0.08289   0.08442   0.08632

 Mulliken charges:
               1
     1  Mg   0.848508
     2  C   -0.031100
     3  C   -0.093279
     4  C   -0.019082
     5  C   -0.133789
     6  N   -0.318951
     7  C   -0.041825
     8  C    0.014086
     9  C   -0.063573
    10  C    0.074947
    11  C    0.077404
    12  C    0.074190
    13  C    0.007037
    14  C    0.145019
    15  O   -0.224810
    16  O   -0.293813
    17  N   -0.409458
    18  C    0.136240
    19  C   -0.163108
    20  C   -0.015318
    21  C    0.143197
    22  C    0.108446
    23  C    0.007246
    24  O   -0.268556
    25  C    0.081871
    26  N   -0.260404
    27  C    0.013877
    28  C   -0.066930
    29  C    0.011169
    30  C   -0.074259
    31  C    0.051685
    32  C    0.046247
    33  C    0.003331
    34  N   -0.302048
    35  C    0.245636
    36  C   -0.198339
    37  C   -0.012722
    38  C    0.130126
    39  C    0.116927
    40  C    0.098094
    41  O   -0.159888
    42  C   -0.030191
    43  C    0.237393
    44  O   -0.207107
    45  O   -0.366877
    46  C    0.168766
    47  C    0.264629
    48  C   -0.096111
    49  C   -0.212969
    50  C    0.074194
    51  C    0.103377
    52  C   -0.007779
    53  C    0.018827
    54  C   -0.120689
    55  C    0.047001
    56  C    0.015905
    57  C    0.045718
    58  C    0.043426
    59  C   -0.161115
    60  C    0.077105
    61  C    0.046324
    62  C    0.035913
    63  C    0.030376
    64  C   -0.126464
    65  C    0.032991
    66  C    0.041733
    67  H   -0.033734
    68  H   -0.005929
    69  H   -0.026439
    70  H    0.017654
    71  H    0.012894
    72  H    0.004600
    73  H    0.023471
    74  H    0.017625
    75  H    0.025162
    76  H    0.015066
    77  H    0.044755
    78  H    0.023292
    79  H    0.008235
    80  H    0.029840
    81  H    0.045710
    82  H    0.042682
    83  H    0.031712
    84  H    0.000464
    85  H    0.011728
    86  H   -0.003731
    87  H    0.010135
    88  H    0.023708
    89  H    0.035930
    90  H    0.012104
    91  H    0.000799
    92  H    0.012602
    93  H    0.030091
    94  H    0.018789
    95  H    0.019854
    96  H    0.025162
    97  H    0.016879
    98  H    0.034466
    99  H    0.045250
   100  H    0.043798
   101  H    0.037508
   102  H    0.042071
   103  H    0.024568
   104  H   -0.013436
   105  H    0.021579
   106  H    0.040139
   107  H   -0.009006
   108  H    0.010048
   109  H    0.000750
   110  H    0.003569
   111  H    0.032336
   112  H   -0.000159
   113  H   -0.002823
   114  H   -0.014552
   115  H    0.015697
   116  H    0.009031
   117  H    0.009252
   118  H   -0.010673
   119  H   -0.007000
   120  H    0.005544
   121  H    0.003131
   122  H   -0.015551
   123  H   -0.016171
   124  H   -0.010554
   125  H   -0.008737
   126  H    0.019415
   127  H   -0.006751
   128  H   -0.015888
   129  H   -0.022452
   130  H    0.004971
   131  H   -0.014732
   132  H   -0.004843
   133  H   -0.002980
   134  H    0.012088
   135  H   -0.004837
   136  H   -0.002636
   137  H    0.008185
   138  H    0.006695
   139  H    0.005968
   140  H    0.018204
 Sum of Mulliken charges =  -0.00000

 Dipole moment (field-independent basis, Debye):
    X=             -4.2467    Y=              1.8595    Z=              0.1801  Tot=              4.6395
 Quadrupole moment (field-independent basis, Debye-Ang):
   XX=           -378.1306   YY=           -416.9470   ZZ=           -411.2213
   XY=             -6.9851   XZ=             24.3086   YZ=              1.0684

 Normal termination of Gaussian 16 at Thu May  5 05:06:40 2022.
