 Gaussian 16, Revision A.03,
 Gaussian 16:  ES64L-G16RevA.03 25-Dec-2016

 ---------------------------------
 #p PBE1PBE/Def2SVP td=(nstates=5)
 ---------------------------------

 -----------------------------------------------------
 step_651_chromophore_13 TDDFT with PBE1PBE functional
 -----------------------------------------------------
 Symbolic Z-matrix:
 Charge =  0 Multiplicity = 1

                         Standard orientation:
 ---------------------------------------------------------------------
 Center     Atomic      Atomic             Coordinates (Angstroms)
 Number     Number       Type             X           Y           Z
 ---------------------------------------------------------------------
      1         12           0        5.775562    0.466567   -0.002659
      2          6           0        3.655581   -2.261492   -0.000879
      3          6           0        3.261453    2.534562   -0.674814
      4          6           0        8.163381    2.791562   -0.262986
      5          6           0        8.378400   -1.942592    0.719594
      6          7           0        3.742043    0.138478   -0.467294
      7          6           0        2.999389   -1.057873   -0.256111
      8          6           0        1.493739   -0.814295   -0.435628
      9          6           0        1.441014    0.679266   -0.782452
     10          6           0        2.909013    1.147286   -0.650229
     11          6           0        0.754699    0.971801   -2.124301
     12          6           0        0.577002   -1.313085    0.768607
     13          6           0       -0.593293   -2.268203    0.470708
     14          6           0       -1.997544   -1.931574    1.121144
     15          8           0       -2.208779   -1.391350    2.192645
     16          8           0       -2.949736   -2.171619    0.213712
     17          7           0        5.690526    2.391408   -0.470562
     18          6           0        4.576508    3.119772   -0.691421
     19          6           0        4.857732    4.545067   -0.685237
     20          6           0        6.267679    4.613918   -0.756603
     21          6           0        6.799837    3.234510   -0.456330
     22          6           0        3.875544    5.627601   -0.455349
     23          6           0        7.141018    5.852383   -0.838510
     24          8           0        8.425795    5.761450   -0.818667
     25          6           0        6.566362    7.204953   -1.025953
     26          7           0        7.873432    0.452256    0.272845
     27          6           0        8.652538    1.566027    0.046178
     28          6           0       10.187259    1.270079    0.163211
     29          6           0       10.173496   -0.097340    0.928078
     30          6           0        8.723696   -0.537005    0.564917
     31          6           0       10.750330    1.183070   -1.324537
     32          6           0       10.522527   -0.013204    2.432793
     33          6           0        9.487181   -0.357059    3.533833
     34          7           0        6.056733   -1.652520    0.253839
     35          6           0        7.151018   -2.435916    0.612981
     36          6           0        6.692706   -3.784399    0.703256
     37          6           0        5.329941   -3.835294    0.478150
     38          6           0        5.040447   -2.497540    0.213212
     39          6           0        7.562584   -4.964002    0.963263
     40          6           0        4.060855   -4.674920    0.396943
     41          8           0        3.928374   -5.895195    0.401692
     42          6           0        2.980949   -3.647398   -0.024053
     43          6           0        2.452704   -3.974491   -1.388830
     44          8           0        3.012347   -3.654760   -2.434972
     45          8           0        1.141640   -4.479301   -1.270190
     46          6           0        0.317815   -4.740745   -2.451414
     47          6           0       -4.335434   -1.998103    0.633746
     48          6           0       -5.175264   -0.994798   -0.137717
     49          6           0       -6.496675   -1.028156   -0.372172
     50          6           0       -7.442402   -1.892155    0.455988
     51          6           0       -7.235154    0.058116   -1.151966
     52          6           0       -7.224591    1.373733   -0.316137
     53          6           0       -8.546590    2.164164   -0.437333
     54          6           0       -8.976526    2.786365    0.935637
     55          6           0       -7.915260    3.773693    1.557836
     56          6           0       -9.372160    1.677912    2.063487
     57          6           0      -10.777553    1.861809    2.727548
     58          6           0      -11.779329    0.720939    2.304768
     59          6           0      -12.987586    1.209860    1.526999
     60          6           0      -13.922351    2.026588    2.381159
     61          6           0      -13.682833    0.049784    0.708707
     62          6           0      -14.105580    0.485442   -0.685430
     63          6           0      -13.650759   -0.538512   -1.720660
     64          6           0      -12.106539   -0.484175   -2.043042
     65          6           0      -12.039273   -0.113368   -3.519515
     66          6           0      -11.413014   -1.802803   -1.690275
     67          1           0        2.468516    3.272551   -0.807393
     68          1           0        9.030098    3.441442   -0.401200
     69          1           0        9.308769   -2.498876    0.859301
     70          1           0        1.182817   -1.404371   -1.298449
     71          1           0        0.897807    1.266970   -0.042865
     72          1           0        0.460852    0.038380   -2.605079
     73          1           0        1.466782    1.433847   -2.806853
     74          1           0       -0.160294    1.554765   -2.015692
     75          1           0        0.173785   -0.408260    1.221783
     76          1           0        1.142785   -1.967177    1.431222
     77          1           0       -0.298997   -3.238815    0.869862
     78          1           0       -0.703839   -2.338295   -0.611185
     79          1           0        2.879315    5.240426   -0.243852
     80          1           0        3.812279    6.203684   -1.379407
     81          1           0        4.110998    6.245395    0.410713
     82          1           0        5.908789    7.389731   -1.874542
     83          1           0        7.319354    7.969526   -0.835131
     84          1           0        5.862801    7.280959   -0.197318
     85          1           0       10.809168    1.980854    0.708471
     86          1           0       10.788726   -0.837489    0.416732
     87          1           0       11.387929    0.315430   -1.500228
     88          1           0       11.421085    2.009967   -1.555946
     89          1           0        9.903675    1.169288   -2.010463
     90          1           0       11.032716    0.912221    2.701390
     91          1           0       11.254270   -0.814767    2.534203
     92          1           0        9.682750   -1.393660    3.810326
     93          1           0        8.491690   -0.279816    3.096518
     94          1           0        9.473579    0.257298    4.434073
     95          1           0        7.567966   -5.197586    2.028775
     96          1           0        8.564310   -4.966194    0.533391
     97          1           0        7.073385   -5.880149    0.633248
     98          1           0        2.175408   -3.805345    0.691874
     99          1           0       -0.108287   -5.742015   -2.386509
    100          1           0        0.896787   -4.722221   -3.374321
    101          1           0       -0.456316   -3.976103   -2.519387
    102          1           0       -4.551200   -1.914789    1.698953
    103          1           0       -4.824017   -2.953740    0.443190
    104          1           0       -4.609408   -0.283195   -0.738940
    105          1           0       -8.159467   -2.418330   -0.174061
    106          1           0       -7.905929   -1.240288    1.197625
    107          1           0       -6.838431   -2.669706    0.924821
    108          1           0       -8.226313   -0.178912   -1.537197
    109          1           0       -6.485301    0.229414   -1.924229
    110          1           0       -6.529883    2.065735   -0.791083
    111          1           0       -6.991314    1.194478    0.733529
    112          1           0       -9.395837    1.588300   -0.804216
    113          1           0       -8.395405    3.022982   -1.091412
    114          1           0       -9.968068    3.157778    0.674576
    115          1           0       -8.278172    4.165897    2.507840
    116          1           0       -7.574477    4.582208    0.910418
    117          1           0       -7.025864    3.184664    1.777911
    118          1           0       -8.635212    1.738004    2.864538
    119          1           0       -9.191634    0.709340    1.597710
    120          1           0      -11.264228    2.771638    2.377026
    121          1           0      -10.669158    1.876513    3.812518
    122          1           0      -12.097838    0.235703    3.227511
    123          1           0      -11.388077   -0.119658    1.731218
    124          1           0      -12.637986    1.942216    0.799156
    125          1           0      -14.920221    1.597956    2.284214
    126          1           0      -13.912683    3.097394    2.180382
    127          1           0      -13.792840    1.827765    3.445776
    128          1           0      -14.522367   -0.330832    1.290887
    129          1           0      -13.105679   -0.872916    0.655036
    130          1           0      -13.924224    1.549329   -0.840379
    131          1           0      -15.180926    0.308233   -0.668768
    132          1           0      -14.238004   -0.280326   -2.602344
    133          1           0      -13.979525   -1.525326   -1.395359
    134          1           0      -11.639239    0.282922   -1.425895
    135          1           0      -11.140368   -0.517977   -3.985307
    136          1           0      -11.984951    0.949029   -3.757604
    137          1           0      -12.893777   -0.331176   -4.159817
    138          1           0      -10.570008   -1.992380   -2.355291
    139          1           0      -12.142802   -2.602425   -1.815224
    140          1           0      -11.045759   -1.795663   -0.664563
 ---------------------------------------------------------------------

 SCF Done:  E(RPBE1PBE) =  -3005.33802067     A.U. after   16 cycles

 Excitation energies and oscillator strengths:

 Excited State   1:      Singlet-A      1.8013 eV  688.31 nm  f=0.3657  <S**2>=0.000
     245 -> 248       -0.14869
     246 -> 247        0.69832
     246 <- 247       -0.12296
 This state for optimization and/or second-order correction.
 Total Energy, E(TD-HF/TD-DFT) =  -3005.27182489
 Copying the excited state density for this state as the 1-particle RhoCI density.

 Excited State   2:      Singlet-A      2.3119 eV  536.29 nm  f=0.0692  <S**2>=0.000
     245 -> 247        0.62024
     246 -> 248        0.31557

 Excited State   3:      Singlet-A      2.9581 eV  419.13 nm  f=0.0001  <S**2>=0.000
     243 -> 247        0.64793
     243 -> 248       -0.15545
     243 -> 249        0.13302
     243 -> 250        0.13574

 Excited State   4:      Singlet-A      3.1551 eV  392.96 nm  f=0.1363  <S**2>=0.000
     241 -> 247       -0.10713
     242 -> 247        0.26533
     245 -> 247       -0.18377
     246 -> 248        0.47753
     246 -> 249       -0.35479
     246 -> 250       -0.13619

 Excited State   5:      Singlet-A      3.1692 eV  391.22 nm  f=0.0194  <S**2>=0.000
     241 -> 247        0.10780
     242 -> 247        0.63756
     246 -> 248       -0.19761
     246 -> 249        0.13157

 The electronic state is 1-A.
 Alpha  occ. eigenvalues --  -46.91088 -19.26905 -19.26052 -19.20942 -19.20520
 Alpha  occ. eigenvalues --  -19.20132 -19.18129 -14.41726 -14.41537 -14.39465
 Alpha  occ. eigenvalues --  -14.38340 -10.37407 -10.36866 -10.33745 -10.32050
 Alpha  occ. eigenvalues --  -10.29889 -10.29361 -10.29212 -10.28846 -10.28733
 Alpha  occ. eigenvalues --  -10.28602 -10.27734 -10.27661 -10.26587 -10.26379
 Alpha  occ. eigenvalues --  -10.26335 -10.26223 -10.25877 -10.25775 -10.25669
 Alpha  occ. eigenvalues --  -10.25583 -10.25490 -10.25241 -10.25192 -10.25113
 Alpha  occ. eigenvalues --  -10.24881 -10.24798 -10.24759 -10.24709 -10.24116
 Alpha  occ. eigenvalues --  -10.24043 -10.23965 -10.23780 -10.23621 -10.23543
 Alpha  occ. eigenvalues --  -10.23502 -10.23483 -10.23430 -10.23282 -10.23140
 Alpha  occ. eigenvalues --  -10.23040 -10.23027 -10.22964 -10.22866 -10.22812
 Alpha  occ. eigenvalues --  -10.22764 -10.22657 -10.22525 -10.22520 -10.22491
 Alpha  occ. eigenvalues --  -10.22250 -10.22052 -10.22030 -10.21958 -10.21810
 Alpha  occ. eigenvalues --  -10.21492  -3.13437  -1.86277  -1.85805  -1.85693
 Alpha  occ. eigenvalues --   -1.12781  -1.10047  -1.05185  -1.03140  -1.02841
 Alpha  occ. eigenvalues --   -1.00638  -0.99405  -0.98321  -0.98223  -0.97102
 Alpha  occ. eigenvalues --   -0.87018  -0.84975  -0.84281  -0.83823  -0.82928
 Alpha  occ. eigenvalues --   -0.82647  -0.82318  -0.81809  -0.81740  -0.81508
 Alpha  occ. eigenvalues --   -0.80685  -0.79904  -0.78578  -0.78283  -0.77497
 Alpha  occ. eigenvalues --   -0.76986  -0.76359  -0.75686  -0.75306  -0.74854
 Alpha  occ. eigenvalues --   -0.73837  -0.72542  -0.72067  -0.71545  -0.70727
 Alpha  occ. eigenvalues --   -0.70393  -0.70239  -0.69371  -0.68930  -0.68354
 Alpha  occ. eigenvalues --   -0.68065  -0.67143  -0.65691  -0.64732  -0.63812
 Alpha  occ. eigenvalues --   -0.63239  -0.62795  -0.61850  -0.61586  -0.60091
 Alpha  occ. eigenvalues --   -0.59769  -0.59390  -0.59128  -0.58749  -0.58574
 Alpha  occ. eigenvalues --   -0.58172  -0.57241  -0.56580  -0.55541  -0.54751
 Alpha  occ. eigenvalues --   -0.54398  -0.54174  -0.53877  -0.53282  -0.52648
 Alpha  occ. eigenvalues --   -0.52157  -0.52137  -0.50695  -0.50164  -0.50132
 Alpha  occ. eigenvalues --   -0.49888  -0.49453  -0.49225  -0.48969  -0.48865
 Alpha  occ. eigenvalues --   -0.48579  -0.48057  -0.47901  -0.47315  -0.47275
 Alpha  occ. eigenvalues --   -0.47162  -0.47072  -0.46886  -0.46648  -0.46582
 Alpha  occ. eigenvalues --   -0.46387  -0.46150  -0.45762  -0.45594  -0.45351
 Alpha  occ. eigenvalues --   -0.44944  -0.44611  -0.44426  -0.44345  -0.44272
 Alpha  occ. eigenvalues --   -0.44186  -0.44150  -0.43854  -0.43815  -0.43469
 Alpha  occ. eigenvalues --   -0.43349  -0.43182  -0.42978  -0.42557  -0.42529
 Alpha  occ. eigenvalues --   -0.42157  -0.42045  -0.41680  -0.41476  -0.41331
 Alpha  occ. eigenvalues --   -0.41079  -0.40668  -0.40622  -0.40308  -0.40220
 Alpha  occ. eigenvalues --   -0.40069  -0.39919  -0.39697  -0.39509  -0.39364
 Alpha  occ. eigenvalues --   -0.39242  -0.39029  -0.38889  -0.38775  -0.38701
 Alpha  occ. eigenvalues --   -0.38507  -0.38423  -0.38319  -0.38209  -0.37999
 Alpha  occ. eigenvalues --   -0.37784  -0.37686  -0.37518  -0.37188  -0.36873
 Alpha  occ. eigenvalues --   -0.36731  -0.36666  -0.36571  -0.36354  -0.35885
 Alpha  occ. eigenvalues --   -0.35852  -0.35741  -0.35615  -0.35544  -0.34834
 Alpha  occ. eigenvalues --   -0.34758  -0.34585  -0.34383  -0.33965  -0.33776
 Alpha  occ. eigenvalues --   -0.33223  -0.33089  -0.33052  -0.32680  -0.32634
 Alpha  occ. eigenvalues --   -0.32291  -0.31993  -0.31890  -0.31515  -0.31309
 Alpha  occ. eigenvalues --   -0.30707  -0.30235  -0.29894  -0.29800  -0.29717
 Alpha  occ. eigenvalues --   -0.29176  -0.29094  -0.28713  -0.26999  -0.26631
 Alpha  occ. eigenvalues --   -0.25801  -0.25451  -0.25007  -0.24867  -0.21345
 Alpha  occ. eigenvalues --   -0.18138
 Alpha virt. eigenvalues --   -0.10886  -0.05278  -0.04261  -0.02693  -0.00616
 Alpha virt. eigenvalues --    0.00398   0.00563   0.01204   0.01472   0.02859
 Alpha virt. eigenvalues --    0.03484   0.03714   0.04129   0.05097   0.05281

 Mulliken charges:
               1
     1  Mg   1.006120
     2  C   -0.045458
     3  C   -0.082061
     4  C   -0.014987
     5  C   -0.117060
     6  N   -0.424483
     7  C    0.023912
     8  C   -0.052907
     9  C   -0.139551
    10  C    0.112197
    11  C    0.020863
    12  C    0.025286
    13  C   -0.075687
    14  C    0.216654
    15  O   -0.258688
    16  O   -0.327087
    17  N   -0.529175
    18  C    0.164729
    19  C   -0.188105
    20  C   -0.061343
    21  C    0.179684
    22  C    0.043708
    23  C    0.053511
    24  O   -0.301701
    25  C    0.009244
    26  N   -0.366045
    27  C    0.038415
    28  C   -0.151217
    29  C   -0.053455
    30  C   -0.037111
    31  C    0.000632
    32  C   -0.010287
    33  C   -0.071567
    34  N   -0.429026
    35  C    0.255773
    36  C   -0.233264
    37  C   -0.044092
    38  C    0.176807
    39  C    0.068065
    40  C    0.192919
    41  O   -0.206155
    42  C   -0.136975
    43  C    0.326871
    44  O   -0.241180
    45  O   -0.398811
    46  C    0.116585
    47  C    0.223227
    48  C   -0.105736
    49  C   -0.258253
    50  C    0.007027
    51  C    0.036015
    52  C   -0.070907
    53  C   -0.041331
    54  C   -0.205011
    55  C   -0.016102
    56  C   -0.041348
    57  C   -0.020318
    58  C   -0.008849
    59  C   -0.252957
    60  C    0.022284
    61  C   -0.000491
    62  C   -0.035929
    63  C   -0.024929
    64  C   -0.228119
    65  C   -0.023911
    66  C   -0.020751
    67  H   -0.000312
    68  H    0.025830
    69  H    0.003241
    70  H    0.058273
    71  H    0.049360
    72  H    0.032307
    73  H    0.051046
    74  H    0.044459
    75  H    0.056614
    76  H    0.048881
    77  H    0.077635
    78  H    0.058398
    79  H    0.036110
    80  H    0.059180
    81  H    0.072817
    82  H    0.068653
    83  H    0.059215
    84  H    0.029138
    85  H    0.046414
    86  H    0.032442
    87  H    0.037914
    88  H    0.050934
    89  H    0.063721
    90  H    0.042944
    91  H    0.034245
    92  H    0.040011
    93  H    0.062207
    94  H    0.046417
    95  H    0.048055
    96  H    0.050071
    97  H    0.044672
    98  H    0.072561
    99  H    0.066695
   100  H    0.064089
   101  H    0.058055
   102  H    0.068184
   103  H    0.052628
   104  H    0.017004
   105  H    0.050242
   106  H    0.069810
   107  H    0.019344
   108  H    0.041800
   109  H    0.035719
   110  H    0.036818
   111  H    0.063877
   112  H    0.038871
   113  H    0.030924
   114  H    0.024848
   115  H    0.044540
   116  H    0.036582
   117  H    0.036547
   118  H    0.021768
   119  H    0.033405
   120  H    0.037695
   121  H    0.035228
   122  H    0.018202
   123  H    0.016926
   124  H    0.029305
   125  H    0.019283
   126  H    0.045041
   127  H    0.020783
   128  H    0.016506
   129  H    0.010711
   130  H    0.035745
   131  H    0.021020
   132  H    0.028215
   133  H    0.028567
   134  H    0.057808
   135  H    0.022572
   136  H    0.025421
   137  H    0.034210
   138  H    0.033573
   139  H    0.033542
   140  H    0.046333
 Sum of Mulliken charges =  -0.00000

 Dipole moment (field-independent basis, Debye):
    X=             -4.3012    Y=              2.1577    Z=              0.1598  Tot=              4.8148
 Quadrupole moment (field-independent basis, Debye-Ang):
   XX=           -372.4614   YY=           -414.4433   ZZ=           -408.7753
   XY=             -6.0091   XZ=             24.2528   YZ=              0.9271

 Normal termination of Gaussian 16 at Thu May  5 05:56:52 2022.
