 Gaussian 16, Revision A.03,
 Gaussian 16:  ES64L-G16RevA.03 25-Dec-2016

 --------------------------------
 #p wB97XD/Def2SVP td=(nstates=5)
 --------------------------------

 ----------------------------------------------------
 step_651_chromophore_13 TDDFT with wB97XD functional
 ----------------------------------------------------
 Symbolic Z-matrix:
 Charge =  0 Multiplicity = 1

                         Standard orientation:
 ---------------------------------------------------------------------
 Center     Atomic      Atomic             Coordinates (Angstroms)
 Number     Number       Type             X           Y           Z
 ---------------------------------------------------------------------
      1         12           0        5.775562    0.466567   -0.002659
      2          6           0        3.655581   -2.261492   -0.000879
      3          6           0        3.261453    2.534562   -0.674814
      4          6           0        8.163381    2.791562   -0.262986
      5          6           0        8.378400   -1.942592    0.719594
      6          7           0        3.742043    0.138478   -0.467294
      7          6           0        2.999389   -1.057873   -0.256111
      8          6           0        1.493739   -0.814295   -0.435628
      9          6           0        1.441014    0.679266   -0.782452
     10          6           0        2.909013    1.147286   -0.650229
     11          6           0        0.754699    0.971801   -2.124301
     12          6           0        0.577002   -1.313085    0.768607
     13          6           0       -0.593293   -2.268203    0.470708
     14          6           0       -1.997544   -1.931574    1.121144
     15          8           0       -2.208779   -1.391350    2.192645
     16          8           0       -2.949736   -2.171619    0.213712
     17          7           0        5.690526    2.391408   -0.470562
     18          6           0        4.576508    3.119772   -0.691421
     19          6           0        4.857732    4.545067   -0.685237
     20          6           0        6.267679    4.613918   -0.756603
     21          6           0        6.799837    3.234510   -0.456330
     22          6           0        3.875544    5.627601   -0.455349
     23          6           0        7.141018    5.852383   -0.838510
     24          8           0        8.425795    5.761450   -0.818667
     25          6           0        6.566362    7.204953   -1.025953
     26          7           0        7.873432    0.452256    0.272845
     27          6           0        8.652538    1.566027    0.046178
     28          6           0       10.187259    1.270079    0.163211
     29          6           0       10.173496   -0.097340    0.928078
     30          6           0        8.723696   -0.537005    0.564917
     31          6           0       10.750330    1.183070   -1.324537
     32          6           0       10.522527   -0.013204    2.432793
     33          6           0        9.487181   -0.357059    3.533833
     34          7           0        6.056733   -1.652520    0.253839
     35          6           0        7.151018   -2.435916    0.612981
     36          6           0        6.692706   -3.784399    0.703256
     37          6           0        5.329941   -3.835294    0.478150
     38          6           0        5.040447   -2.497540    0.213212
     39          6           0        7.562584   -4.964002    0.963263
     40          6           0        4.060855   -4.674920    0.396943
     41          8           0        3.928374   -5.895195    0.401692
     42          6           0        2.980949   -3.647398   -0.024053
     43          6           0        2.452704   -3.974491   -1.388830
     44          8           0        3.012347   -3.654760   -2.434972
     45          8           0        1.141640   -4.479301   -1.270190
     46          6           0        0.317815   -4.740745   -2.451414
     47          6           0       -4.335434   -1.998103    0.633746
     48          6           0       -5.175264   -0.994798   -0.137717
     49          6           0       -6.496675   -1.028156   -0.372172
     50          6           0       -7.442402   -1.892155    0.455988
     51          6           0       -7.235154    0.058116   -1.151966
     52          6           0       -7.224591    1.373733   -0.316137
     53          6           0       -8.546590    2.164164   -0.437333
     54          6           0       -8.976526    2.786365    0.935637
     55          6           0       -7.915260    3.773693    1.557836
     56          6           0       -9.372160    1.677912    2.063487
     57          6           0      -10.777553    1.861809    2.727548
     58          6           0      -11.779329    0.720939    2.304768
     59          6           0      -12.987586    1.209860    1.526999
     60          6           0      -13.922351    2.026588    2.381159
     61          6           0      -13.682833    0.049784    0.708707
     62          6           0      -14.105580    0.485442   -0.685430
     63          6           0      -13.650759   -0.538512   -1.720660
     64          6           0      -12.106539   -0.484175   -2.043042
     65          6           0      -12.039273   -0.113368   -3.519515
     66          6           0      -11.413014   -1.802803   -1.690275
     67          1           0        2.468516    3.272551   -0.807393
     68          1           0        9.030098    3.441442   -0.401200
     69          1           0        9.308769   -2.498876    0.859301
     70          1           0        1.182817   -1.404371   -1.298449
     71          1           0        0.897807    1.266970   -0.042865
     72          1           0        0.460852    0.038380   -2.605079
     73          1           0        1.466782    1.433847   -2.806853
     74          1           0       -0.160294    1.554765   -2.015692
     75          1           0        0.173785   -0.408260    1.221783
     76          1           0        1.142785   -1.967177    1.431222
     77          1           0       -0.298997   -3.238815    0.869862
     78          1           0       -0.703839   -2.338295   -0.611185
     79          1           0        2.879315    5.240426   -0.243852
     80          1           0        3.812279    6.203684   -1.379407
     81          1           0        4.110998    6.245395    0.410713
     82          1           0        5.908789    7.389731   -1.874542
     83          1           0        7.319354    7.969526   -0.835131
     84          1           0        5.862801    7.280959   -0.197318
     85          1           0       10.809168    1.980854    0.708471
     86          1           0       10.788726   -0.837489    0.416732
     87          1           0       11.387929    0.315430   -1.500228
     88          1           0       11.421085    2.009967   -1.555946
     89          1           0        9.903675    1.169288   -2.010463
     90          1           0       11.032716    0.912221    2.701390
     91          1           0       11.254270   -0.814767    2.534203
     92          1           0        9.682750   -1.393660    3.810326
     93          1           0        8.491690   -0.279816    3.096518
     94          1           0        9.473579    0.257298    4.434073
     95          1           0        7.567966   -5.197586    2.028775
     96          1           0        8.564310   -4.966194    0.533391
     97          1           0        7.073385   -5.880149    0.633248
     98          1           0        2.175408   -3.805345    0.691874
     99          1           0       -0.108287   -5.742015   -2.386509
    100          1           0        0.896787   -4.722221   -3.374321
    101          1           0       -0.456316   -3.976103   -2.519387
    102          1           0       -4.551200   -1.914789    1.698953
    103          1           0       -4.824017   -2.953740    0.443190
    104          1           0       -4.609408   -0.283195   -0.738940
    105          1           0       -8.159467   -2.418330   -0.174061
    106          1           0       -7.905929   -1.240288    1.197625
    107          1           0       -6.838431   -2.669706    0.924821
    108          1           0       -8.226313   -0.178912   -1.537197
    109          1           0       -6.485301    0.229414   -1.924229
    110          1           0       -6.529883    2.065735   -0.791083
    111          1           0       -6.991314    1.194478    0.733529
    112          1           0       -9.395837    1.588300   -0.804216
    113          1           0       -8.395405    3.022982   -1.091412
    114          1           0       -9.968068    3.157778    0.674576
    115          1           0       -8.278172    4.165897    2.507840
    116          1           0       -7.574477    4.582208    0.910418
    117          1           0       -7.025864    3.184664    1.777911
    118          1           0       -8.635212    1.738004    2.864538
    119          1           0       -9.191634    0.709340    1.597710
    120          1           0      -11.264228    2.771638    2.377026
    121          1           0      -10.669158    1.876513    3.812518
    122          1           0      -12.097838    0.235703    3.227511
    123          1           0      -11.388077   -0.119658    1.731218
    124          1           0      -12.637986    1.942216    0.799156
    125          1           0      -14.920221    1.597956    2.284214
    126          1           0      -13.912683    3.097394    2.180382
    127          1           0      -13.792840    1.827765    3.445776
    128          1           0      -14.522367   -0.330832    1.290887
    129          1           0      -13.105679   -0.872916    0.655036
    130          1           0      -13.924224    1.549329   -0.840379
    131          1           0      -15.180926    0.308233   -0.668768
    132          1           0      -14.238004   -0.280326   -2.602344
    133          1           0      -13.979525   -1.525326   -1.395359
    134          1           0      -11.639239    0.282922   -1.425895
    135          1           0      -11.140368   -0.517977   -3.985307
    136          1           0      -11.984951    0.949029   -3.757604
    137          1           0      -12.893777   -0.331176   -4.159817
    138          1           0      -10.570008   -1.992380   -2.355291
    139          1           0      -12.142802   -2.602425   -1.815224
    140          1           0      -11.045759   -1.795663   -0.664563
 ---------------------------------------------------------------------

 SCF Done:  E(RwB97XD) =  -3007.85092367     A.U. after   19 cycles

 Excitation energies and oscillator strengths:

 Excited State   1:      Singlet-A      1.5932 eV  778.22 nm  f=0.3811  <S**2>=0.000
     245 -> 248       -0.16317
     246 -> 247        0.68649
     245 <- 248       -0.11211
 This state for optimization and/or second-order correction.
 Total Energy, E(TD-HF/TD-DFT) =  -3007.79237546
 Copying the excited state density for this state as the 1-particle RhoCI density.

 Excited State   2:      Singlet-A      2.2529 eV  550.34 nm  f=0.0584  <S**2>=0.000
     245 -> 247        0.60030
     246 -> 248        0.35564

 Excited State   3:      Singlet-A      3.4277 eV  361.72 nm  f=0.5096  <S**2>=0.000
     242 -> 247       -0.19234
     242 -> 250       -0.11838
     243 -> 247       -0.19813
     243 -> 249       -0.10143
     245 -> 247       -0.29095
     246 -> 248        0.52300

 Excited State   4:      Singlet-A      3.4558 eV  358.77 nm  f=0.1554  <S**2>=0.000
     241 -> 247        0.26828
     241 -> 250        0.12717
     242 -> 247        0.18037
     242 -> 248       -0.17553
     242 -> 249        0.21051
     242 -> 250        0.23285
     243 -> 247        0.29935
     243 -> 249        0.10228
     243 -> 250        0.12084
     245 -> 247       -0.14931
     246 -> 248        0.26246

 Excited State   5:      Singlet-A      3.5296 eV  351.27 nm  f=0.0158  <S**2>=0.000
     241 -> 247       -0.17216
     241 -> 249        0.10193
     242 -> 247        0.47854
     243 -> 247       -0.43268

 The electronic state is 1-A.
 Alpha  occ. eigenvalues --  -46.93989 -19.31465 -19.30684 -19.25735 -19.25553
 Alpha  occ. eigenvalues --  -19.24806 -19.22825 -14.46734 -14.46650 -14.44298
 Alpha  occ. eigenvalues --  -14.43372 -10.44329 -10.43651 -10.40786 -10.38780
 Alpha  occ. eigenvalues --  -10.36376 -10.35923 -10.35603 -10.35022 -10.34888
 Alpha  occ. eigenvalues --  -10.34806 -10.33861 -10.33805 -10.33092 -10.32812
 Alpha  occ. eigenvalues --  -10.32735 -10.32642 -10.32118 -10.31951 -10.31906
 Alpha  occ. eigenvalues --  -10.31852 -10.31829 -10.31727 -10.31690 -10.31323
 Alpha  occ. eigenvalues --  -10.31262 -10.31168 -10.31088 -10.30879 -10.30657
 Alpha  occ. eigenvalues --  -10.30367 -10.30292 -10.30056 -10.30012 -10.29885
 Alpha  occ. eigenvalues --  -10.29879 -10.29872 -10.29869 -10.29782 -10.29522
 Alpha  occ. eigenvalues --  -10.29453 -10.29409 -10.29375 -10.29340 -10.29161
 Alpha  occ. eigenvalues --  -10.29138 -10.29007 -10.28963 -10.28963 -10.28823
 Alpha  occ. eigenvalues --  -10.28679 -10.28406 -10.28379 -10.28318 -10.28233
 Alpha  occ. eigenvalues --  -10.27930  -3.20169  -1.93764  -1.93294  -1.93174
 Alpha  occ. eigenvalues --   -1.20148  -1.17538  -1.12868  -1.10479  -1.10291
 Alpha  occ. eigenvalues --   -1.08055  -1.06863  -1.05719  -1.05542  -1.04337
 Alpha  occ. eigenvalues --   -0.94743  -0.92655  -0.91939  -0.91432  -0.90529
 Alpha  occ. eigenvalues --   -0.90313  -0.89877  -0.89433  -0.89397  -0.89163
 Alpha  occ. eigenvalues --   -0.88278  -0.87525  -0.86239  -0.85934  -0.85128
 Alpha  occ. eigenvalues --   -0.84625  -0.84019  -0.83355  -0.82967  -0.82446
 Alpha  occ. eigenvalues --   -0.81507  -0.80110  -0.79713  -0.79190  -0.78379
 Alpha  occ. eigenvalues --   -0.78087  -0.77928  -0.76934  -0.76604  -0.75972
 Alpha  occ. eigenvalues --   -0.75695  -0.74709  -0.73211  -0.72335  -0.71420
 Alpha  occ. eigenvalues --   -0.70852  -0.70390  -0.69493  -0.69086  -0.67567
 Alpha  occ. eigenvalues --   -0.67405  -0.66898  -0.66555  -0.66200  -0.66022
 Alpha  occ. eigenvalues --   -0.65844  -0.64871  -0.64058  -0.63156  -0.62195
 Alpha  occ. eigenvalues --   -0.61919  -0.61663  -0.61272  -0.60698  -0.60097
 Alpha  occ. eigenvalues --   -0.59669  -0.59538  -0.58025  -0.57652  -0.57527
 Alpha  occ. eigenvalues --   -0.57342  -0.56852  -0.56695  -0.56416  -0.56314
 Alpha  occ. eigenvalues --   -0.56025  -0.55444  -0.55255  -0.54712  -0.54649
 Alpha  occ. eigenvalues --   -0.54566  -0.54470  -0.54298  -0.54070  -0.53972
 Alpha  occ. eigenvalues --   -0.53690  -0.53472  -0.53277  -0.52938  -0.52681
 Alpha  occ. eigenvalues --   -0.52277  -0.51946  -0.51730  -0.51699  -0.51610
 Alpha  occ. eigenvalues --   -0.51553  -0.51477  -0.51137  -0.51129  -0.50739
 Alpha  occ. eigenvalues --   -0.50655  -0.50436  -0.50261  -0.49842  -0.49756
 Alpha  occ. eigenvalues --   -0.49365  -0.49302  -0.48920  -0.48795  -0.48570
 Alpha  occ. eigenvalues --   -0.48227  -0.47810  -0.47783  -0.47588  -0.47317
 Alpha  occ. eigenvalues --   -0.47279  -0.47120  -0.46920  -0.46733  -0.46591
 Alpha  occ. eigenvalues --   -0.46445  -0.46213  -0.46109  -0.45953  -0.45858
 Alpha  occ. eigenvalues --   -0.45655  -0.45616  -0.45419  -0.45377  -0.45008
 Alpha  occ. eigenvalues --   -0.44908  -0.44822  -0.44645  -0.44305  -0.43967
 Alpha  occ. eigenvalues --   -0.43873  -0.43753  -0.43659  -0.43388  -0.42984
 Alpha  occ. eigenvalues --   -0.42858  -0.42763  -0.42726  -0.42524  -0.41936
 Alpha  occ. eigenvalues --   -0.41772  -0.41650  -0.41448  -0.40966  -0.40803
 Alpha  occ. eigenvalues --   -0.40284  -0.40101  -0.40035  -0.39741  -0.39597
 Alpha  occ. eigenvalues --   -0.39267  -0.39014  -0.38964  -0.38400  -0.38322
 Alpha  occ. eigenvalues --   -0.37657  -0.37172  -0.36941  -0.36729  -0.36690
 Alpha  occ. eigenvalues --   -0.36188  -0.36063  -0.35348  -0.34049  -0.33390
 Alpha  occ. eigenvalues --   -0.32431  -0.32233  -0.31840  -0.31606  -0.26421
 Alpha  occ. eigenvalues --   -0.22183
 Alpha virt. eigenvalues --   -0.06704   0.00226   0.01984   0.03769   0.05975
 Alpha virt. eigenvalues --    0.06588   0.07272   0.07893   0.08156   0.09442
 Alpha virt. eigenvalues --    0.10000   0.10163   0.10914   0.11720   0.12004

 Mulliken charges:
               1
     1  Mg   0.992079
     2  C   -0.046993
     3  C   -0.101289
     4  C   -0.028372
     5  C   -0.135572
     6  N   -0.394469
     7  C   -0.000903
     8  C   -0.023165
     9  C   -0.115174
    10  C    0.097897
    11  C    0.030793
    12  C    0.036675
    13  C   -0.052892
    14  C    0.206079
    15  O   -0.256009
    16  O   -0.325526
    17  N   -0.495955
    18  C    0.155354
    19  C   -0.179770
    20  C   -0.054899
    21  C    0.164982
    22  C    0.056302
    23  C    0.049880
    24  O   -0.297271
    25  C    0.020988
    26  N   -0.331210
    27  C    0.028019
    28  C   -0.122587
    29  C   -0.030649
    30  C   -0.051117
    31  C    0.008054
    32  C   -0.003725
    33  C   -0.050344
    34  N   -0.389594
    35  C    0.252394
    36  C   -0.220147
    37  C   -0.046940
    38  C    0.163031
    39  C    0.073868
    40  C    0.175468
    41  O   -0.195317
    42  C   -0.096517
    43  C    0.301121
    44  O   -0.235141
    45  O   -0.396310
    46  C    0.131790
    47  C    0.237777
    48  C   -0.118207
    49  C   -0.239096
    50  C    0.024117
    51  C    0.056114
    52  C   -0.052621
    53  C   -0.020003
    54  C   -0.173138
    55  C   -0.002834
    56  C   -0.018760
    57  C   -0.000415
    58  C    0.007988
    59  C   -0.213923
    60  C    0.028279
    61  C    0.012925
    62  C   -0.017448
    63  C   -0.007228
    64  C   -0.193789
    65  C   -0.011686
    66  C   -0.005509
    67  H   -0.008812
    68  H    0.022218
    69  H    0.000040
    70  H    0.037633
    71  H    0.039533
    72  H    0.025983
    73  H    0.045257
    74  H    0.039881
    75  H    0.049644
    76  H    0.038626
    77  H    0.070679
    78  H    0.046200
    79  H    0.031692
    80  H    0.052530
    81  H    0.067359
    82  H    0.065025
    83  H    0.058270
    84  H    0.020249
    85  H    0.038727
    86  H    0.021523
    87  H    0.031556
    88  H    0.045879
    89  H    0.056948
    90  H    0.036787
    91  H    0.026568
    92  H    0.033874
    93  H    0.049204
    94  H    0.042560
    95  H    0.044026
    96  H    0.046867
    97  H    0.041376
    98  H    0.062398
    99  H    0.063089
   100  H    0.060624
   101  H    0.054082
   102  H    0.064349
   103  H    0.045361
   104  H    0.013745
   105  H    0.044676
   106  H    0.062428
   107  H    0.012449
   108  H    0.033428
   109  H    0.026437
   110  H    0.029662
   111  H    0.048000
   112  H    0.023119
   113  H    0.022921
   114  H    0.011215
   115  H    0.038020
   116  H    0.031688
   117  H    0.028728
   118  H    0.013562
   119  H    0.008330
   120  H    0.025055
   121  H    0.029717
   122  H    0.009134
   123  H    0.003892
   124  H    0.009595
   125  H    0.012586
   126  H    0.041603
   127  H    0.014303
   128  H    0.008418
   129  H   -0.003285
   130  H    0.028522
   131  H    0.012711
   132  H    0.019006
   133  H    0.019184
   134  H    0.038236
   135  H    0.015960
   136  H    0.019617
   137  H    0.027599
   138  H    0.026992
   139  H    0.026902
   140  H    0.038579
 Sum of Mulliken charges =  -0.00000

 Dipole moment (field-independent basis, Debye):
    X=             -4.2874    Y=              1.8313    Z=              0.2191  Tot=              4.6673
 Quadrupole moment (field-independent basis, Debye-Ang):
   XX=           -372.8487   YY=           -412.5361   ZZ=           -408.3814
   XY=             -7.5957   XZ=             24.8314   YZ=              0.8685

 Normal termination of Gaussian 16 at Thu May  5 07:01:49 2022.
