 Gaussian 16, Revision A.03,
 Gaussian 16:  ES64L-G16RevA.03 25-Dec-2016

 --------------------
 #p ZINDO=(nstates=5)
 --------------------

 -----------------------------
 step_651_chromophore_13 ZINDO
 -----------------------------
 Symbolic Z-matrix:
 Charge =  0 Multiplicity = 1

                         Standard orientation:
 ---------------------------------------------------------------------
 Center     Atomic      Atomic             Coordinates (Angstroms)
 Number     Number       Type             X           Y           Z
 ---------------------------------------------------------------------
      1         12           0        5.775562    0.466567   -0.002659
      2          6           0        3.655581   -2.261492   -0.000879
      3          6           0        3.261453    2.534562   -0.674814
      4          6           0        8.163381    2.791562   -0.262986
      5          6           0        8.378400   -1.942592    0.719594
      6          7           0        3.742043    0.138478   -0.467294
      7          6           0        2.999389   -1.057873   -0.256111
      8          6           0        1.493739   -0.814295   -0.435628
      9          6           0        1.441014    0.679266   -0.782452
     10          6           0        2.909013    1.147286   -0.650229
     11          6           0        0.754699    0.971801   -2.124301
     12          6           0        0.577002   -1.313085    0.768607
     13          6           0       -0.593293   -2.268203    0.470708
     14          6           0       -1.997544   -1.931574    1.121144
     15          8           0       -2.208779   -1.391350    2.192645
     16          8           0       -2.949736   -2.171619    0.213712
     17          7           0        5.690526    2.391408   -0.470562
     18          6           0        4.576508    3.119772   -0.691421
     19          6           0        4.857732    4.545067   -0.685237
     20          6           0        6.267679    4.613918   -0.756603
     21          6           0        6.799837    3.234510   -0.456330
     22          6           0        3.875544    5.627601   -0.455349
     23          6           0        7.141018    5.852383   -0.838510
     24          8           0        8.425795    5.761450   -0.818667
     25          6           0        6.566362    7.204953   -1.025953
     26          7           0        7.873432    0.452256    0.272845
     27          6           0        8.652538    1.566027    0.046178
     28          6           0       10.187259    1.270079    0.163211
     29          6           0       10.173496   -0.097340    0.928078
     30          6           0        8.723696   -0.537005    0.564917
     31          6           0       10.750330    1.183070   -1.324537
     32          6           0       10.522527   -0.013204    2.432793
     33          6           0        9.487181   -0.357059    3.533833
     34          7           0        6.056733   -1.652520    0.253839
     35          6           0        7.151018   -2.435916    0.612981
     36          6           0        6.692706   -3.784399    0.703256
     37          6           0        5.329941   -3.835294    0.478150
     38          6           0        5.040447   -2.497540    0.213212
     39          6           0        7.562584   -4.964002    0.963263
     40          6           0        4.060855   -4.674920    0.396943
     41          8           0        3.928374   -5.895195    0.401692
     42          6           0        2.980949   -3.647398   -0.024053
     43          6           0        2.452704   -3.974491   -1.388830
     44          8           0        3.012347   -3.654760   -2.434972
     45          8           0        1.141640   -4.479301   -1.270190
     46          6           0        0.317815   -4.740745   -2.451414
     47          6           0       -4.335434   -1.998103    0.633746
     48          6           0       -5.175264   -0.994798   -0.137717
     49          6           0       -6.496675   -1.028156   -0.372172
     50          6           0       -7.442402   -1.892155    0.455988
     51          6           0       -7.235154    0.058116   -1.151966
     52          6           0       -7.224591    1.373733   -0.316137
     53          6           0       -8.546590    2.164164   -0.437333
     54          6           0       -8.976526    2.786365    0.935637
     55          6           0       -7.915260    3.773693    1.557836
     56          6           0       -9.372160    1.677912    2.063487
     57          6           0      -10.777553    1.861809    2.727548
     58          6           0      -11.779329    0.720939    2.304768
     59          6           0      -12.987586    1.209860    1.526999
     60          6           0      -13.922351    2.026588    2.381159
     61          6           0      -13.682833    0.049784    0.708707
     62          6           0      -14.105580    0.485442   -0.685430
     63          6           0      -13.650759   -0.538512   -1.720660
     64          6           0      -12.106539   -0.484175   -2.043042
     65          6           0      -12.039273   -0.113368   -3.519515
     66          6           0      -11.413014   -1.802803   -1.690275
     67          1           0        2.468516    3.272551   -0.807393
     68          1           0        9.030098    3.441442   -0.401200
     69          1           0        9.308769   -2.498876    0.859301
     70          1           0        1.182817   -1.404371   -1.298449
     71          1           0        0.897807    1.266970   -0.042865
     72          1           0        0.460852    0.038380   -2.605079
     73          1           0        1.466782    1.433847   -2.806853
     74          1           0       -0.160294    1.554765   -2.015692
     75          1           0        0.173785   -0.408260    1.221783
     76          1           0        1.142785   -1.967177    1.431222
     77          1           0       -0.298997   -3.238815    0.869862
     78          1           0       -0.703839   -2.338295   -0.611185
     79          1           0        2.879315    5.240426   -0.243852
     80          1           0        3.812279    6.203684   -1.379407
     81          1           0        4.110998    6.245395    0.410713
     82          1           0        5.908789    7.389731   -1.874542
     83          1           0        7.319354    7.969526   -0.835131
     84          1           0        5.862801    7.280959   -0.197318
     85          1           0       10.809168    1.980854    0.708471
     86          1           0       10.788726   -0.837489    0.416732
     87          1           0       11.387929    0.315430   -1.500228
     88          1           0       11.421085    2.009967   -1.555946
     89          1           0        9.903675    1.169288   -2.010463
     90          1           0       11.032716    0.912221    2.701390
     91          1           0       11.254270   -0.814767    2.534203
     92          1           0        9.682750   -1.393660    3.810326
     93          1           0        8.491690   -0.279816    3.096518
     94          1           0        9.473579    0.257298    4.434073
     95          1           0        7.567966   -5.197586    2.028775
     96          1           0        8.564310   -4.966194    0.533391
     97          1           0        7.073385   -5.880149    0.633248
     98          1           0        2.175408   -3.805345    0.691874
     99          1           0       -0.108287   -5.742015   -2.386509
    100          1           0        0.896787   -4.722221   -3.374321
    101          1           0       -0.456316   -3.976103   -2.519387
    102          1           0       -4.551200   -1.914789    1.698953
    103          1           0       -4.824017   -2.953740    0.443190
    104          1           0       -4.609408   -0.283195   -0.738940
    105          1           0       -8.159467   -2.418330   -0.174061
    106          1           0       -7.905929   -1.240288    1.197625
    107          1           0       -6.838431   -2.669706    0.924821
    108          1           0       -8.226313   -0.178912   -1.537197
    109          1           0       -6.485301    0.229414   -1.924229
    110          1           0       -6.529883    2.065735   -0.791083
    111          1           0       -6.991314    1.194478    0.733529
    112          1           0       -9.395837    1.588300   -0.804216
    113          1           0       -8.395405    3.022982   -1.091412
    114          1           0       -9.968068    3.157778    0.674576
    115          1           0       -8.278172    4.165897    2.507840
    116          1           0       -7.574477    4.582208    0.910418
    117          1           0       -7.025864    3.184664    1.777911
    118          1           0       -8.635212    1.738004    2.864538
    119          1           0       -9.191634    0.709340    1.597710
    120          1           0      -11.264228    2.771638    2.377026
    121          1           0      -10.669158    1.876513    3.812518
    122          1           0      -12.097838    0.235703    3.227511
    123          1           0      -11.388077   -0.119658    1.731218
    124          1           0      -12.637986    1.942216    0.799156
    125          1           0      -14.920221    1.597956    2.284214
    126          1           0      -13.912683    3.097394    2.180382
    127          1           0      -13.792840    1.827765    3.445776
    128          1           0      -14.522367   -0.330832    1.290887
    129          1           0      -13.105679   -0.872916    0.655036
    130          1           0      -13.924224    1.549329   -0.840379
    131          1           0      -15.180926    0.308233   -0.668768
    132          1           0      -14.238004   -0.280326   -2.602344
    133          1           0      -13.979525   -1.525326   -1.395359
    134          1           0      -11.639239    0.282922   -1.425895
    135          1           0      -11.140368   -0.517977   -3.985307
    136          1           0      -11.984951    0.949029   -3.757604
    137          1           0      -12.893777   -0.331176   -4.159817
    138          1           0      -10.570008   -1.992380   -2.355291
    139          1           0      -12.142802   -2.602425   -1.815224
    140          1           0      -11.045759   -1.795663   -0.664563
 ---------------------------------------------------------------------

 SCF Done:  E(RZINDO/S) =  -474.211790238     A.U. after   20 cycles

 Excitation energies and oscillator strengths:

 Excited State   1:      Singlet-A      1.2164 eV 1019.30 nm  f=0.6071  <S**2>=0.000
     175 ->178        -0.17484
     176 ->177         0.66454
 This state for optimization and/or second-order correction.
 Total Energy, E(CIS/TDA) =  -474.167089613
 Copying the excited state density for this state as the 1-particle RhoCI density.

 Excited State   2:      Singlet-A      1.9456 eV  637.25 nm  f=0.0067  <S**2>=0.000
     175 ->177         0.47773
     176 ->178         0.48992

 Excited State   3:      Singlet-A      2.7932 eV  443.88 nm  f=0.0300  <S**2>=0.000
     176 ->178         0.12535
     176 ->179         0.62802
     176 ->180         0.22443

 Excited State   4:      Singlet-A      2.9286 eV  423.35 nm  f=0.2224  <S**2>=0.000
     169 ->177         0.11775
     169 ->179         0.12155
     169 ->180         0.20368
     169 ->187         0.10327
     170 ->177         0.16468
     170 ->179         0.21053
     170 ->180         0.29057
     170 ->185        -0.10632
     170 ->187         0.15538
     175 ->177         0.23876
     176 ->178        -0.25979
     176 ->180         0.16229

 Excited State   5:      Singlet-A      2.9585 eV  419.08 nm  f=0.5846  <S**2>=0.000
     169 ->179         0.12448
     169 ->180         0.16684
     170 ->177         0.12629
     170 ->179         0.12407
     170 ->180         0.19325
     175 ->177        -0.35266
     176 ->178         0.35819
     176 ->180        -0.23163

 The electronic state is 1-A.
 Alpha  occ. eigenvalues --   -1.86055  -1.80812  -1.80325  -1.73951  -1.70892
 Alpha  occ. eigenvalues --   -1.70375  -1.65953  -1.61453  -1.58215  -1.55758
 Alpha  occ. eigenvalues --   -1.54340  -1.51117  -1.49526  -1.48375  -1.45904
 Alpha  occ. eigenvalues --   -1.44230  -1.44035  -1.39912  -1.39177  -1.38659
 Alpha  occ. eigenvalues --   -1.35846  -1.34653  -1.33143  -1.31456  -1.29465
 Alpha  occ. eigenvalues --   -1.26638  -1.25125  -1.21645  -1.20327  -1.18082
 Alpha  occ. eigenvalues --   -1.17800  -1.17553  -1.15640  -1.14673  -1.13396
 Alpha  occ. eigenvalues --   -1.12244  -1.10004  -1.09464  -1.05459  -1.04302
 Alpha  occ. eigenvalues --   -1.03566  -1.01307  -1.00062  -0.98236  -0.97994
 Alpha  occ. eigenvalues --   -0.97890  -0.95568  -0.93726  -0.93257  -0.92009
 Alpha  occ. eigenvalues --   -0.91280  -0.89847  -0.87912  -0.87730  -0.85202
 Alpha  occ. eigenvalues --   -0.84484  -0.83561  -0.83320  -0.81060  -0.80107
 Alpha  occ. eigenvalues --   -0.79797  -0.79425  -0.77549  -0.77194  -0.76217
 Alpha  occ. eigenvalues --   -0.75917  -0.74873  -0.74471  -0.74205  -0.74187
 Alpha  occ. eigenvalues --   -0.73644  -0.73235  -0.72765  -0.72260  -0.70813
 Alpha  occ. eigenvalues --   -0.70522  -0.69589  -0.68972  -0.68665  -0.68411
 Alpha  occ. eigenvalues --   -0.67923  -0.66685  -0.66310  -0.66081  -0.65828
 Alpha  occ. eigenvalues --   -0.65671  -0.64427  -0.64201  -0.63997  -0.63554
 Alpha  occ. eigenvalues --   -0.63239  -0.62935  -0.62685  -0.62272  -0.61949
 Alpha  occ. eigenvalues --   -0.61820  -0.61109  -0.60805  -0.60351  -0.60133
 Alpha  occ. eigenvalues --   -0.59370  -0.59338  -0.58291  -0.58203  -0.58080
 Alpha  occ. eigenvalues --   -0.57625  -0.57228  -0.56965  -0.56599  -0.56583
 Alpha  occ. eigenvalues --   -0.56013  -0.55786  -0.55439  -0.54752  -0.54388
 Alpha  occ. eigenvalues --   -0.54084  -0.53973  -0.53135  -0.53035  -0.52936
 Alpha  occ. eigenvalues --   -0.52863  -0.52238  -0.51872  -0.51624  -0.51162
 Alpha  occ. eigenvalues --   -0.51063  -0.50863  -0.50620  -0.50432  -0.50198
 Alpha  occ. eigenvalues --   -0.49936  -0.49691  -0.49433  -0.49284  -0.49094
 Alpha  occ. eigenvalues --   -0.48921  -0.48703  -0.48606  -0.48492  -0.48361
 Alpha  occ. eigenvalues --   -0.47931  -0.47753  -0.47591  -0.47046  -0.46773
 Alpha  occ. eigenvalues --   -0.46634  -0.46377  -0.45967  -0.45845  -0.45603
 Alpha  occ. eigenvalues --   -0.45213  -0.44892  -0.44075  -0.43600  -0.43377
 Alpha  occ. eigenvalues --   -0.42783  -0.42733  -0.42431  -0.42310  -0.42257
 Alpha  occ. eigenvalues --   -0.41993  -0.41738  -0.41620  -0.39427  -0.39310
 Alpha  occ. eigenvalues --   -0.38911  -0.37451  -0.36525  -0.34840  -0.34505
 Alpha  occ. eigenvalues --   -0.33775  -0.32374  -0.31995  -0.31976  -0.27010
 Alpha  occ. eigenvalues --   -0.21030
 Alpha virt. eigenvalues --   -0.08066  -0.02071  -0.01037   0.00836   0.01587
 Alpha virt. eigenvalues --    0.01677   0.02811   0.03394   0.04265   0.04452
 Alpha virt. eigenvalues --    0.06198   0.06909   0.07538   0.07721   0.08056

 Mulliken charges:
               1
     1  Mg   0.429798
     2  C   -0.062282
     3  C   -0.109805
     4  C   -0.044330
     5  C   -0.053012
     6  N   -0.282743
     7  C    0.121789
     8  C    0.006650
     9  C    0.008745
    10  C    0.136211
    11  C   -0.049633
    12  C   -0.032346
    13  C   -0.000070
    14  C    0.466541
    15  O   -0.518278
    16  O   -0.252906
    17  N   -0.301734
    18  C    0.101658
    19  C    0.001714
    20  C   -0.052756
    21  C    0.104946
    22  C   -0.033800
    23  C    0.322141
    24  O   -0.563912
    25  C   -0.029307
    26  N   -0.252721
    27  C    0.107911
    28  C   -0.001964
    29  C    0.003061
    30  C    0.139625
    31  C   -0.055304
    32  C   -0.024597
    33  C   -0.055869
    34  N   -0.340742
    35  C    0.112616
    36  C    0.059954
    37  C   -0.057776
    38  C    0.153090
    39  C   -0.048454
    40  C    0.339168
    41  O   -0.498507
    42  C    0.057405
    43  C    0.491211
    44  O   -0.509600
    45  O   -0.286261
    46  C    0.076962
    47  C    0.104897
    48  C   -0.082474
    49  C   -0.010068
    50  C   -0.050432
    51  C   -0.030464
    52  C   -0.032752
    53  C   -0.039363
    54  C   -0.028134
    55  C   -0.051633
    56  C   -0.046701
    57  C   -0.034639
    58  C   -0.036769
    59  C   -0.008530
    60  C   -0.057099
    61  C   -0.039656
    62  C   -0.037905
    63  C   -0.032169
    64  C   -0.003415
    65  C   -0.057626
    66  C   -0.054230
    67  H    0.021875
    68  H    0.047660
    69  H    0.031368
    70  H    0.036849
    71  H    0.027367
    72  H    0.016977
    73  H    0.026627
    74  H    0.022676
    75  H    0.037964
    76  H    0.028835
    77  H    0.043495
    78  H    0.036868
    79  H    0.019015
    80  H    0.029850
    81  H    0.033988
    82  H    0.046432
    83  H    0.041827
    84  H    0.025613
    85  H    0.036874
    86  H    0.028253
    87  H    0.015760
    88  H    0.023371
    89  H    0.031402
    90  H    0.027319
    91  H    0.009672
    92  H    0.017955
    93  H    0.022592
    94  H    0.026076
    95  H    0.032641
    96  H    0.031238
    97  H    0.026189
    98  H    0.051647
    99  H    0.040436
   100  H    0.047906
   101  H    0.036127
   102  H    0.061919
   103  H    0.028442
   104  H    0.025444
   105  H    0.025959
   106  H    0.037979
   107  H    0.016247
   108  H    0.037903
   109  H    0.019517
   110  H    0.021546
   111  H    0.035045
   112  H    0.020377
   113  H    0.014299
   114  H    0.018308
   115  H    0.019868
   116  H    0.019620
   117  H    0.019879
   118  H    0.012799
   119  H    0.021681
   120  H    0.026349
   121  H    0.024039
   122  H    0.010284
   123  H    0.016421
   124  H    0.013674
   125  H    0.011969
   126  H    0.025353
   127  H    0.014367
   128  H    0.012590
   129  H    0.016734
   130  H    0.034489
   131  H    0.005097
   132  H    0.011722
   133  H    0.023849
   134  H    0.025004
   135  H    0.008038
   136  H    0.010612
   137  H    0.022861
   138  H    0.016536
   139  H    0.020397
   140  H    0.018714
 Sum of Mulliken charges =  -0.00000

 Dipole moment (field-independent basis, Debye):
    X=             -5.1472    Y=              0.3236    Z=              1.3570  Tot=              5.3329
 N-N= 4.324013603402D+03 E-N= 0.000000000000D+00  KE=-9.322056143189D+03
 Leave Link  601 at Thu May  5 07:33:26 2022, MaxMem=  6710886400 cpu:               0.7 elap:               0.0
 (Enter /sw/apps/gaussian-16.0/g16/l9999.exe)
 1\1\GINC-BP1-COMPUTE141\SP\RZINDO CIS\STO-3G\C55H74Mg1N4O6\OF15641\05-
 May-2022\0\\#p ZINDO=(nstates=5)\\step_651_chromophore_13 ZINDO\\0,1\M
 g,0,46.358,24.784,28.801\C,0,46.924,27.188,31.217\C,0,45.387,22.58,31.
 092\C,0,46.258,22.633,26.244\C,0,47.453,27.318,26.46\N,0,46.344,24.831
 ,30.912\C,0,46.461,25.982,31.742\C,0,46.104,25.653,33.199\C,0,45.763,2
 4.159,33.125\C,0,45.852,23.828,31.617\C,0,46.615,23.29,34.061\C,0,45.0
 21,26.613,33.866\C,0,45.361,27.314,35.194\C,0,44.274,27.27,36.345\O,0,

 Normal termination of Gaussian 16 at Thu May  5 07:33:27 2022.
