 Gaussian 16, Revision A.03,
 Gaussian 16:  ES64L-G16RevA.03 25-Dec-2016

 ------------------------------
 #p blyp/Def2SVP td=(nstates=5)
 ------------------------------

 --------------------------------------------------
 step_501_chromophore_18 TDDFT with blyp functional
 --------------------------------------------------
 Symbolic Z-matrix:
 Charge =  0 Multiplicity = 1

                         Standard orientation:
 ---------------------------------------------------------------------
 Center     Atomic      Atomic             Coordinates (Angstroms)
 Number     Number       Type             X           Y           Z
 ---------------------------------------------------------------------
      1         12           0        5.606918    1.157726    0.205402
      2          6           0        4.679162   -2.270051    0.267273
      3          6           0        2.147044    1.836182   -0.079178
      4          6           0        6.327595    4.310235   -0.226630
      5          6           0        8.949802    0.197686    0.199005
      6          7           0        3.596633   -0.103185    0.094016
      7          6           0        3.546377   -1.466997    0.247588
      8          6           0        2.129210   -2.006296    0.343089
      9          6           0        1.335817   -0.652213    0.095641
     10          6           0        2.409059    0.446973    0.070778
     11          6           0        0.420604   -0.768913   -1.119670
     12          6           0        1.871928   -2.625602    1.734416
     13          6           0        0.948152   -3.898907    1.833678
     14          6           0       -0.021578   -4.188479    0.663813
     15          8           0        0.113041   -5.074039   -0.208049
     16          8           0       -1.021268   -3.248894    0.591148
     17          7           0        4.405881    2.867671   -0.034137
     18          6           0        3.022043    2.913242   -0.205668
     19          6           0        2.628184    4.322357   -0.362464
     20          6           0        3.851073    5.067359   -0.305774
     21          6           0        4.910278    4.053901   -0.138422
     22          6           0        1.277840    4.740840   -0.607271
     23          6           0        4.050164    6.575758   -0.414629
     24          8           0        5.188245    7.070306   -0.445336
     25          6           0        2.900684    7.499294   -0.309293
     26          7           0        7.391417    2.110078   -0.091107
     27          6           0        7.433605    3.443981   -0.144192
     28          6           0        8.899862    3.952948   -0.331062
     29          6           0        9.718320    2.665014    0.001033
     30          6           0        8.682053    1.585565    0.026459
     31          6           0        9.183106    4.611312   -1.729199
     32          6           0       10.318494    2.916868    1.436851
     33          6           0        9.557366    2.414576    2.711901
     34          7           0        6.648122   -0.620962    0.330600
     35          6           0        8.036530   -0.844733    0.299704
     36          6           0        8.271200   -2.310001    0.316820
     37          6           0        6.998422   -2.864166    0.246410
     38          6           0        6.037180   -1.876481    0.287531
     39          6           0        9.603669   -2.842350    0.089760
     40          6           0        6.329765   -4.148846    0.055261
     41          8           0        6.844614   -5.251855   -0.089662
     42          6           0        4.762996   -3.822422    0.032819
     43          6           0        4.137554   -4.279027   -1.232117
     44          8           0        3.956838   -3.598969   -2.238091
     45          8           0        3.758718   -5.627862   -1.094965
     46          6           0        3.173186   -6.363954   -2.192527
     47          6           0       -2.026148   -3.545701   -0.425152
     48          6           0       -3.379967   -2.863231   -0.204085
     49          6           0       -4.640283   -3.084772   -0.790150
     50          6           0       -4.858468   -4.223930   -1.713386
     51          6           0       -5.845815   -2.173488   -0.746312
     52          6           0       -6.612805   -2.345835    0.572936
     53          6           0       -7.128095   -0.941193    1.091109
     54          6           0       -8.525190   -1.022707    1.690644
     55          6           0       -8.475407   -1.325107    3.184471
     56          6           0       -9.494907    0.151480    1.345787
     57          6           0      -10.142364    0.062860    0.008807
     58          6           0      -11.575383   -0.550351    0.210557
     59          6           0      -12.739774    0.488491    0.070310
     60          6           0      -13.350607    0.584821    1.495044
     61          6           0      -13.864491    0.070960   -0.936084
     62          6           0      -14.550692    1.294548   -1.657524
     63          6           0      -15.913828    1.811183   -1.078786
     64          6           0      -15.781828    3.167598   -0.272853
     65          6           0      -16.996250    3.437615    0.587305
     66          6           0      -15.479443    4.415460   -1.191876
     67          1           0        1.111702    2.147601    0.076810
     68          1           0        6.638431    5.350325   -0.348297
     69          1           0       10.027193    0.025591    0.237497
     70          1           0        1.909419   -2.748577   -0.424688
     71          1           0        0.633018   -0.565027    0.923787
     72          1           0       -0.627669   -0.541465   -0.929248
     73          1           0        0.430031   -1.727638   -1.638242
     74          1           0        0.729655    0.014980   -1.812396
     75          1           0        1.461684   -1.883344    2.419040
     76          1           0        2.895217   -2.839440    2.044997
     77          1           0        0.265703   -3.805817    2.677824
     78          1           0        1.607113   -4.699072    2.170700
     79          1           0        1.054737    5.500522    0.142148
     80          1           0        0.621688    3.881767   -0.743760
     81          1           0        1.380181    5.127308   -1.621799
     82          1           0        2.258241    7.497613   -1.190359
     83          1           0        3.266765    8.521343   -0.213693
     84          1           0        2.255089    7.131097    0.487518
     85          1           0        8.891742    4.722943    0.440429
     86          1           0       10.548149    2.521006   -0.691339
     87          1           0        9.095106    5.695336   -1.655551
     88          1           0        8.513557    4.130366   -2.441557
     89          1           0       10.208188    4.340931   -1.982030
     90          1           0       10.672912    3.945779    1.501940
     91          1           0       11.144147    2.205971    1.480544
     92          1           0        9.637946    3.257408    3.397759
     93          1           0       10.032358    1.551693    3.180494
     94          1           0        8.495330    2.206355    2.586789
     95          1           0       10.029516   -2.347902   -0.782393
     96          1           0        9.476350   -3.898969   -0.147887
     97          1           0       10.183873   -2.851711    1.012062
     98          1           0        4.374169   -4.416473    0.860454
     99          1           0        3.897107   -6.956910   -2.750961
    100          1           0        2.470219   -5.748447   -2.754059
    101          1           0        2.472377   -7.001980   -1.653354
    102          1           0       -2.227829   -4.615903   -0.462832
    103          1           0       -1.522307   -3.207731   -1.330324
    104          1           0       -3.421600   -1.940817    0.375661
    105          1           0       -5.500773   -4.968895   -1.242786
    106          1           0       -3.887344   -4.682735   -1.902556
    107          1           0       -5.257961   -3.884124   -2.668665
    108          1           0       -6.529447   -2.244564   -1.592695
    109          1           0       -5.391940   -1.191932   -0.879808
    110          1           0       -5.982374   -2.826270    1.321319
    111          1           0       -7.376994   -3.106346    0.414239
    112          1           0       -7.100142   -0.268443    0.233613
    113          1           0       -6.508767   -0.528708    1.887042
    114          1           0       -8.963877   -1.957014    1.339391
    115          1           0       -8.854276   -2.341313    3.295793
    116          1           0       -8.973271   -0.624744    3.856000
    117          1           0       -7.455652   -1.511846    3.519672
    118          1           0       -8.986846    1.115868    1.370768
    119          1           0      -10.240584    0.250754    2.134570
    120          1           0       -9.509362   -0.645059   -0.527127
    121          1           0      -10.332471    1.018855   -0.476491
    122          1           0      -11.601949   -1.060115    1.174516
    123          1           0      -11.847911   -1.311526   -0.520235
    124          1           0      -12.414887    1.510153   -0.129177
    125          1           0      -14.264352    1.175369    1.443307
    126          1           0      -12.784068    1.232054    2.164744
    127          1           0      -13.461722   -0.343682    2.055130
    128          1           0      -14.658892   -0.365455   -0.330146
    129          1           0      -13.542201   -0.685616   -1.651368
    130          1           0      -14.790995    1.081792   -2.699178
    131          1           0      -13.807020    2.082310   -1.531036
    132          1           0      -16.340874    0.997728   -0.491948
    133          1           0      -16.664856    2.035343   -1.836085
    134          1           0      -14.957874    2.970636    0.413031
    135          1           0      -17.266542    2.703302    1.346375
    136          1           0      -17.747803    3.623463   -0.179688
    137          1           0      -16.792725    4.385758    1.084367
    138          1           0      -14.412852    4.596482   -1.323455
    139          1           0      -15.944579    5.332727   -0.829204
    140          1           0      -15.904224    4.239529   -2.179671
 ---------------------------------------------------------------------

 SCF Done:  E(RB-LYP) =  -3007.37261105     A.U. after   20 cycles

 Excitation energies and oscillator strengths:

 Excited State   1:      Singlet-A      1.8223 eV  680.35 nm  f=0.2901  <S**2>=0.000
     245 -> 248        0.20195
     246 -> 247        0.68543
     246 <- 247       -0.14211
 This state for optimization and/or second-order correction.
 Total Energy, E(TD-HF/TD-DFT) =  -3007.30564097
 Copying the excited state density for this state as the 1-particle RhoCI density.

 Excited State   2:      Singlet-A      2.0277 eV  611.45 nm  f=0.0538  <S**2>=0.000
     244 -> 247        0.22543
     245 -> 247        0.61072
     246 -> 248       -0.24629

 Excited State   3:      Singlet-A      2.0541 eV  603.61 nm  f=0.0070  <S**2>=0.000
     244 -> 247        0.66868
     245 -> 247       -0.20118
     246 -> 248        0.10019

 Excited State   4:      Singlet-A      2.1549 eV  575.35 nm  f=0.0002  <S**2>=0.000
     243 -> 247        0.70537

 Excited State   5:      Singlet-A      2.3616 eV  524.99 nm  f=0.0002  <S**2>=0.000
     242 -> 247        0.70707

 The electronic state is 1-A.
 Alpha  occ. eigenvalues --  -46.26966 -18.83166 -18.80385 -18.77330 -18.76222
 Alpha  occ. eigenvalues --  -18.76128 -18.75267 -14.03034 -14.02681 -14.01081
 Alpha  occ. eigenvalues --  -14.00586 -10.05189 -10.03384  -9.99949  -9.99808
 Alpha  occ. eigenvalues --   -9.98889  -9.96474  -9.96365  -9.96252  -9.96017
 Alpha  occ. eigenvalues --   -9.95813  -9.95702  -9.95599  -9.95172  -9.94334
 Alpha  occ. eigenvalues --   -9.94257  -9.94205  -9.93906  -9.93813  -9.93759
 Alpha  occ. eigenvalues --   -9.93595  -9.93590  -9.93491  -9.93309  -9.93282
 Alpha  occ. eigenvalues --   -9.93216  -9.93045  -9.93007  -9.92856  -9.92729
 Alpha  occ. eigenvalues --   -9.92620  -9.92576  -9.92545  -9.92390  -9.92296
 Alpha  occ. eigenvalues --   -9.92263  -9.92161  -9.92114  -9.91962  -9.91848
 Alpha  occ. eigenvalues --   -9.91803  -9.91775  -9.91637  -9.91480  -9.91458
 Alpha  occ. eigenvalues --   -9.91453  -9.91387  -9.91353  -9.91222  -9.91220
 Alpha  occ. eigenvalues --   -9.90970  -9.90910  -9.90823  -9.90783  -9.90719
 Alpha  occ. eigenvalues --   -9.90697  -2.91602  -1.72033  -1.71499  -1.71297
 Alpha  occ. eigenvalues --   -0.98403  -0.95497  -0.91242  -0.90587  -0.89301
 Alpha  occ. eigenvalues --   -0.88710  -0.86850  -0.86234  -0.85526  -0.84029
 Alpha  occ. eigenvalues --   -0.74867  -0.74173  -0.73190  -0.72755  -0.72673
 Alpha  occ. eigenvalues --   -0.72079  -0.71837  -0.70830  -0.70590  -0.70247
 Alpha  occ. eigenvalues --   -0.69800  -0.69283  -0.68248  -0.67288  -0.67019
 Alpha  occ. eigenvalues --   -0.66550  -0.66078  -0.65477  -0.65009  -0.64559
 Alpha  occ. eigenvalues --   -0.64447  -0.62867  -0.62390  -0.61602  -0.60431
 Alpha  occ. eigenvalues --   -0.60328  -0.59984  -0.59570  -0.59536  -0.58953
 Alpha  occ. eigenvalues --   -0.58350  -0.57221  -0.56372  -0.55665  -0.54686
 Alpha  occ. eigenvalues --   -0.54149  -0.53455  -0.52832  -0.52365  -0.51545
 Alpha  occ. eigenvalues --   -0.51360  -0.50695  -0.50410  -0.50212  -0.49973
 Alpha  occ. eigenvalues --   -0.49915  -0.49403  -0.48662  -0.47446  -0.46509
 Alpha  occ. eigenvalues --   -0.46456  -0.45855  -0.45573  -0.44554  -0.44239
 Alpha  occ. eigenvalues --   -0.43742  -0.43484  -0.43064  -0.42791  -0.42246
 Alpha  occ. eigenvalues --   -0.41842  -0.41669  -0.41523  -0.41486  -0.41372
 Alpha  occ. eigenvalues --   -0.40952  -0.40888  -0.40810  -0.40514  -0.40355
 Alpha  occ. eigenvalues --   -0.39968  -0.39879  -0.39772  -0.39381  -0.39147
 Alpha  occ. eigenvalues --   -0.39028  -0.38878  -0.38706  -0.38538  -0.38295
 Alpha  occ. eigenvalues --   -0.38094  -0.38061  -0.38001  -0.37366  -0.37222
 Alpha  occ. eigenvalues --   -0.37151  -0.36976  -0.36907  -0.36774  -0.36677
 Alpha  occ. eigenvalues --   -0.36442  -0.36290  -0.36120  -0.35792  -0.35585
 Alpha  occ. eigenvalues --   -0.35454  -0.35242  -0.35120  -0.34746  -0.34557
 Alpha  occ. eigenvalues --   -0.34454  -0.34319  -0.34136  -0.33911  -0.33746
 Alpha  occ. eigenvalues --   -0.33671  -0.33421  -0.33372  -0.32948  -0.32822
 Alpha  occ. eigenvalues --   -0.32637  -0.32519  -0.32444  -0.32340  -0.32108
 Alpha  occ. eigenvalues --   -0.32023  -0.31965  -0.31899  -0.31649  -0.31516
 Alpha  occ. eigenvalues --   -0.31441  -0.31191  -0.31123  -0.30996  -0.30695
 Alpha  occ. eigenvalues --   -0.30499  -0.30357  -0.30182  -0.29910  -0.29594
 Alpha  occ. eigenvalues --   -0.29533  -0.29367  -0.29140  -0.28893  -0.28818
 Alpha  occ. eigenvalues --   -0.28446  -0.28350  -0.28224  -0.27673  -0.27619
 Alpha  occ. eigenvalues --   -0.27111  -0.26986  -0.26643  -0.26481  -0.26288
 Alpha  occ. eigenvalues --   -0.26155  -0.25942  -0.25677  -0.25580  -0.25400
 Alpha  occ. eigenvalues --   -0.24942  -0.24908  -0.24554  -0.23891  -0.23759
 Alpha  occ. eigenvalues --   -0.23178  -0.21842  -0.21703  -0.21247  -0.20630
 Alpha  occ. eigenvalues --   -0.20184  -0.19812  -0.18960  -0.18576  -0.17051
 Alpha  occ. eigenvalues --   -0.15531
 Alpha virt. eigenvalues --   -0.11134  -0.06751  -0.06216  -0.04707  -0.04216
 Alpha virt. eigenvalues --   -0.03375  -0.02316  -0.01534  -0.01120   0.00111
 Alpha virt. eigenvalues --    0.01527   0.01795   0.02436   0.02601   0.02845

 Mulliken charges:
               1
     1  Mg   0.688200
     2  C    0.046819
     3  C   -0.100425
     4  C   -0.032398
     5  C   -0.067352
     6  N   -0.136435
     7  C   -0.109140
     8  C   -0.043497
     9  C    0.026618
    10  C    0.025060
    11  C    0.113588
    12  C    0.115732
    13  C    0.159394
    14  C    0.097939
    15  O   -0.220868
    16  O   -0.279284
    17  N   -0.242198
    18  C    0.133625
    19  C   -0.173572
    20  C    0.021239
    21  C    0.084028
    22  C    0.209742
    23  C   -0.072193
    24  O   -0.180095
    25  C    0.142424
    26  N   -0.259407
    27  C   -0.014302
    28  C   -0.005424
    29  C    0.065302
    30  C    0.008032
    31  C    0.149162
    32  C    0.034317
    33  C    0.073861
    34  N   -0.309672
    35  C    0.151889
    36  C   -0.200090
    37  C    0.115599
    38  C    0.087955
    39  C    0.195585
    40  C   -0.059544
    41  O   -0.120135
    42  C    0.038767
    43  C    0.148910
    44  O   -0.184813
    45  O   -0.295516
    46  C    0.225180
    47  C    0.303725
    48  C   -0.065724
    49  C   -0.216987
    50  C    0.147590
    51  C    0.128258
    52  C    0.073993
    53  C    0.131267
    54  C   -0.093058
    55  C    0.114880
    56  C    0.103562
    57  C    0.120849
    58  C    0.109588
    59  C   -0.090794
    60  C    0.074193
    61  C    0.124021
    62  C    0.081556
    63  C    0.072680
    64  C   -0.093577
    65  C    0.102458
    66  C    0.094009
    67  H   -0.050453
    68  H   -0.051062
    69  H   -0.068408
    70  H    0.018620
    71  H   -0.031649
    72  H   -0.017648
    73  H    0.006953
    74  H   -0.024229
    75  H   -0.021351
    76  H   -0.018351
    77  H   -0.013694
    78  H   -0.002863
    79  H    0.013329
    80  H   -0.016944
    81  H    0.008769
    82  H   -0.001722
    83  H    0.000148
    84  H    0.004110
    85  H   -0.019694
    86  H   -0.027756
    87  H    0.011557
    88  H    0.002681
    89  H   -0.016166
    90  H   -0.006316
    91  H   -0.025928
    92  H   -0.012905
    93  H   -0.002140
    94  H    0.007730
    95  H    0.012522
    96  H   -0.009124
    97  H   -0.004615
    98  H    0.002205
    99  H    0.026188
   100  H    0.008462
   101  H    0.006777
   102  H    0.020120
   103  H    0.006792
   104  H   -0.043178
   105  H    0.000331
   106  H   -0.022751
   107  H   -0.001443
   108  H   -0.024491
   109  H   -0.017039
   110  H   -0.021798
   111  H   -0.028628
   112  H   -0.029762
   113  H   -0.024384
   114  H   -0.043213
   115  H   -0.030369
   116  H   -0.004241
   117  H   -0.036576
   118  H   -0.048933
   119  H   -0.040534
   120  H   -0.032808
   121  H   -0.031447
   122  H   -0.030927
   123  H   -0.054840
   124  H   -0.029666
   125  H   -0.025358
   126  H   -0.029269
   127  H   -0.008213
   128  H   -0.038637
   129  H   -0.028520
   130  H   -0.030031
   131  H   -0.030222
   132  H   -0.037704
   133  H   -0.038536
   134  H   -0.034695
   135  H   -0.007305
   136  H   -0.020592
   137  H   -0.019653
   138  H   -0.007177
   139  H   -0.016548
   140  H   -0.019887
 Sum of Mulliken charges =  -0.00000

 Dipole moment (field-independent basis, Debye):
    X=             -4.3038    Y=              2.6759    Z=              1.8699  Tot=              5.4018
 Quadrupole moment (field-independent basis, Debye-Ang):
   XX=           -389.2626   YY=           -433.2957   ZZ=           -403.9395
   XY=             19.5010   XZ=             14.1764   YZ=             -2.6338

 Normal termination of Gaussian 16 at Thu May  5 01:22:22 2022.
