 Gaussian 16, Revision A.03,
 Gaussian 16:  ES64L-G16RevA.03 25-Dec-2016

 -----------------------------------
 #p cam-b3lyp/Def2SVP td=(nstates=5)
 -----------------------------------

 -------------------------------------------------------
 step_501_chromophore_18 TDDFT with cam-b3lyp functional
 -------------------------------------------------------
 Symbolic Z-matrix:
 Charge =  0 Multiplicity = 1

                         Standard orientation:
 ---------------------------------------------------------------------
 Center     Atomic      Atomic             Coordinates (Angstroms)
 Number     Number       Type             X           Y           Z
 ---------------------------------------------------------------------
      1         12           0        5.606918    1.157726    0.205402
      2          6           0        4.679162   -2.270051    0.267273
      3          6           0        2.147044    1.836182   -0.079178
      4          6           0        6.327595    4.310235   -0.226630
      5          6           0        8.949802    0.197686    0.199005
      6          7           0        3.596633   -0.103185    0.094016
      7          6           0        3.546377   -1.466997    0.247588
      8          6           0        2.129210   -2.006296    0.343089
      9          6           0        1.335817   -0.652213    0.095641
     10          6           0        2.409059    0.446973    0.070778
     11          6           0        0.420604   -0.768913   -1.119670
     12          6           0        1.871928   -2.625602    1.734416
     13          6           0        0.948152   -3.898907    1.833678
     14          6           0       -0.021578   -4.188479    0.663813
     15          8           0        0.113041   -5.074039   -0.208049
     16          8           0       -1.021268   -3.248894    0.591148
     17          7           0        4.405881    2.867671   -0.034137
     18          6           0        3.022043    2.913242   -0.205668
     19          6           0        2.628184    4.322357   -0.362464
     20          6           0        3.851073    5.067359   -0.305774
     21          6           0        4.910278    4.053901   -0.138422
     22          6           0        1.277840    4.740840   -0.607271
     23          6           0        4.050164    6.575758   -0.414629
     24          8           0        5.188245    7.070306   -0.445336
     25          6           0        2.900684    7.499294   -0.309293
     26          7           0        7.391417    2.110078   -0.091107
     27          6           0        7.433605    3.443981   -0.144192
     28          6           0        8.899862    3.952948   -0.331062
     29          6           0        9.718320    2.665014    0.001033
     30          6           0        8.682053    1.585565    0.026459
     31          6           0        9.183106    4.611312   -1.729199
     32          6           0       10.318494    2.916868    1.436851
     33          6           0        9.557366    2.414576    2.711901
     34          7           0        6.648122   -0.620962    0.330600
     35          6           0        8.036530   -0.844733    0.299704
     36          6           0        8.271200   -2.310001    0.316820
     37          6           0        6.998422   -2.864166    0.246410
     38          6           0        6.037180   -1.876481    0.287531
     39          6           0        9.603669   -2.842350    0.089760
     40          6           0        6.329765   -4.148846    0.055261
     41          8           0        6.844614   -5.251855   -0.089662
     42          6           0        4.762996   -3.822422    0.032819
     43          6           0        4.137554   -4.279027   -1.232117
     44          8           0        3.956838   -3.598969   -2.238091
     45          8           0        3.758718   -5.627862   -1.094965
     46          6           0        3.173186   -6.363954   -2.192527
     47          6           0       -2.026148   -3.545701   -0.425152
     48          6           0       -3.379967   -2.863231   -0.204085
     49          6           0       -4.640283   -3.084772   -0.790150
     50          6           0       -4.858468   -4.223930   -1.713386
     51          6           0       -5.845815   -2.173488   -0.746312
     52          6           0       -6.612805   -2.345835    0.572936
     53          6           0       -7.128095   -0.941193    1.091109
     54          6           0       -8.525190   -1.022707    1.690644
     55          6           0       -8.475407   -1.325107    3.184471
     56          6           0       -9.494907    0.151480    1.345787
     57          6           0      -10.142364    0.062860    0.008807
     58          6           0      -11.575383   -0.550351    0.210557
     59          6           0      -12.739774    0.488491    0.070310
     60          6           0      -13.350607    0.584821    1.495044
     61          6           0      -13.864491    0.070960   -0.936084
     62          6           0      -14.550692    1.294548   -1.657524
     63          6           0      -15.913828    1.811183   -1.078786
     64          6           0      -15.781828    3.167598   -0.272853
     65          6           0      -16.996250    3.437615    0.587305
     66          6           0      -15.479443    4.415460   -1.191876
     67          1           0        1.111702    2.147601    0.076810
     68          1           0        6.638431    5.350325   -0.348297
     69          1           0       10.027193    0.025591    0.237497
     70          1           0        1.909419   -2.748577   -0.424688
     71          1           0        0.633018   -0.565027    0.923787
     72          1           0       -0.627669   -0.541465   -0.929248
     73          1           0        0.430031   -1.727638   -1.638242
     74          1           0        0.729655    0.014980   -1.812396
     75          1           0        1.461684   -1.883344    2.419040
     76          1           0        2.895217   -2.839440    2.044997
     77          1           0        0.265703   -3.805817    2.677824
     78          1           0        1.607113   -4.699072    2.170700
     79          1           0        1.054737    5.500522    0.142148
     80          1           0        0.621688    3.881767   -0.743760
     81          1           0        1.380181    5.127308   -1.621799
     82          1           0        2.258241    7.497613   -1.190359
     83          1           0        3.266765    8.521343   -0.213693
     84          1           0        2.255089    7.131097    0.487518
     85          1           0        8.891742    4.722943    0.440429
     86          1           0       10.548149    2.521006   -0.691339
     87          1           0        9.095106    5.695336   -1.655551
     88          1           0        8.513557    4.130366   -2.441557
     89          1           0       10.208188    4.340931   -1.982030
     90          1           0       10.672912    3.945779    1.501940
     91          1           0       11.144147    2.205971    1.480544
     92          1           0        9.637946    3.257408    3.397759
     93          1           0       10.032358    1.551693    3.180494
     94          1           0        8.495330    2.206355    2.586789
     95          1           0       10.029516   -2.347902   -0.782393
     96          1           0        9.476350   -3.898969   -0.147887
     97          1           0       10.183873   -2.851711    1.012062
     98          1           0        4.374169   -4.416473    0.860454
     99          1           0        3.897107   -6.956910   -2.750961
    100          1           0        2.470219   -5.748447   -2.754059
    101          1           0        2.472377   -7.001980   -1.653354
    102          1           0       -2.227829   -4.615903   -0.462832
    103          1           0       -1.522307   -3.207731   -1.330324
    104          1           0       -3.421600   -1.940817    0.375661
    105          1           0       -5.500773   -4.968895   -1.242786
    106          1           0       -3.887344   -4.682735   -1.902556
    107          1           0       -5.257961   -3.884124   -2.668665
    108          1           0       -6.529447   -2.244564   -1.592695
    109          1           0       -5.391940   -1.191932   -0.879808
    110          1           0       -5.982374   -2.826270    1.321319
    111          1           0       -7.376994   -3.106346    0.414239
    112          1           0       -7.100142   -0.268443    0.233613
    113          1           0       -6.508767   -0.528708    1.887042
    114          1           0       -8.963877   -1.957014    1.339391
    115          1           0       -8.854276   -2.341313    3.295793
    116          1           0       -8.973271   -0.624744    3.856000
    117          1           0       -7.455652   -1.511846    3.519672
    118          1           0       -8.986846    1.115868    1.370768
    119          1           0      -10.240584    0.250754    2.134570
    120          1           0       -9.509362   -0.645059   -0.527127
    121          1           0      -10.332471    1.018855   -0.476491
    122          1           0      -11.601949   -1.060115    1.174516
    123          1           0      -11.847911   -1.311526   -0.520235
    124          1           0      -12.414887    1.510153   -0.129177
    125          1           0      -14.264352    1.175369    1.443307
    126          1           0      -12.784068    1.232054    2.164744
    127          1           0      -13.461722   -0.343682    2.055130
    128          1           0      -14.658892   -0.365455   -0.330146
    129          1           0      -13.542201   -0.685616   -1.651368
    130          1           0      -14.790995    1.081792   -2.699178
    131          1           0      -13.807020    2.082310   -1.531036
    132          1           0      -16.340874    0.997728   -0.491948
    133          1           0      -16.664856    2.035343   -1.836085
    134          1           0      -14.957874    2.970636    0.413031
    135          1           0      -17.266542    2.703302    1.346375
    136          1           0      -17.747803    3.623463   -0.179688
    137          1           0      -16.792725    4.385758    1.084367
    138          1           0      -14.412852    4.596482   -1.323455
    139          1           0      -15.944579    5.332727   -0.829204
    140          1           0      -15.904224    4.239529   -2.179671
 ---------------------------------------------------------------------

 SCF Done:  E(RCAM-B3LYP) =  -3007.16266586     A.U. after   17 cycles

 Excitation energies and oscillator strengths:

 Excited State   1:      Singlet-A      1.7498 eV  708.57 nm  f=0.3655  <S**2>=0.000
     245 -> 248        0.18985
     246 -> 247        0.68122
     245 <- 248        0.10790
 This state for optimization and/or second-order correction.
 Total Energy, E(TD-HF/TD-DFT) =  -3007.09836247
 Copying the excited state density for this state as the 1-particle RhoCI density.

 Excited State   2:      Singlet-A      2.2726 eV  545.57 nm  f=0.0760  <S**2>=0.000
     245 -> 247        0.62274
     246 -> 248       -0.32251

 Excited State   3:      Singlet-A      3.4715 eV  357.15 nm  f=0.6419  <S**2>=0.000
     242 -> 247        0.26830
     245 -> 247        0.28319
     246 -> 248        0.58329
     245 <- 247       -0.10493

 Excited State   4:      Singlet-A      3.5214 eV  352.09 nm  f=0.0142  <S**2>=0.000
     242 -> 247       -0.25344
     244 -> 247        0.63929

 Excited State   5:      Singlet-A      3.6802 eV  336.90 nm  f=0.0188  <S**2>=0.000
     239 -> 247        0.21448
     239 -> 249       -0.13047
     239 -> 250       -0.11505
     240 -> 247       -0.12671
     241 -> 247        0.44704
     241 -> 249        0.31024
     241 -> 250       -0.20059
     242 -> 247       -0.17263

 The electronic state is 1-A.
 Alpha  occ. eigenvalues --  -46.88473 -19.26103 -19.23258 -19.20374 -19.19374
 Alpha  occ. eigenvalues --  -19.19163 -19.18715 -14.42120 -14.41247 -14.39654
 Alpha  occ. eigenvalues --  -14.38868 -10.40615 -10.38979 -10.35266 -10.35212
 Alpha  occ. eigenvalues --  -10.33001 -10.30972 -10.30731 -10.30421 -10.30353
 Alpha  occ. eigenvalues --  -10.30283 -10.30260 -10.30095 -10.29138 -10.29002
 Alpha  occ. eigenvalues --  -10.28672 -10.28386 -10.28169 -10.28097 -10.28001
 Alpha  occ. eigenvalues --  -10.27552 -10.27547 -10.27527 -10.27518 -10.27430
 Alpha  occ. eigenvalues --  -10.27353 -10.27213 -10.27107 -10.26973 -10.26940
 Alpha  occ. eigenvalues --  -10.26494 -10.26388 -10.26338 -10.26327 -10.26109
 Alpha  occ. eigenvalues --  -10.26074 -10.25946 -10.25717 -10.25632 -10.25562
 Alpha  occ. eigenvalues --  -10.25529 -10.25275 -10.25250 -10.25239 -10.25181
 Alpha  occ. eigenvalues --  -10.25113 -10.25018 -10.25014 -10.24980 -10.24865
 Alpha  occ. eigenvalues --  -10.24682 -10.24614 -10.24566 -10.24430 -10.24372
 Alpha  occ. eigenvalues --  -10.24311  -3.17016  -1.91923  -1.91484  -1.91303
 Alpha  occ. eigenvalues --   -1.16858  -1.14008  -1.09489  -1.09183  -1.07188
 Alpha  occ. eigenvalues --   -1.06619  -1.04745  -1.04028  -1.03054  -1.01314
 Alpha  occ. eigenvalues --   -0.91903  -0.91097  -0.90030  -0.89853  -0.89483
 Alpha  occ. eigenvalues --   -0.88829  -0.88352  -0.87436  -0.87290  -0.86683
 Alpha  occ. eigenvalues --   -0.86125  -0.85645  -0.84566  -0.83573  -0.83101
 Alpha  occ. eigenvalues --   -0.82767  -0.82251  -0.81386  -0.80900  -0.80360
 Alpha  occ. eigenvalues --   -0.80188  -0.78922  -0.77999  -0.76982  -0.75779
 Alpha  occ. eigenvalues --   -0.75681  -0.75335  -0.74873  -0.74788  -0.74211
 Alpha  occ. eigenvalues --   -0.73387  -0.72110  -0.71246  -0.70504  -0.69181
 Alpha  occ. eigenvalues --   -0.68720  -0.68064  -0.67285  -0.66901  -0.65863
 Alpha  occ. eigenvalues --   -0.65660  -0.64660  -0.64437  -0.64068  -0.64023
 Alpha  occ. eigenvalues --   -0.63780  -0.63370  -0.62603  -0.61090  -0.60283
 Alpha  occ. eigenvalues --   -0.60071  -0.59388  -0.59058  -0.57952  -0.57732
 Alpha  occ. eigenvalues --   -0.57118  -0.56854  -0.56181  -0.55979  -0.55376
 Alpha  occ. eigenvalues --   -0.54979  -0.54847  -0.54439  -0.54228  -0.54139
 Alpha  occ. eigenvalues --   -0.53925  -0.53727  -0.53468  -0.53379  -0.53040
 Alpha  occ. eigenvalues --   -0.52966  -0.52450  -0.52290  -0.52150  -0.51791
 Alpha  occ. eigenvalues --   -0.51562  -0.51406  -0.51194  -0.51158  -0.50744
 Alpha  occ. eigenvalues --   -0.50614  -0.50449  -0.50278  -0.49856  -0.49608
 Alpha  occ. eigenvalues --   -0.49533  -0.49464  -0.49312  -0.49050  -0.48895
 Alpha  occ. eigenvalues --   -0.48749  -0.48517  -0.48278  -0.48232  -0.47946
 Alpha  occ. eigenvalues --   -0.47622  -0.47368  -0.47109  -0.46794  -0.46606
 Alpha  occ. eigenvalues --   -0.46400  -0.46067  -0.45967  -0.45779  -0.45407
 Alpha  occ. eigenvalues --   -0.45350  -0.45323  -0.45033  -0.44764  -0.44584
 Alpha  occ. eigenvalues --   -0.44327  -0.44152  -0.44012  -0.43955  -0.43865
 Alpha  occ. eigenvalues --   -0.43689  -0.43592  -0.43397  -0.43365  -0.43241
 Alpha  occ. eigenvalues --   -0.43187  -0.42589  -0.42489  -0.42428  -0.42132
 Alpha  occ. eigenvalues --   -0.41775  -0.41652  -0.41501  -0.41250  -0.41008
 Alpha  occ. eigenvalues --   -0.40734  -0.40595  -0.40374  -0.39874  -0.39828
 Alpha  occ. eigenvalues --   -0.39798  -0.39445  -0.39411  -0.39181  -0.38472
 Alpha  occ. eigenvalues --   -0.38188  -0.37737  -0.37478  -0.37398  -0.37209
 Alpha  occ. eigenvalues --   -0.37156  -0.36899  -0.36628  -0.36327  -0.36041
 Alpha  occ. eigenvalues --   -0.35700  -0.35479  -0.35386  -0.35020  -0.34128
 Alpha  occ. eigenvalues --   -0.34048  -0.33652  -0.33196  -0.31169  -0.30912
 Alpha  occ. eigenvalues --   -0.30657  -0.30114  -0.29324  -0.29270  -0.23837
 Alpha  occ. eigenvalues --   -0.20744
 Alpha virt. eigenvalues --   -0.08094  -0.01677   0.00314   0.02259   0.03333
 Alpha virt. eigenvalues --    0.03499   0.04073   0.05280   0.05841   0.06761
 Alpha virt. eigenvalues --    0.08359   0.08661   0.08806   0.08966   0.09151

 Mulliken charges:
               1
     1  Mg   0.821247
     2  C    0.028270
     3  C   -0.107651
     4  C   -0.061827
     5  C   -0.079704
     6  N   -0.200340
     7  C   -0.075420
     8  C   -0.090472
     9  C   -0.022711
    10  C    0.038938
    11  C    0.057321
    12  C    0.068583
    13  C    0.093727
    14  C    0.167906
    15  O   -0.260618
    16  O   -0.340327
    17  N   -0.333919
    18  C    0.142375
    19  C   -0.171149
    20  C   -0.048942
    21  C    0.118377
    22  C    0.141176
    23  C    0.013148
    24  O   -0.220271
    25  C    0.057321
    26  N   -0.336832
    27  C    0.016410
    28  C   -0.060037
    29  C    0.004156
    30  C    0.025678
    31  C    0.091670
    32  C   -0.015112
    33  C    0.015201
    34  N   -0.395288
    35  C    0.152197
    36  C   -0.185257
    37  C    0.031214
    38  C    0.121379
    39  C    0.129608
    40  C    0.041152
    41  O   -0.159762
    42  C   -0.037218
    43  C    0.236896
    44  O   -0.220273
    45  O   -0.359630
    46  C    0.186815
    47  C    0.275786
    48  C   -0.089345
    49  C   -0.234490
    50  C    0.084298
    51  C    0.065816
    52  C    0.023330
    53  C    0.073829
    54  C   -0.149166
    55  C    0.054602
    56  C    0.051363
    57  C    0.060786
    58  C    0.058938
    59  C   -0.146158
    60  C    0.022060
    61  C    0.069732
    62  C    0.025125
    63  C    0.021987
    64  C   -0.152188
    65  C    0.045257
    66  C    0.034596
    67  H   -0.014473
    68  H   -0.010781
    69  H   -0.032407
    70  H    0.046735
    71  H    0.004248
    72  H    0.006024
    73  H    0.028848
    74  H    0.002884
    75  H    0.009374
    76  H    0.012864
    77  H    0.020341
    78  H    0.030001
    79  H    0.039857
    80  H    0.014388
    81  H    0.037975
    82  H    0.028128
    83  H    0.036915
    84  H    0.029688
    85  H    0.014368
    86  H    0.008588
    87  H    0.034216
    88  H    0.027601
    89  H    0.007533
    90  H    0.020585
    91  H    0.002291
    92  H    0.010355
    93  H    0.021439
    94  H    0.027463
    95  H    0.036521
    96  H    0.019618
    97  H    0.021493
    98  H    0.043581
    99  H    0.046816
   100  H    0.032783
   101  H    0.029854
   102  H    0.046730
   103  H    0.033095
   104  H   -0.011813
   105  H    0.024853
   106  H    0.000939
   107  H    0.023204
   108  H    0.006693
   109  H    0.013238
   110  H    0.007417
   111  H   -0.000256
   112  H   -0.001668
   113  H    0.004248
   114  H   -0.011747
   115  H   -0.004979
   116  H    0.020290
   117  H   -0.010876
   118  H   -0.018360
   119  H   -0.013542
   120  H   -0.005428
   121  H   -0.001058
   122  H   -0.004273
   123  H   -0.023942
   124  H   -0.000803
   125  H   -0.005875
   126  H   -0.004110
   127  H    0.016158
   128  H   -0.009695
   129  H    0.001378
   130  H    0.000860
   131  H   -0.004395
   132  H   -0.009207
   133  H   -0.010646
   134  H   -0.009022
   135  H    0.016988
   136  H    0.001623
   137  H    0.005012
   138  H    0.016222
   139  H    0.008860
   140  H    0.004014
 Sum of Mulliken charges =  -0.00000

 Dipole moment (field-independent basis, Debye):
    X=             -5.2273    Y=              3.4353    Z=              1.9385  Tot=              6.5485
 Quadrupole moment (field-independent basis, Debye-Ang):
   XX=           -394.6813   YY=           -428.6945   ZZ=           -403.8085
   XY=             21.5061   XZ=             14.2993   YZ=             -3.2890

 Normal termination of Gaussian 16 at Wed May  4 23:32:22 2022.
