 Gaussian 16, Revision A.03,
 Gaussian 16:  ES64L-G16RevA.03 25-Dec-2016

 ---------------------------------
 #p PBE1PBE/Def2SVP td=(nstates=5)
 ---------------------------------

 -----------------------------------------------------
 step_501_chromophore_18 TDDFT with PBE1PBE functional
 -----------------------------------------------------
 Symbolic Z-matrix:
 Charge =  0 Multiplicity = 1

                         Standard orientation:
 ---------------------------------------------------------------------
 Center     Atomic      Atomic             Coordinates (Angstroms)
 Number     Number       Type             X           Y           Z
 ---------------------------------------------------------------------
      1         12           0        5.606918    1.157726    0.205402
      2          6           0        4.679162   -2.270051    0.267273
      3          6           0        2.147044    1.836182   -0.079178
      4          6           0        6.327595    4.310235   -0.226630
      5          6           0        8.949802    0.197686    0.199005
      6          7           0        3.596633   -0.103185    0.094016
      7          6           0        3.546377   -1.466997    0.247588
      8          6           0        2.129210   -2.006296    0.343089
      9          6           0        1.335817   -0.652213    0.095641
     10          6           0        2.409059    0.446973    0.070778
     11          6           0        0.420604   -0.768913   -1.119670
     12          6           0        1.871928   -2.625602    1.734416
     13          6           0        0.948152   -3.898907    1.833678
     14          6           0       -0.021578   -4.188479    0.663813
     15          8           0        0.113041   -5.074039   -0.208049
     16          8           0       -1.021268   -3.248894    0.591148
     17          7           0        4.405881    2.867671   -0.034137
     18          6           0        3.022043    2.913242   -0.205668
     19          6           0        2.628184    4.322357   -0.362464
     20          6           0        3.851073    5.067359   -0.305774
     21          6           0        4.910278    4.053901   -0.138422
     22          6           0        1.277840    4.740840   -0.607271
     23          6           0        4.050164    6.575758   -0.414629
     24          8           0        5.188245    7.070306   -0.445336
     25          6           0        2.900684    7.499294   -0.309293
     26          7           0        7.391417    2.110078   -0.091107
     27          6           0        7.433605    3.443981   -0.144192
     28          6           0        8.899862    3.952948   -0.331062
     29          6           0        9.718320    2.665014    0.001033
     30          6           0        8.682053    1.585565    0.026459
     31          6           0        9.183106    4.611312   -1.729199
     32          6           0       10.318494    2.916868    1.436851
     33          6           0        9.557366    2.414576    2.711901
     34          7           0        6.648122   -0.620962    0.330600
     35          6           0        8.036530   -0.844733    0.299704
     36          6           0        8.271200   -2.310001    0.316820
     37          6           0        6.998422   -2.864166    0.246410
     38          6           0        6.037180   -1.876481    0.287531
     39          6           0        9.603669   -2.842350    0.089760
     40          6           0        6.329765   -4.148846    0.055261
     41          8           0        6.844614   -5.251855   -0.089662
     42          6           0        4.762996   -3.822422    0.032819
     43          6           0        4.137554   -4.279027   -1.232117
     44          8           0        3.956838   -3.598969   -2.238091
     45          8           0        3.758718   -5.627862   -1.094965
     46          6           0        3.173186   -6.363954   -2.192527
     47          6           0       -2.026148   -3.545701   -0.425152
     48          6           0       -3.379967   -2.863231   -0.204085
     49          6           0       -4.640283   -3.084772   -0.790150
     50          6           0       -4.858468   -4.223930   -1.713386
     51          6           0       -5.845815   -2.173488   -0.746312
     52          6           0       -6.612805   -2.345835    0.572936
     53          6           0       -7.128095   -0.941193    1.091109
     54          6           0       -8.525190   -1.022707    1.690644
     55          6           0       -8.475407   -1.325107    3.184471
     56          6           0       -9.494907    0.151480    1.345787
     57          6           0      -10.142364    0.062860    0.008807
     58          6           0      -11.575383   -0.550351    0.210557
     59          6           0      -12.739774    0.488491    0.070310
     60          6           0      -13.350607    0.584821    1.495044
     61          6           0      -13.864491    0.070960   -0.936084
     62          6           0      -14.550692    1.294548   -1.657524
     63          6           0      -15.913828    1.811183   -1.078786
     64          6           0      -15.781828    3.167598   -0.272853
     65          6           0      -16.996250    3.437615    0.587305
     66          6           0      -15.479443    4.415460   -1.191876
     67          1           0        1.111702    2.147601    0.076810
     68          1           0        6.638431    5.350325   -0.348297
     69          1           0       10.027193    0.025591    0.237497
     70          1           0        1.909419   -2.748577   -0.424688
     71          1           0        0.633018   -0.565027    0.923787
     72          1           0       -0.627669   -0.541465   -0.929248
     73          1           0        0.430031   -1.727638   -1.638242
     74          1           0        0.729655    0.014980   -1.812396
     75          1           0        1.461684   -1.883344    2.419040
     76          1           0        2.895217   -2.839440    2.044997
     77          1           0        0.265703   -3.805817    2.677824
     78          1           0        1.607113   -4.699072    2.170700
     79          1           0        1.054737    5.500522    0.142148
     80          1           0        0.621688    3.881767   -0.743760
     81          1           0        1.380181    5.127308   -1.621799
     82          1           0        2.258241    7.497613   -1.190359
     83          1           0        3.266765    8.521343   -0.213693
     84          1           0        2.255089    7.131097    0.487518
     85          1           0        8.891742    4.722943    0.440429
     86          1           0       10.548149    2.521006   -0.691339
     87          1           0        9.095106    5.695336   -1.655551
     88          1           0        8.513557    4.130366   -2.441557
     89          1           0       10.208188    4.340931   -1.982030
     90          1           0       10.672912    3.945779    1.501940
     91          1           0       11.144147    2.205971    1.480544
     92          1           0        9.637946    3.257408    3.397759
     93          1           0       10.032358    1.551693    3.180494
     94          1           0        8.495330    2.206355    2.586789
     95          1           0       10.029516   -2.347902   -0.782393
     96          1           0        9.476350   -3.898969   -0.147887
     97          1           0       10.183873   -2.851711    1.012062
     98          1           0        4.374169   -4.416473    0.860454
     99          1           0        3.897107   -6.956910   -2.750961
    100          1           0        2.470219   -5.748447   -2.754059
    101          1           0        2.472377   -7.001980   -1.653354
    102          1           0       -2.227829   -4.615903   -0.462832
    103          1           0       -1.522307   -3.207731   -1.330324
    104          1           0       -3.421600   -1.940817    0.375661
    105          1           0       -5.500773   -4.968895   -1.242786
    106          1           0       -3.887344   -4.682735   -1.902556
    107          1           0       -5.257961   -3.884124   -2.668665
    108          1           0       -6.529447   -2.244564   -1.592695
    109          1           0       -5.391940   -1.191932   -0.879808
    110          1           0       -5.982374   -2.826270    1.321319
    111          1           0       -7.376994   -3.106346    0.414239
    112          1           0       -7.100142   -0.268443    0.233613
    113          1           0       -6.508767   -0.528708    1.887042
    114          1           0       -8.963877   -1.957014    1.339391
    115          1           0       -8.854276   -2.341313    3.295793
    116          1           0       -8.973271   -0.624744    3.856000
    117          1           0       -7.455652   -1.511846    3.519672
    118          1           0       -8.986846    1.115868    1.370768
    119          1           0      -10.240584    0.250754    2.134570
    120          1           0       -9.509362   -0.645059   -0.527127
    121          1           0      -10.332471    1.018855   -0.476491
    122          1           0      -11.601949   -1.060115    1.174516
    123          1           0      -11.847911   -1.311526   -0.520235
    124          1           0      -12.414887    1.510153   -0.129177
    125          1           0      -14.264352    1.175369    1.443307
    126          1           0      -12.784068    1.232054    2.164744
    127          1           0      -13.461722   -0.343682    2.055130
    128          1           0      -14.658892   -0.365455   -0.330146
    129          1           0      -13.542201   -0.685616   -1.651368
    130          1           0      -14.790995    1.081792   -2.699178
    131          1           0      -13.807020    2.082310   -1.531036
    132          1           0      -16.340874    0.997728   -0.491948
    133          1           0      -16.664856    2.035343   -1.836085
    134          1           0      -14.957874    2.970636    0.413031
    135          1           0      -17.266542    2.703302    1.346375
    136          1           0      -17.747803    3.623463   -0.179688
    137          1           0      -16.792725    4.385758    1.084367
    138          1           0      -14.412852    4.596482   -1.323455
    139          1           0      -15.944579    5.332727   -0.829204
    140          1           0      -15.904224    4.239529   -2.179671
 ---------------------------------------------------------------------

 SCF Done:  E(RPBE1PBE) =  -3005.35192292     A.U. after   15 cycles

 Excitation energies and oscillator strengths:

 Excited State   1:      Singlet-A      1.8857 eV  657.49 nm  f=0.3549  <S**2>=0.000
     245 -> 248        0.18490
     246 -> 247        0.68866
     246 <- 247       -0.10020
 This state for optimization and/or second-order correction.
 Total Energy, E(TD-HF/TD-DFT) =  -3005.28262417
 Copying the excited state density for this state as the 1-particle RhoCI density.

 Excited State   2:      Singlet-A      2.2637 eV  547.71 nm  f=0.0799  <S**2>=0.000
     245 -> 247        0.63921
     246 -> 248       -0.29144

 Excited State   3:      Singlet-A      3.1500 eV  393.60 nm  f=0.0012  <S**2>=0.000
     240 -> 247       -0.12014
     241 -> 247       -0.10781
     243 -> 247        0.67784

 Excited State   4:      Singlet-A      3.1865 eV  389.10 nm  f=0.0008  <S**2>=0.000
     240 -> 247        0.62995
     240 -> 249       -0.17087
     240 -> 250       -0.13129
     241 -> 247       -0.19622

 Excited State   5:      Singlet-A      3.2014 eV  387.29 nm  f=0.0022  <S**2>=0.000
     240 -> 247        0.17043
     241 -> 247        0.55652
     241 -> 249        0.17822
     242 -> 247       -0.31010
     243 -> 247        0.10318

 The electronic state is 1-A.
 Alpha  occ. eigenvalues --  -46.91883 -19.26763 -19.23939 -19.20679 -19.19579
 Alpha  occ. eigenvalues --  -19.19502 -19.18795 -14.41438 -14.40947 -14.39177
 Alpha  occ. eigenvalues --  -14.38670 -10.37691 -10.35956 -10.32477 -10.32238
 Alpha  occ. eigenvalues --  -10.30414 -10.28650 -10.28518 -10.28158 -10.27995
 Alpha  occ. eigenvalues --  -10.27835 -10.27744 -10.27324 -10.27089 -10.26341
 Alpha  occ. eigenvalues --  -10.26330 -10.26107 -10.25891 -10.25763 -10.25750
 Alpha  occ. eigenvalues --  -10.25444 -10.25371 -10.25178 -10.25083 -10.24982
 Alpha  occ. eigenvalues --  -10.24956 -10.24949 -10.24750 -10.24651 -10.24534
 Alpha  occ. eigenvalues --  -10.24217 -10.24099 -10.23876 -10.23793 -10.23671
 Alpha  occ. eigenvalues --  -10.23642 -10.23613 -10.23223 -10.23222 -10.23126
 Alpha  occ. eigenvalues --  -10.23104 -10.22985 -10.22747 -10.22730 -10.22684
 Alpha  occ. eigenvalues --  -10.22626 -10.22623 -10.22543 -10.22487 -10.22413
 Alpha  occ. eigenvalues --  -10.22377 -10.22266 -10.22104 -10.21819 -10.21777
 Alpha  occ. eigenvalues --  -10.21678  -3.14008  -1.86857  -1.86396  -1.86218
 Alpha  occ. eigenvalues --   -1.11672  -1.08747  -1.04341  -1.03752  -1.02045
 Alpha  occ. eigenvalues --   -1.01439  -0.99270  -0.98586  -0.97733  -0.96130
 Alpha  occ. eigenvalues --   -0.86299  -0.85198  -0.84133  -0.83936  -0.83693
 Alpha  occ. eigenvalues --   -0.82904  -0.82712  -0.81556  -0.81529  -0.81071
 Alpha  occ. eigenvalues --   -0.80581  -0.79843  -0.78714  -0.77774  -0.77439
 Alpha  occ. eigenvalues --   -0.76890  -0.76424  -0.75650  -0.75142  -0.74600
 Alpha  occ. eigenvalues --   -0.74537  -0.73067  -0.72306  -0.71341  -0.70109
 Alpha  occ. eigenvalues --   -0.69871  -0.69416  -0.69164  -0.68966  -0.68386
 Alpha  occ. eigenvalues --   -0.67701  -0.66613  -0.65690  -0.64818  -0.63600
 Alpha  occ. eigenvalues --   -0.62952  -0.62538  -0.61508  -0.61259  -0.60062
 Alpha  occ. eigenvalues --   -0.60016  -0.59194  -0.58976  -0.58684  -0.58299
 Alpha  occ. eigenvalues --   -0.58134  -0.57505  -0.56772  -0.55667  -0.54729
 Alpha  occ. eigenvalues --   -0.54484  -0.53876  -0.53653  -0.52506  -0.52308
 Alpha  occ. eigenvalues --   -0.51626  -0.51318  -0.50744  -0.50440  -0.49958
 Alpha  occ. eigenvalues --   -0.49539  -0.49397  -0.48815  -0.48769  -0.48546
 Alpha  occ. eigenvalues --   -0.48287  -0.48096  -0.47959  -0.47902  -0.47558
 Alpha  occ. eigenvalues --   -0.47467  -0.47023  -0.46852  -0.46692  -0.46352
 Alpha  occ. eigenvalues --   -0.46109  -0.45900  -0.45828  -0.45807  -0.45174
 Alpha  occ. eigenvalues --   -0.45166  -0.45111  -0.44776  -0.44355  -0.44192
 Alpha  occ. eigenvalues --   -0.44082  -0.44007  -0.43839  -0.43674  -0.43532
 Alpha  occ. eigenvalues --   -0.43363  -0.43131  -0.42912  -0.42834  -0.42564
 Alpha  occ. eigenvalues --   -0.42208  -0.42053  -0.41738  -0.41413  -0.41246
 Alpha  occ. eigenvalues --   -0.41063  -0.40854  -0.40698  -0.40523  -0.40161
 Alpha  occ. eigenvalues --   -0.40101  -0.39935  -0.39699  -0.39500  -0.39376
 Alpha  occ. eigenvalues --   -0.39059  -0.38971  -0.38732  -0.38703  -0.38582
 Alpha  occ. eigenvalues --   -0.38491  -0.38396  -0.38195  -0.38115  -0.38049
 Alpha  occ. eigenvalues --   -0.37985  -0.37498  -0.37222  -0.37140  -0.37011
 Alpha  occ. eigenvalues --   -0.36632  -0.36555  -0.36235  -0.36039  -0.35885
 Alpha  occ. eigenvalues --   -0.35507  -0.35309  -0.35252  -0.34833  -0.34630
 Alpha  occ. eigenvalues --   -0.34565  -0.34298  -0.34229  -0.33936  -0.33257
 Alpha  occ. eigenvalues --   -0.33100  -0.32546  -0.32469  -0.32372  -0.32193
 Alpha  occ. eigenvalues --   -0.32052  -0.31707  -0.31671  -0.31219  -0.30861
 Alpha  occ. eigenvalues --   -0.30760  -0.30340  -0.30315  -0.29956  -0.29274
 Alpha  occ. eigenvalues --   -0.28998  -0.28867  -0.28261  -0.26575  -0.25759
 Alpha  occ. eigenvalues --   -0.25690  -0.25635  -0.25052  -0.24655  -0.20740
 Alpha  occ. eigenvalues --   -0.18414
 Alpha virt. eigenvalues --   -0.10643  -0.05151  -0.03914  -0.02130  -0.01098
 Alpha virt. eigenvalues --   -0.00440   0.00528   0.00834   0.01726   0.02930
 Alpha virt. eigenvalues --    0.04342   0.04857   0.05334   0.05534   0.05773

 Mulliken charges:
               1
     1  Mg   0.970724
     2  C    0.006606
     3  C   -0.100810
     4  C   -0.047589
     5  C   -0.072649
     6  N   -0.310092
     7  C   -0.007041
     8  C   -0.162980
     9  C   -0.095212
    10  C    0.079656
    11  C    0.001359
    12  C    0.021544
    13  C    0.026454
    14  C    0.219212
    15  O   -0.291609
    16  O   -0.368398
    17  N   -0.454183
    18  C    0.168333
    19  C   -0.206135
    20  C   -0.092185
    21  C    0.152960
    22  C    0.074783
    23  C    0.065169
    24  O   -0.259164
    25  C   -0.015309
    26  N   -0.440798
    27  C    0.050866
    28  C   -0.129839
    29  C   -0.082393
    30  C    0.064329
    31  C    0.029999
    32  C   -0.069801
    33  C   -0.060306
    34  N   -0.515991
    35  C    0.173751
    36  C   -0.194739
    37  C   -0.032003
    38  C    0.184235
    39  C    0.066619
    40  C    0.142796
    41  O   -0.205121
    42  C   -0.136012
    43  C    0.322126
    44  O   -0.255126
    45  O   -0.392381
    46  C    0.135045
    47  C    0.236022
    48  C   -0.101499
    49  C   -0.278936
    50  C    0.021179
    51  C    0.001396
    52  C   -0.032021
    53  C    0.015002
    54  C   -0.236732
    55  C   -0.000947
    56  C   -0.003670
    57  C   -0.010836
    58  C    0.009327
    59  C   -0.230510
    60  C   -0.041535
    61  C    0.016237
    62  C   -0.040623
    63  C   -0.027866
    64  C   -0.251906
    65  C   -0.019179
    66  C   -0.023616
    67  H    0.016414
    68  H    0.022748
    69  H    0.000356
    70  H    0.088814
    71  H    0.041197
    72  H    0.033139
    73  H    0.054095
    74  H    0.032573
    75  H    0.040603
    76  H    0.048394
    77  H    0.052820
    78  H    0.060858
    79  H    0.066274
    80  H    0.040443
    81  H    0.066561
    82  H    0.054707
    83  H    0.063118
    84  H    0.056831
    85  H    0.051170
    86  H    0.043410
    87  H    0.060763
    88  H    0.055972
    89  H    0.035972
    90  H    0.052532
    91  H    0.036540
    92  H    0.039570
    93  H    0.048379
    94  H    0.058989
    95  H    0.064049
    96  H    0.050455
    97  H    0.051404
    98  H    0.080331
    99  H    0.068108
   100  H    0.053656
   101  H    0.051635
   102  H    0.071550
   103  H    0.061300
   104  H    0.019096
   105  H    0.053459
   106  H    0.029573
   107  H    0.050772
   108  H    0.037449
   109  H    0.045483
   110  H    0.040063
   111  H    0.030666
   112  H    0.030958
   113  H    0.036932
   114  H    0.027770
   115  H    0.022526
   116  H    0.046236
   117  H    0.016869
   118  H    0.015394
   119  H    0.020253
   120  H    0.029874
   121  H    0.031706
   122  H    0.027576
   123  H    0.009246
   124  H    0.034112
   125  H    0.026540
   126  H    0.024731
   127  H    0.043391
   128  H    0.024113
   129  H    0.032537
   130  H    0.033508
   131  H    0.030310
   132  H    0.022172
   133  H    0.021419
   134  H    0.033123
   135  H    0.044066
   136  H    0.030603
   137  H    0.034000
   138  H    0.042647
   139  H    0.035820
   140  H    0.031293
 Sum of Mulliken charges =  -0.00000

 Dipole moment (field-independent basis, Debye):
    X=             -4.8083    Y=              3.1617    Z=              1.9831  Tot=              6.0868
 Quadrupole moment (field-independent basis, Debye-Ang):
   XX=           -384.1283   YY=           -426.7264   ZZ=           -401.3900
   XY=             20.8167   XZ=             14.6463   YZ=             -3.1309

 Normal termination of Gaussian 16 at Thu May  5 00:01:55 2022.
