 Gaussian 16, Revision A.03,
 Gaussian 16:  ES64L-G16RevA.03 25-Dec-2016

 --------------------------------
 #p wB97XD/Def2SVP td=(nstates=5)
 --------------------------------

 ----------------------------------------------------
 step_501_chromophore_18 TDDFT with wB97XD functional
 ----------------------------------------------------
 Symbolic Z-matrix:
 Charge =  0 Multiplicity = 1

                         Standard orientation:
 ---------------------------------------------------------------------
 Center     Atomic      Atomic             Coordinates (Angstroms)
 Number     Number       Type             X           Y           Z
 ---------------------------------------------------------------------
      1         12           0        5.606918    1.157726    0.205402
      2          6           0        4.679162   -2.270051    0.267273
      3          6           0        2.147044    1.836182   -0.079178
      4          6           0        6.327595    4.310235   -0.226630
      5          6           0        8.949802    0.197686    0.199005
      6          7           0        3.596633   -0.103185    0.094016
      7          6           0        3.546377   -1.466997    0.247588
      8          6           0        2.129210   -2.006296    0.343089
      9          6           0        1.335817   -0.652213    0.095641
     10          6           0        2.409059    0.446973    0.070778
     11          6           0        0.420604   -0.768913   -1.119670
     12          6           0        1.871928   -2.625602    1.734416
     13          6           0        0.948152   -3.898907    1.833678
     14          6           0       -0.021578   -4.188479    0.663813
     15          8           0        0.113041   -5.074039   -0.208049
     16          8           0       -1.021268   -3.248894    0.591148
     17          7           0        4.405881    2.867671   -0.034137
     18          6           0        3.022043    2.913242   -0.205668
     19          6           0        2.628184    4.322357   -0.362464
     20          6           0        3.851073    5.067359   -0.305774
     21          6           0        4.910278    4.053901   -0.138422
     22          6           0        1.277840    4.740840   -0.607271
     23          6           0        4.050164    6.575758   -0.414629
     24          8           0        5.188245    7.070306   -0.445336
     25          6           0        2.900684    7.499294   -0.309293
     26          7           0        7.391417    2.110078   -0.091107
     27          6           0        7.433605    3.443981   -0.144192
     28          6           0        8.899862    3.952948   -0.331062
     29          6           0        9.718320    2.665014    0.001033
     30          6           0        8.682053    1.585565    0.026459
     31          6           0        9.183106    4.611312   -1.729199
     32          6           0       10.318494    2.916868    1.436851
     33          6           0        9.557366    2.414576    2.711901
     34          7           0        6.648122   -0.620962    0.330600
     35          6           0        8.036530   -0.844733    0.299704
     36          6           0        8.271200   -2.310001    0.316820
     37          6           0        6.998422   -2.864166    0.246410
     38          6           0        6.037180   -1.876481    0.287531
     39          6           0        9.603669   -2.842350    0.089760
     40          6           0        6.329765   -4.148846    0.055261
     41          8           0        6.844614   -5.251855   -0.089662
     42          6           0        4.762996   -3.822422    0.032819
     43          6           0        4.137554   -4.279027   -1.232117
     44          8           0        3.956838   -3.598969   -2.238091
     45          8           0        3.758718   -5.627862   -1.094965
     46          6           0        3.173186   -6.363954   -2.192527
     47          6           0       -2.026148   -3.545701   -0.425152
     48          6           0       -3.379967   -2.863231   -0.204085
     49          6           0       -4.640283   -3.084772   -0.790150
     50          6           0       -4.858468   -4.223930   -1.713386
     51          6           0       -5.845815   -2.173488   -0.746312
     52          6           0       -6.612805   -2.345835    0.572936
     53          6           0       -7.128095   -0.941193    1.091109
     54          6           0       -8.525190   -1.022707    1.690644
     55          6           0       -8.475407   -1.325107    3.184471
     56          6           0       -9.494907    0.151480    1.345787
     57          6           0      -10.142364    0.062860    0.008807
     58          6           0      -11.575383   -0.550351    0.210557
     59          6           0      -12.739774    0.488491    0.070310
     60          6           0      -13.350607    0.584821    1.495044
     61          6           0      -13.864491    0.070960   -0.936084
     62          6           0      -14.550692    1.294548   -1.657524
     63          6           0      -15.913828    1.811183   -1.078786
     64          6           0      -15.781828    3.167598   -0.272853
     65          6           0      -16.996250    3.437615    0.587305
     66          6           0      -15.479443    4.415460   -1.191876
     67          1           0        1.111702    2.147601    0.076810
     68          1           0        6.638431    5.350325   -0.348297
     69          1           0       10.027193    0.025591    0.237497
     70          1           0        1.909419   -2.748577   -0.424688
     71          1           0        0.633018   -0.565027    0.923787
     72          1           0       -0.627669   -0.541465   -0.929248
     73          1           0        0.430031   -1.727638   -1.638242
     74          1           0        0.729655    0.014980   -1.812396
     75          1           0        1.461684   -1.883344    2.419040
     76          1           0        2.895217   -2.839440    2.044997
     77          1           0        0.265703   -3.805817    2.677824
     78          1           0        1.607113   -4.699072    2.170700
     79          1           0        1.054737    5.500522    0.142148
     80          1           0        0.621688    3.881767   -0.743760
     81          1           0        1.380181    5.127308   -1.621799
     82          1           0        2.258241    7.497613   -1.190359
     83          1           0        3.266765    8.521343   -0.213693
     84          1           0        2.255089    7.131097    0.487518
     85          1           0        8.891742    4.722943    0.440429
     86          1           0       10.548149    2.521006   -0.691339
     87          1           0        9.095106    5.695336   -1.655551
     88          1           0        8.513557    4.130366   -2.441557
     89          1           0       10.208188    4.340931   -1.982030
     90          1           0       10.672912    3.945779    1.501940
     91          1           0       11.144147    2.205971    1.480544
     92          1           0        9.637946    3.257408    3.397759
     93          1           0       10.032358    1.551693    3.180494
     94          1           0        8.495330    2.206355    2.586789
     95          1           0       10.029516   -2.347902   -0.782393
     96          1           0        9.476350   -3.898969   -0.147887
     97          1           0       10.183873   -2.851711    1.012062
     98          1           0        4.374169   -4.416473    0.860454
     99          1           0        3.897107   -6.956910   -2.750961
    100          1           0        2.470219   -5.748447   -2.754059
    101          1           0        2.472377   -7.001980   -1.653354
    102          1           0       -2.227829   -4.615903   -0.462832
    103          1           0       -1.522307   -3.207731   -1.330324
    104          1           0       -3.421600   -1.940817    0.375661
    105          1           0       -5.500773   -4.968895   -1.242786
    106          1           0       -3.887344   -4.682735   -1.902556
    107          1           0       -5.257961   -3.884124   -2.668665
    108          1           0       -6.529447   -2.244564   -1.592695
    109          1           0       -5.391940   -1.191932   -0.879808
    110          1           0       -5.982374   -2.826270    1.321319
    111          1           0       -7.376994   -3.106346    0.414239
    112          1           0       -7.100142   -0.268443    0.233613
    113          1           0       -6.508767   -0.528708    1.887042
    114          1           0       -8.963877   -1.957014    1.339391
    115          1           0       -8.854276   -2.341313    3.295793
    116          1           0       -8.973271   -0.624744    3.856000
    117          1           0       -7.455652   -1.511846    3.519672
    118          1           0       -8.986846    1.115868    1.370768
    119          1           0      -10.240584    0.250754    2.134570
    120          1           0       -9.509362   -0.645059   -0.527127
    121          1           0      -10.332471    1.018855   -0.476491
    122          1           0      -11.601949   -1.060115    1.174516
    123          1           0      -11.847911   -1.311526   -0.520235
    124          1           0      -12.414887    1.510153   -0.129177
    125          1           0      -14.264352    1.175369    1.443307
    126          1           0      -12.784068    1.232054    2.164744
    127          1           0      -13.461722   -0.343682    2.055130
    128          1           0      -14.658892   -0.365455   -0.330146
    129          1           0      -13.542201   -0.685616   -1.651368
    130          1           0      -14.790995    1.081792   -2.699178
    131          1           0      -13.807020    2.082310   -1.531036
    132          1           0      -16.340874    0.997728   -0.491948
    133          1           0      -16.664856    2.035343   -1.836085
    134          1           0      -14.957874    2.970636    0.413031
    135          1           0      -17.266542    2.703302    1.346375
    136          1           0      -17.747803    3.623463   -0.179688
    137          1           0      -16.792725    4.385758    1.084367
    138          1           0      -14.412852    4.596482   -1.323455
    139          1           0      -15.944579    5.332727   -0.829204
    140          1           0      -15.904224    4.239529   -2.179671
 ---------------------------------------------------------------------

 SCF Done:  E(RwB97XD) =  -3007.86307560     A.U. after   17 cycles

 Excitation energies and oscillator strengths:

 Excited State   1:      Singlet-A      1.7006 eV  729.05 nm  f=0.3635  <S**2>=0.000
     245 -> 248       -0.19455
     246 -> 247        0.67881
     245 <- 248       -0.11661
 This state for optimization and/or second-order correction.
 Total Energy, E(TD-HF/TD-DFT) =  -3007.80057901
 Copying the excited state density for this state as the 1-particle RhoCI density.

 Excited State   2:      Singlet-A      2.2202 eV  558.43 nm  f=0.0742  <S**2>=0.000
     245 -> 247        0.62106
     246 -> 248        0.32363

 Excited State   3:      Singlet-A      3.4792 eV  356.36 nm  f=0.6521  <S**2>=0.000
     242 -> 247       -0.26915
     245 -> 247       -0.28063
     246 -> 248        0.58216
     245 <- 247        0.10978

 Excited State   4:      Singlet-A      3.5477 eV  349.47 nm  f=0.0202  <S**2>=0.000
     242 -> 247       -0.29040
     243 -> 247        0.61466

 Excited State   5:      Singlet-A      3.6841 eV  336.54 nm  f=0.0054  <S**2>=0.000
     239 -> 247        0.26408
     239 -> 249        0.18737
     239 -> 250        0.15532
     240 -> 247        0.44348
     240 -> 249        0.29610
     240 -> 250        0.23388

 The electronic state is 1-A.
 Alpha  occ. eigenvalues --  -46.94799 -19.31330 -19.28480 -19.25314 -19.24287
 Alpha  occ. eigenvalues --  -19.24173 -19.23791 -14.46731 -14.45799 -14.44254
 Alpha  occ. eigenvalues --  -14.43464 -10.44452 -10.42807 -10.39272 -10.39203
 Alpha  occ. eigenvalues --  -10.36932 -10.35017 -10.34714 -10.34503 -10.34415
 Alpha  occ. eigenvalues --  -10.34404 -10.34250 -10.33784 -10.33202 -10.33109
 Alpha  occ. eigenvalues --  -10.32708 -10.32295 -10.32157 -10.32121 -10.32103
 Alpha  occ. eigenvalues --  -10.31666 -10.31617 -10.31546 -10.31505 -10.31405
 Alpha  occ. eigenvalues --  -10.31402 -10.31384 -10.31157 -10.30994 -10.30933
 Alpha  occ. eigenvalues --  -10.30391 -10.30354 -10.30274 -10.30272 -10.30077
 Alpha  occ. eigenvalues --  -10.30058 -10.29909 -10.29575 -10.29526 -10.29513
 Alpha  occ. eigenvalues --  -10.29457 -10.29334 -10.29116 -10.29106 -10.29063
 Alpha  occ. eigenvalues --  -10.29051 -10.28918 -10.28855 -10.28834 -10.28769
 Alpha  occ. eigenvalues --  -10.28626 -10.28595 -10.28494 -10.28257 -10.28237
 Alpha  occ. eigenvalues --  -10.28130  -3.20788  -1.94383  -1.93923  -1.93746
 Alpha  occ. eigenvalues --   -1.19045  -1.16144  -1.11693  -1.11430  -1.09383
 Alpha  occ. eigenvalues --   -1.08795  -1.06785  -1.06079  -1.05038  -1.03300
 Alpha  occ. eigenvalues --   -0.93846  -0.92893  -0.91842  -0.91815  -0.91334
 Alpha  occ. eigenvalues --   -0.90597  -0.90208  -0.89264  -0.89213  -0.88583
 Alpha  occ. eigenvalues --   -0.88033  -0.87520  -0.86405  -0.85504  -0.85000
 Alpha  occ. eigenvalues --   -0.84653  -0.84150  -0.83267  -0.82774  -0.82223
 Alpha  occ. eigenvalues --   -0.82150  -0.80935  -0.79898  -0.78880  -0.77685
 Alpha  occ. eigenvalues --   -0.77556  -0.77135  -0.76733  -0.76680  -0.76061
 Alpha  occ. eigenvalues --   -0.75320  -0.74075  -0.73218  -0.72439  -0.71078
 Alpha  occ. eigenvalues --   -0.70609  -0.70064  -0.69162  -0.68914  -0.67716
 Alpha  occ. eigenvalues --   -0.67626  -0.66637  -0.66385  -0.66066  -0.65846
 Alpha  occ. eigenvalues --   -0.65750  -0.65189  -0.64435  -0.63074  -0.62313
 Alpha  occ. eigenvalues --   -0.61995  -0.61326  -0.61049  -0.59927  -0.59683
 Alpha  occ. eigenvalues --   -0.59046  -0.58797  -0.58142  -0.57896  -0.57343
 Alpha  occ. eigenvalues --   -0.56927  -0.56770  -0.56302  -0.56134  -0.56015
 Alpha  occ. eigenvalues --   -0.55901  -0.55646  -0.55357  -0.55278  -0.54972
 Alpha  occ. eigenvalues --   -0.54864  -0.54368  -0.54162  -0.54039  -0.53707
 Alpha  occ. eigenvalues --   -0.53451  -0.53283  -0.53132  -0.53072  -0.52742
 Alpha  occ. eigenvalues --   -0.52506  -0.52339  -0.52162  -0.51837  -0.51581
 Alpha  occ. eigenvalues --   -0.51443  -0.51360  -0.51204  -0.50956  -0.50783
 Alpha  occ. eigenvalues --   -0.50653  -0.50479  -0.50180  -0.50140  -0.49848
 Alpha  occ. eigenvalues --   -0.49584  -0.49293  -0.48996  -0.48712  -0.48513
 Alpha  occ. eigenvalues --   -0.48291  -0.47980  -0.47867  -0.47690  -0.47327
 Alpha  occ. eigenvalues --   -0.47232  -0.47188  -0.46905  -0.46687  -0.46477
 Alpha  occ. eigenvalues --   -0.46248  -0.46075  -0.45909  -0.45890  -0.45750
 Alpha  occ. eigenvalues --   -0.45583  -0.45481  -0.45322  -0.45262  -0.45195
 Alpha  occ. eigenvalues --   -0.45106  -0.44453  -0.44379  -0.44299  -0.44053
 Alpha  occ. eigenvalues --   -0.43700  -0.43632  -0.43376  -0.43280  -0.42882
 Alpha  occ. eigenvalues --   -0.42605  -0.42443  -0.42233  -0.41788  -0.41713
 Alpha  occ. eigenvalues --   -0.41689  -0.41354  -0.41269  -0.41029  -0.40323
 Alpha  occ. eigenvalues --   -0.40090  -0.39580  -0.39461  -0.39354  -0.39176
 Alpha  occ. eigenvalues --   -0.39065  -0.38724  -0.38613  -0.38182  -0.37886
 Alpha  occ. eigenvalues --   -0.37662  -0.37372  -0.37327  -0.36872  -0.36048
 Alpha  occ. eigenvalues --   -0.36008  -0.35694  -0.35307  -0.33153  -0.33119
 Alpha  occ. eigenvalues --   -0.32607  -0.32348  -0.31397  -0.31383  -0.25769
 Alpha  occ. eigenvalues --   -0.22551
 Alpha virt. eigenvalues --   -0.06436   0.00231   0.02372   0.04356   0.05691
 Alpha virt. eigenvalues --    0.06247   0.06472   0.07504   0.08413   0.09323
 Alpha virt. eigenvalues --    0.10878   0.11707   0.12077   0.12249   0.12485

 Mulliken charges:
               1
     1  Mg   0.959157
     2  C    0.011885
     3  C   -0.115802
     4  C   -0.071767
     5  C   -0.091783
     6  N   -0.268232
     7  C   -0.035292
     8  C   -0.132092
     9  C   -0.071553
    10  C    0.062060
    11  C    0.011849
    12  C    0.031704
    13  C    0.039448
    14  C    0.210635
    15  O   -0.288795
    16  O   -0.366532
    17  N   -0.420530
    18  C    0.160489
    19  C   -0.187153
    20  C   -0.089552
    21  C    0.145901
    22  C    0.087299
    23  C    0.060741
    24  O   -0.251557
    25  C   -0.004279
    26  N   -0.411498
    27  C    0.041662
    28  C   -0.106379
    29  C   -0.056848
    30  C    0.053431
    31  C    0.041982
    32  C   -0.057145
    33  C   -0.040253
    34  N   -0.481795
    35  C    0.164256
    36  C   -0.192779
    37  C   -0.020867
    38  C    0.158824
    39  C    0.077952
    40  C    0.119544
    41  O   -0.195793
    42  C   -0.102532
    43  C    0.300332
    44  O   -0.248908
    45  O   -0.391238
    46  C    0.148456
    47  C    0.250992
    48  C   -0.111515
    49  C   -0.260899
    50  C    0.034496
    51  C    0.017764
    52  C   -0.018969
    53  C    0.030493
    54  C   -0.202028
    55  C    0.007466
    56  C    0.014709
    57  C    0.008757
    58  C    0.025478
    59  C   -0.202728
    60  C   -0.022113
    61  C    0.032007
    62  C   -0.020495
    63  C   -0.016981
    64  C   -0.213946
    65  C   -0.003401
    66  C   -0.013674
    67  H    0.010860
    68  H    0.016546
    69  H   -0.005017
    70  H    0.068263
    71  H    0.031131
    72  H    0.028119
    73  H    0.047914
    74  H    0.025440
    75  H    0.034048
    76  H    0.036340
    77  H    0.047170
    78  H    0.057037
    79  H    0.062173
    80  H    0.037765
    81  H    0.061511
    82  H    0.050447
    83  H    0.063358
    84  H    0.049724
    85  H    0.039220
    86  H    0.036196
    87  H    0.056164
    88  H    0.049607
    89  H    0.029636
    90  H    0.044591
    91  H    0.027475
    92  H    0.033318
    93  H    0.043556
    94  H    0.047291
    95  H    0.057824
    96  H    0.044808
    97  H    0.045615
    98  H    0.073353
    99  H    0.064747
   100  H    0.050170
   101  H    0.048455
   102  H    0.064981
   103  H    0.054691
   104  H    0.014624
   105  H    0.047849
   106  H    0.022610
   107  H    0.045365
   108  H    0.031816
   109  H    0.036320
   110  H    0.030850
   111  H    0.023201
   112  H    0.020206
   113  H    0.028324
   114  H    0.010443
   115  H    0.017297
   116  H    0.041926
   117  H    0.010009
   118  H    0.007841
   119  H    0.005681
   120  H    0.018273
   121  H    0.024477
   122  H    0.015012
   123  H    0.000766
   124  H    0.020226
   125  H    0.012269
   126  H    0.018452
   127  H    0.037741
   128  H    0.011952
   129  H    0.025932
   130  H    0.027955
   131  H    0.015597
   132  H    0.013093
   133  H    0.012046
   134  H    0.014178
   135  H    0.039733
   136  H    0.021688
   137  H    0.026858
   138  H    0.037845
   139  H    0.030448
   140  H    0.024507
 Sum of Mulliken charges =  -0.00000

 Dipole moment (field-independent basis, Debye):
    X=             -5.3814    Y=              3.6191    Z=              1.9480  Tot=              6.7714
 Quadrupole moment (field-independent basis, Debye-Ang):
   XX=           -390.3283   YY=           -424.1363   ZZ=           -400.9596
   XY=             21.9239   XZ=             14.4733   YZ=             -3.3214

 Normal termination of Gaussian 16 at Thu May  5 01:01:18 2022.
