 Gaussian 16, Revision A.03,
 Gaussian 16:  ES64L-G16RevA.03 25-Dec-2016

 --------------------
 #p ZINDO=(nstates=5)
 --------------------

 -----------------------------
 step_501_chromophore_18 ZINDO
 -----------------------------
 Symbolic Z-matrix:
 Charge =  0 Multiplicity = 1

                         Standard orientation:
 ---------------------------------------------------------------------
 Center     Atomic      Atomic             Coordinates (Angstroms)
 Number     Number       Type             X           Y           Z
 ---------------------------------------------------------------------
      1         12           0        5.606918    1.157726    0.205402
      2          6           0        4.679162   -2.270051    0.267273
      3          6           0        2.147044    1.836182   -0.079178
      4          6           0        6.327595    4.310235   -0.226630
      5          6           0        8.949802    0.197686    0.199005
      6          7           0        3.596633   -0.103185    0.094016
      7          6           0        3.546377   -1.466997    0.247588
      8          6           0        2.129210   -2.006296    0.343089
      9          6           0        1.335817   -0.652213    0.095641
     10          6           0        2.409059    0.446973    0.070778
     11          6           0        0.420604   -0.768913   -1.119670
     12          6           0        1.871928   -2.625602    1.734416
     13          6           0        0.948152   -3.898907    1.833678
     14          6           0       -0.021578   -4.188479    0.663813
     15          8           0        0.113041   -5.074039   -0.208049
     16          8           0       -1.021268   -3.248894    0.591148
     17          7           0        4.405881    2.867671   -0.034137
     18          6           0        3.022043    2.913242   -0.205668
     19          6           0        2.628184    4.322357   -0.362464
     20          6           0        3.851073    5.067359   -0.305774
     21          6           0        4.910278    4.053901   -0.138422
     22          6           0        1.277840    4.740840   -0.607271
     23          6           0        4.050164    6.575758   -0.414629
     24          8           0        5.188245    7.070306   -0.445336
     25          6           0        2.900684    7.499294   -0.309293
     26          7           0        7.391417    2.110078   -0.091107
     27          6           0        7.433605    3.443981   -0.144192
     28          6           0        8.899862    3.952948   -0.331062
     29          6           0        9.718320    2.665014    0.001033
     30          6           0        8.682053    1.585565    0.026459
     31          6           0        9.183106    4.611312   -1.729199
     32          6           0       10.318494    2.916868    1.436851
     33          6           0        9.557366    2.414576    2.711901
     34          7           0        6.648122   -0.620962    0.330600
     35          6           0        8.036530   -0.844733    0.299704
     36          6           0        8.271200   -2.310001    0.316820
     37          6           0        6.998422   -2.864166    0.246410
     38          6           0        6.037180   -1.876481    0.287531
     39          6           0        9.603669   -2.842350    0.089760
     40          6           0        6.329765   -4.148846    0.055261
     41          8           0        6.844614   -5.251855   -0.089662
     42          6           0        4.762996   -3.822422    0.032819
     43          6           0        4.137554   -4.279027   -1.232117
     44          8           0        3.956838   -3.598969   -2.238091
     45          8           0        3.758718   -5.627862   -1.094965
     46          6           0        3.173186   -6.363954   -2.192527
     47          6           0       -2.026148   -3.545701   -0.425152
     48          6           0       -3.379967   -2.863231   -0.204085
     49          6           0       -4.640283   -3.084772   -0.790150
     50          6           0       -4.858468   -4.223930   -1.713386
     51          6           0       -5.845815   -2.173488   -0.746312
     52          6           0       -6.612805   -2.345835    0.572936
     53          6           0       -7.128095   -0.941193    1.091109
     54          6           0       -8.525190   -1.022707    1.690644
     55          6           0       -8.475407   -1.325107    3.184471
     56          6           0       -9.494907    0.151480    1.345787
     57          6           0      -10.142364    0.062860    0.008807
     58          6           0      -11.575383   -0.550351    0.210557
     59          6           0      -12.739774    0.488491    0.070310
     60          6           0      -13.350607    0.584821    1.495044
     61          6           0      -13.864491    0.070960   -0.936084
     62          6           0      -14.550692    1.294548   -1.657524
     63          6           0      -15.913828    1.811183   -1.078786
     64          6           0      -15.781828    3.167598   -0.272853
     65          6           0      -16.996250    3.437615    0.587305
     66          6           0      -15.479443    4.415460   -1.191876
     67          1           0        1.111702    2.147601    0.076810
     68          1           0        6.638431    5.350325   -0.348297
     69          1           0       10.027193    0.025591    0.237497
     70          1           0        1.909419   -2.748577   -0.424688
     71          1           0        0.633018   -0.565027    0.923787
     72          1           0       -0.627669   -0.541465   -0.929248
     73          1           0        0.430031   -1.727638   -1.638242
     74          1           0        0.729655    0.014980   -1.812396
     75          1           0        1.461684   -1.883344    2.419040
     76          1           0        2.895217   -2.839440    2.044997
     77          1           0        0.265703   -3.805817    2.677824
     78          1           0        1.607113   -4.699072    2.170700
     79          1           0        1.054737    5.500522    0.142148
     80          1           0        0.621688    3.881767   -0.743760
     81          1           0        1.380181    5.127308   -1.621799
     82          1           0        2.258241    7.497613   -1.190359
     83          1           0        3.266765    8.521343   -0.213693
     84          1           0        2.255089    7.131097    0.487518
     85          1           0        8.891742    4.722943    0.440429
     86          1           0       10.548149    2.521006   -0.691339
     87          1           0        9.095106    5.695336   -1.655551
     88          1           0        8.513557    4.130366   -2.441557
     89          1           0       10.208188    4.340931   -1.982030
     90          1           0       10.672912    3.945779    1.501940
     91          1           0       11.144147    2.205971    1.480544
     92          1           0        9.637946    3.257408    3.397759
     93          1           0       10.032358    1.551693    3.180494
     94          1           0        8.495330    2.206355    2.586789
     95          1           0       10.029516   -2.347902   -0.782393
     96          1           0        9.476350   -3.898969   -0.147887
     97          1           0       10.183873   -2.851711    1.012062
     98          1           0        4.374169   -4.416473    0.860454
     99          1           0        3.897107   -6.956910   -2.750961
    100          1           0        2.470219   -5.748447   -2.754059
    101          1           0        2.472377   -7.001980   -1.653354
    102          1           0       -2.227829   -4.615903   -0.462832
    103          1           0       -1.522307   -3.207731   -1.330324
    104          1           0       -3.421600   -1.940817    0.375661
    105          1           0       -5.500773   -4.968895   -1.242786
    106          1           0       -3.887344   -4.682735   -1.902556
    107          1           0       -5.257961   -3.884124   -2.668665
    108          1           0       -6.529447   -2.244564   -1.592695
    109          1           0       -5.391940   -1.191932   -0.879808
    110          1           0       -5.982374   -2.826270    1.321319
    111          1           0       -7.376994   -3.106346    0.414239
    112          1           0       -7.100142   -0.268443    0.233613
    113          1           0       -6.508767   -0.528708    1.887042
    114          1           0       -8.963877   -1.957014    1.339391
    115          1           0       -8.854276   -2.341313    3.295793
    116          1           0       -8.973271   -0.624744    3.856000
    117          1           0       -7.455652   -1.511846    3.519672
    118          1           0       -8.986846    1.115868    1.370768
    119          1           0      -10.240584    0.250754    2.134570
    120          1           0       -9.509362   -0.645059   -0.527127
    121          1           0      -10.332471    1.018855   -0.476491
    122          1           0      -11.601949   -1.060115    1.174516
    123          1           0      -11.847911   -1.311526   -0.520235
    124          1           0      -12.414887    1.510153   -0.129177
    125          1           0      -14.264352    1.175369    1.443307
    126          1           0      -12.784068    1.232054    2.164744
    127          1           0      -13.461722   -0.343682    2.055130
    128          1           0      -14.658892   -0.365455   -0.330146
    129          1           0      -13.542201   -0.685616   -1.651368
    130          1           0      -14.790995    1.081792   -2.699178
    131          1           0      -13.807020    2.082310   -1.531036
    132          1           0      -16.340874    0.997728   -0.491948
    133          1           0      -16.664856    2.035343   -1.836085
    134          1           0      -14.957874    2.970636    0.413031
    135          1           0      -17.266542    2.703302    1.346375
    136          1           0      -17.747803    3.623463   -0.179688
    137          1           0      -16.792725    4.385758    1.084367
    138          1           0      -14.412852    4.596482   -1.323455
    139          1           0      -15.944579    5.332727   -0.829204
    140          1           0      -15.904224    4.239529   -2.179671
 ---------------------------------------------------------------------

 SCF Done:  E(RZINDO/S) =  -474.227911815     A.U. after   19 cycles

 Excitation energies and oscillator strengths:

 Excited State   1:      Singlet-A      1.2777 eV  970.40 nm  f=0.5663  <S**2>=0.000
     175 ->178         0.19330
     176 ->177         0.66104
 This state for optimization and/or second-order correction.
 Total Energy, E(CIS/TDA) =  -474.180958705
 Copying the excited state density for this state as the 1-particle RhoCI density.

 Excited State   2:      Singlet-A      1.9352 eV  640.67 nm  f=0.0146  <S**2>=0.000
     175 ->177         0.51625
     176 ->178        -0.45669

 Excited State   3:      Singlet-A      2.9294 eV  423.24 nm  f=0.5832  <S**2>=0.000
     168 ->179        -0.10113
     175 ->177         0.30099
     176 ->178         0.39339
     176 ->179         0.38972
     176 ->181         0.18260

 Excited State   4:      Singlet-A      2.9596 eV  418.92 nm  f=0.0421  <S**2>=0.000
     168 ->177         0.28490
     168 ->179        -0.41410
     168 ->181         0.30227
     168 ->186        -0.18247
     168 ->187         0.13585
     176 ->178        -0.10461

 Excited State   5:      Singlet-A      3.0686 eV  404.05 nm  f=0.1161  <S**2>=0.000
     170 ->177         0.25563
     170 ->178         0.16488
     170 ->179         0.28479
     170 ->181         0.32162
     170 ->183         0.10333
     170 ->186         0.18465
     175 ->177         0.11039
     176 ->178         0.10224
     176 ->179        -0.23899

 The electronic state is 1-A.
 Alpha  occ. eigenvalues --   -1.82629  -1.81333  -1.80611  -1.73614  -1.71139
 Alpha  occ. eigenvalues --   -1.68738  -1.66267  -1.61172  -1.58572  -1.56290
 Alpha  occ. eigenvalues --   -1.55370  -1.50996  -1.48999  -1.47082  -1.45840
 Alpha  occ. eigenvalues --   -1.43959  -1.42862  -1.41690  -1.39911  -1.38625
 Alpha  occ. eigenvalues --   -1.35831  -1.33676  -1.32938  -1.31831  -1.28383
 Alpha  occ. eigenvalues --   -1.28136  -1.24575  -1.22881  -1.20337  -1.17759
 Alpha  occ. eigenvalues --   -1.16934  -1.15241  -1.14320  -1.13885  -1.13133
 Alpha  occ. eigenvalues --   -1.12852  -1.11093  -1.10258  -1.04295  -1.03267
 Alpha  occ. eigenvalues --   -1.02337  -1.00882  -0.98565  -0.96899  -0.96615
 Alpha  occ. eigenvalues --   -0.95971  -0.95100  -0.93520  -0.93120  -0.92557
 Alpha  occ. eigenvalues --   -0.91294  -0.90501  -0.90099  -0.87894  -0.87166
 Alpha  occ. eigenvalues --   -0.85357  -0.84337  -0.82912  -0.81462  -0.80152
 Alpha  occ. eigenvalues --   -0.79447  -0.78369  -0.76988  -0.76131  -0.75647
 Alpha  occ. eigenvalues --   -0.75114  -0.74977  -0.74100  -0.73591  -0.73045
 Alpha  occ. eigenvalues --   -0.72944  -0.72524  -0.71997  -0.71211  -0.70996
 Alpha  occ. eigenvalues --   -0.70615  -0.70069  -0.69536  -0.68622  -0.68048
 Alpha  occ. eigenvalues --   -0.67466  -0.67182  -0.66653  -0.66285  -0.65521
 Alpha  occ. eigenvalues --   -0.65414  -0.64672  -0.64401  -0.64125  -0.63736
 Alpha  occ. eigenvalues --   -0.63215  -0.62756  -0.62537  -0.62478  -0.62317
 Alpha  occ. eigenvalues --   -0.61611  -0.61232  -0.61062  -0.60636  -0.60173
 Alpha  occ. eigenvalues --   -0.60034  -0.59742  -0.58928  -0.58820  -0.58330
 Alpha  occ. eigenvalues --   -0.57708  -0.57532  -0.57295  -0.56944  -0.56104
 Alpha  occ. eigenvalues --   -0.55914  -0.55544  -0.55344  -0.55143  -0.54601
 Alpha  occ. eigenvalues --   -0.54259  -0.53742  -0.53608  -0.53083  -0.52368
 Alpha  occ. eigenvalues --   -0.52050  -0.51776  -0.51372  -0.51223  -0.50992
 Alpha  occ. eigenvalues --   -0.50574  -0.50489  -0.50118  -0.49844  -0.49628
 Alpha  occ. eigenvalues --   -0.49432  -0.49137  -0.49032  -0.48742  -0.48681
 Alpha  occ. eigenvalues --   -0.48559  -0.48104  -0.47953  -0.47792  -0.47465
 Alpha  occ. eigenvalues --   -0.47375  -0.47304  -0.47190  -0.46866  -0.46649
 Alpha  occ. eigenvalues --   -0.46515  -0.46184  -0.45232  -0.45065  -0.44989
 Alpha  occ. eigenvalues --   -0.44759  -0.44728  -0.44445  -0.44133  -0.43972
 Alpha  occ. eigenvalues --   -0.43378  -0.42856  -0.42799  -0.42441  -0.42155
 Alpha  occ. eigenvalues --   -0.42017  -0.41681  -0.40919  -0.39006  -0.38409
 Alpha  occ. eigenvalues --   -0.38213  -0.36752  -0.35305  -0.34844  -0.34593
 Alpha  occ. eigenvalues --   -0.33046  -0.32146  -0.31771  -0.31081  -0.26308
 Alpha  occ. eigenvalues --   -0.21189
 Alpha virt. eigenvalues --   -0.07784  -0.01889  -0.00199   0.00998   0.01335
 Alpha virt. eigenvalues --    0.02940   0.03157   0.03274   0.03605   0.04961
 Alpha virt. eigenvalues --    0.06273   0.06940   0.07386   0.07870   0.08197

 Mulliken charges:
               1
     1  Mg   0.424050
     2  C   -0.029564
     3  C   -0.066945
     4  C   -0.107276
     5  C   -0.075884
     6  N   -0.254970
     7  C    0.101131
     8  C   -0.002743
     9  C    0.005538
    10  C    0.147878
    11  C   -0.051047
    12  C   -0.024327
    13  C    0.003067
    14  C    0.471130
    15  O   -0.522866
    16  O   -0.267408
    17  N   -0.309084
    18  C    0.090509
    19  C    0.038404
    20  C   -0.073796
    21  C    0.179397
    22  C   -0.041734
    23  C    0.327567
    24  O   -0.532482
    25  C   -0.026712
    26  N   -0.282405
    27  C    0.156011
    28  C   -0.009387
    29  C    0.014217
    30  C    0.119404
    31  C   -0.050428
    32  C   -0.035796
    33  C   -0.052785
    34  N   -0.339926
    35  C    0.089635
    36  C    0.012268
    37  C   -0.032700
    38  C    0.086210
    39  C   -0.035914
    40  C    0.329301
    41  O   -0.515503
    42  C    0.055016
    43  C    0.491341
    44  O   -0.517420
    45  O   -0.278270
    46  C    0.075202
    47  C    0.117356
    48  C   -0.118712
    49  C    0.001082
    50  C   -0.045351
    51  C   -0.014423
    52  C   -0.030479
    53  C   -0.029516
    54  C   -0.011047
    55  C   -0.062700
    56  C   -0.026555
    57  C   -0.037121
    58  C   -0.042590
    59  C   -0.013140
    60  C   -0.063801
    61  C   -0.036168
    62  C   -0.044598
    63  C   -0.040015
    64  C   -0.011544
    65  C   -0.058457
    66  C   -0.055510
    67  H    0.024305
    68  H    0.041591
    69  H    0.021602
    70  H    0.051893
    71  H    0.024083
    72  H    0.014719
    73  H    0.033147
    74  H    0.014219
    75  H    0.024129
    76  H    0.026899
    77  H    0.029227
    78  H    0.042218
    79  H    0.047040
    80  H    0.033927
    81  H    0.036497
    82  H    0.033976
    83  H    0.043069
    84  H    0.035175
    85  H    0.033781
    86  H    0.036117
    87  H    0.032756
    88  H    0.031498
    89  H    0.016749
    90  H    0.029971
    91  H    0.008026
    92  H    0.010908
    93  H    0.024795
    94  H    0.030356
    95  H    0.037124
    96  H    0.022736
    97  H    0.034238
    98  H    0.054412
    99  H    0.053822
   100  H    0.049297
   101  H    0.026855
   102  H    0.055348
   103  H    0.053352
   104  H    0.019458
   105  H    0.032088
   106  H    0.015597
   107  H    0.028446
   108  H    0.025632
   109  H    0.018899
   110  H    0.021303
   111  H    0.024152
   112  H    0.017038
   113  H    0.025357
   114  H    0.016208
   115  H    0.011525
   116  H    0.027324
   117  H    0.012365
   118  H    0.006905
   119  H    0.016693
   120  H    0.023404
   121  H    0.028465
   122  H    0.023176
   123  H    0.011070
   124  H    0.029577
   125  H    0.010306
   126  H    0.004816
   127  H    0.026567
   128  H    0.017810
   129  H    0.023388
   130  H    0.020218
   131  H    0.022596
   132  H    0.018344
   133  H    0.016167
   134  H    0.014613
   135  H    0.025853
   136  H    0.020043
   137  H    0.010960
   138  H    0.019091
   139  H    0.020284
   140  H    0.017790
 Sum of Mulliken charges =  -0.00000

 Dipole moment (field-independent basis, Debye):
    X=             -8.0073    Y=              5.0767    Z=              3.6897  Tot=             10.1737
 N-N= 4.268801094216D+03 E-N= 0.000000000000D+00  KE=-9.212341547148D+03
 Leave Link  601 at Thu May  5 01:22:32 2022, MaxMem=  6710886400 cpu:               1.0 elap:               0.1
 (Enter /sw/apps/gaussian-16.0/g16/l9999.exe)
 1\1\GINC-BP1-COMPUTE196\SP\RZINDO CIS\STO-3G\C55H74Mg1N4O6\OF15641\05-
 May-2022\0\\#p ZINDO=(nstates=5)\\step_501_chromophore_18 ZINDO\\0,1\M
 g,0,35.283,49.281,25.051\C,0,35.195,47.666,28.213\C,0,33.707,52.002,26
 .671\C,0,34.967,50.74,22.15\C,0,36.562,46.363,23.656\N,0,34.512,49.784
 ,27.241\C,0,34.714,48.964,28.324\C,0,34.312,49.604,29.642\C,0,33.713,5
 0.964,29.08\C,0,34.022,50.951,27.575\C,0,32.255,51.133,29.497\C,0,35.5
 44,49.803,30.552\C,0,35.369,49.622,32.108\C,0,33.943,49.728,32.698\O,0

 Normal termination of Gaussian 16 at Thu May  5 01:22:32 2022.
