 Gaussian 16, Revision A.03,
 Gaussian 16:  ES64L-G16RevA.03 25-Dec-2016

 ------------------------------
 #p blyp/Def2SVP td=(nstates=5)
 ------------------------------

 ---------------------------------------------------
 step_1051_chromophore_27 TDDFT with blyp functional
 ---------------------------------------------------
 Symbolic Z-matrix:
 Charge =  0 Multiplicity = 1

                         Standard orientation:
 ---------------------------------------------------------------------
 Center     Atomic      Atomic             Coordinates (Angstroms)
 Number     Number       Type             X           Y           Z
 ---------------------------------------------------------------------
      1         12           0       -4.621733    0.781913    0.149164
      2          6           0       -3.754879   -2.536089    0.426355
      3          6           0       -1.306471    1.525495    0.110964
      4          6           0       -5.746002    4.026283    0.307866
      5          6           0       -8.053372   -0.306453    0.377521
      6          7           0       -2.743142   -0.351746    0.089212
      7          6           0       -2.645557   -1.703982    0.191335
      8          6           0       -1.229157   -2.172803   -0.063320
      9          6           0       -0.410096   -0.912233    0.076224
     10          6           0       -1.538511    0.155909    0.252083
     11          6           0        0.629563   -0.782212    1.235796
     12          6           0       -1.045042   -2.938116   -1.517154
     13          6           0        0.034486   -4.150774   -1.421767
     14          6           0        1.401965   -4.064275   -2.104139
     15          8           0        1.613945   -3.917322   -3.279057
     16          8           0        2.458797   -4.292165   -1.179203
     17          7           0       -3.625038    2.551383    0.122456
     18          6           0       -2.212542    2.627485    0.037079
     19          6           0       -1.959371    4.006322   -0.018812
     20          6           0       -3.186387    4.766137    0.044454
     21          6           0       -4.254089    3.776312    0.139235
     22          6           0       -0.518954    4.550933   -0.037314
     23          6           0       -3.347258    6.264132    0.030903
     24          8           0       -4.435319    6.805136    0.085746
     25          6           0       -2.079228    7.145673    0.151176
     26          7           0       -6.659128    1.668338    0.480654
     27          6           0       -6.757042    3.074054    0.361685
     28          6           0       -8.227415    3.574650    0.312481
     29          6           0       -8.854960    2.156511   -0.112825
     30          6           0       -7.836110    1.119699    0.243172
     31          6           0       -8.825761    4.360225    1.533523
     32          6           0       -9.280434    2.070668   -1.585585
     33          6           0      -10.553183    2.880207   -2.068657
     34          7           0       -5.745113   -0.996074    0.426630
     35          6           0       -7.062770   -1.246404    0.532843
     36          6           0       -7.294728   -2.705708    0.647121
     37          6           0       -6.017662   -3.259864    0.564985
     38          6           0       -5.116450   -2.203219    0.543722
     39          6           0       -8.585792   -3.437518    0.712953
     40          6           0       -5.201174   -4.522736    0.661999
     41          8           0       -5.538353   -5.648670    0.919178
     42          6           0       -3.729107   -4.075640    0.490138
     43          6           0       -2.861195   -4.673617    1.544252
     44          8           0       -2.754684   -4.286213    2.722745
     45          8           0       -2.264850   -5.831074    1.063344
     46          6           0       -1.338832   -6.426287    2.006728
     47          6           0        3.820050   -4.218120   -1.654405
     48          6           0        4.191743   -2.778238   -1.945982
     49          6           0        5.355965   -2.171062   -1.992674
     50          6           0        6.668289   -2.944239   -1.965161
     51          6           0        5.445833   -0.675104   -2.111277
     52          6           0        6.070827   -0.259384   -3.386556
     53          6           0        7.548109    0.110786   -3.275608
     54          6           0        7.695961    1.522716   -3.712084
     55          6           0        7.529673    1.774627   -5.237589
     56          6           0        9.138047    1.960780   -3.079203
     57          6           0        8.870376    2.668914   -1.815697
     58          6           0       10.157583    2.544324   -0.880525
     59          6           0        9.961337    1.649981    0.355802
     60          6           0        9.943408    0.136300   -0.105285
     61          6           0       11.136019    1.879091    1.404052
     62          6           0       10.545953    2.100756    2.886367
     63          6           0       10.504986    0.806544    3.676884
     64          6           0       10.262931    1.093601    5.147106
     65          6           0       10.844969   -0.045747    6.042365
     66          6           0        8.746179    1.115112    5.417374
     67          1           0       -0.267257    1.808535   -0.066646
     68          1           0       -6.051670    5.072903    0.252185
     69          1           0       -9.106538   -0.587147    0.449828
     70          1           0       -1.056487   -2.862919    0.762011
     71          1           0        0.160388   -0.570271   -0.787126
     72          1           0        0.178781   -0.494560    2.186299
     73          1           0        1.369239   -0.021527    0.984415
     74          1           0        1.173628   -1.692593    1.487446
     75          1           0       -0.597939   -2.205253   -2.189245
     76          1           0       -1.995535   -3.243710   -1.955676
     77          1           0       -0.385808   -5.020966   -1.926629
     78          1           0        0.245739   -4.474504   -0.402474
     79          1           0       -0.234046    5.198312    0.792651
     80          1           0       -0.500094    5.133607   -0.958048
     81          1           0        0.235845    3.766106   -0.076345
     82          1           0       -2.294997    8.175651    0.434939
     83          1           0       -1.453948    6.982292   -0.726169
     84          1           0       -1.447493    6.765169    0.953269
     85          1           0       -8.246411    4.227096   -0.561011
     86          1           0       -9.842537    1.939260    0.292810
     87          1           0       -9.336575    3.594031    2.117551
     88          1           0       -9.420696    5.193633    1.161385
     89          1           0       -7.976348    4.686413    2.132359
     90          1           0       -9.634654    1.072725   -1.842436
     91          1           0       -8.415692    2.471759   -2.114198
     92          1           0      -11.015895    3.559830   -1.353429
     93          1           0      -11.362504    2.260014   -2.451336
     94          1           0      -10.159854    3.399407   -2.942030
     95          1           0       -8.416969   -4.470002    0.406723
     96          1           0       -9.289041   -3.049159   -0.023148
     97          1           0       -8.978830   -3.310316    1.721279
     98          1           0       -3.315312   -4.368185   -0.474224
     99          1           0       -0.602943   -6.939125    1.387039
    100          1           0       -1.970207   -7.112743    2.569751
    101          1           0       -0.859427   -5.778837    2.740147
    102          1           0        3.856842   -4.850490   -2.541797
    103          1           0        4.487655   -4.563599   -0.864584
    104          1           0        3.308495   -2.157608   -2.098139
    105          1           0        6.579963   -3.875418   -1.405879
    106          1           0        7.317487   -2.306544   -1.364814
    107          1           0        7.088835   -3.183927   -2.941956
    108          1           0        6.094679   -0.246864   -1.348014
    109          1           0        4.492823   -0.170458   -1.950593
    110          1           0        5.454889    0.536623   -3.804596
    111          1           0        6.014152   -1.128425   -4.041392
    112          1           0        8.112013   -0.495888   -3.983598
    113          1           0        8.034416   -0.099846   -2.323173
    114          1           0        6.934423    2.098815   -3.185970
    115          1           0        7.464481    0.844479   -5.803097
    116          1           0        8.238977    2.488875   -5.655025
    117          1           0        6.638886    2.340409   -5.511599
    118          1           0        9.766343    2.438134   -3.830620
    119          1           0        9.791457    1.128883   -2.818337
    120          1           0        8.072189    2.144538   -1.290720
    121          1           0        8.658952    3.732546   -1.927730
    122          1           0       10.316553    3.596704   -0.646249
    123          1           0       11.054078    2.310036   -1.453688
    124          1           0        8.983329    1.835482    0.801797
    125          1           0       10.182348   -0.002773   -1.159675
    126          1           0        8.920013   -0.231240   -0.037034
    127          1           0       10.562910   -0.527849    0.497399
    128          1           0       11.838352    2.679953    1.170897
    129          1           0       11.779525    1.003265    1.490396
    130          1           0        9.506345    2.328957    2.647576
    131          1           0       11.187470    2.885505    3.287319
    132          1           0       11.405045    0.206083    3.542990
    133          1           0        9.766613    0.100965    3.296349
    134          1           0       10.820242    1.995841    5.399967
    135          1           0       10.678762    0.053504    7.114702
    136          1           0       11.930069    0.036987    5.969737
    137          1           0       10.498321   -1.036265    5.747678
    138          1           0        8.222641    1.192320    4.463919
    139          1           0        8.623586    1.994754    6.049306
    140          1           0        8.371051    0.268376    5.992133
 ---------------------------------------------------------------------

 SCF Done:  E(RB-LYP) =  -3007.35808827     A.U. after   20 cycles

 Excitation energies and oscillator strengths:

 Excited State   1:      Singlet-A      1.7544 eV  706.71 nm  f=0.2495  <S**2>=0.000
     244 -> 247        0.19127
     245 -> 248        0.17299
     246 -> 247        0.66826
     246 <- 247       -0.15297
 This state for optimization and/or second-order correction.
 Total Energy, E(TD-HF/TD-DFT) =  -3007.29361558
 Copying the excited state density for this state as the 1-particle RhoCI density.

 Excited State   2:      Singlet-A      1.7755 eV  698.29 nm  f=0.0262  <S**2>=0.000
     244 -> 247        0.68025
     246 -> 247       -0.18809

 Excited State   3:      Singlet-A      2.0408 eV  607.52 nm  f=0.0766  <S**2>=0.000
     245 -> 247        0.63960
     246 -> 248       -0.27312

 Excited State   4:      Singlet-A      2.3051 eV  537.87 nm  f=0.0012  <S**2>=0.000
     242 -> 247        0.59493
     243 -> 247       -0.37141

 Excited State   5:      Singlet-A      2.3264 eV  532.94 nm  f=0.0064  <S**2>=0.000
     242 -> 247        0.36806
     243 -> 247        0.58955

 The electronic state is 1-A.
 Alpha  occ. eigenvalues --  -46.27510 -18.82661 -18.81321 -18.77579 -18.77215
 Alpha  occ. eigenvalues --  -18.77179 -18.74979 -14.03537 -14.03064 -14.00979
 Alpha  occ. eigenvalues --  -14.00955 -10.04655 -10.04425 -10.01113  -9.99308
 Alpha  occ. eigenvalues --   -9.97986  -9.97509  -9.96906  -9.96853  -9.96328
 Alpha  occ. eigenvalues --   -9.96230  -9.96146  -9.95721  -9.95684  -9.95327
 Alpha  occ. eigenvalues --   -9.95047  -9.94805  -9.94783  -9.94664  -9.94568
 Alpha  occ. eigenvalues --   -9.94079  -9.93994  -9.93900  -9.93679  -9.93208
 Alpha  occ. eigenvalues --   -9.93130  -9.93115  -9.93038  -9.92874  -9.92843
 Alpha  occ. eigenvalues --   -9.92693  -9.92647  -9.92557  -9.92553  -9.92395
 Alpha  occ. eigenvalues --   -9.92264  -9.92140  -9.91976  -9.91961  -9.91801
 Alpha  occ. eigenvalues --   -9.91704  -9.91433  -9.91401  -9.91345  -9.91198
 Alpha  occ. eigenvalues --   -9.91193  -9.91183  -9.91129  -9.90992  -9.90949
 Alpha  occ. eigenvalues --   -9.90760  -9.90723  -9.90717  -9.90696  -9.90696
 Alpha  occ. eigenvalues --   -9.90664  -2.92034  -1.72474  -1.71944  -1.71712
 Alpha  occ. eigenvalues --   -0.97711  -0.97515  -0.93529  -0.91225  -0.90458
 Alpha  occ. eigenvalues --   -0.89403  -0.87991  -0.86838  -0.85671  -0.83837
 Alpha  occ. eigenvalues --   -0.76133  -0.74686  -0.73084  -0.72674  -0.72455
 Alpha  occ. eigenvalues --   -0.71867  -0.71445  -0.70977  -0.70875  -0.70348
 Alpha  occ. eigenvalues --   -0.69399  -0.69123  -0.68192  -0.67995  -0.66854
 Alpha  occ. eigenvalues --   -0.66362  -0.65717  -0.64866  -0.64769  -0.64058
 Alpha  occ. eigenvalues --   -0.63763  -0.62760  -0.62243  -0.61768  -0.61080
 Alpha  occ. eigenvalues --   -0.60995  -0.60078  -0.59872  -0.59768  -0.59193
 Alpha  occ. eigenvalues --   -0.58518  -0.57919  -0.56935  -0.56492  -0.54440
 Alpha  occ. eigenvalues --   -0.54248  -0.53657  -0.52710  -0.52096  -0.51498
 Alpha  occ. eigenvalues --   -0.51082  -0.50941  -0.50625  -0.50480  -0.50283
 Alpha  occ. eigenvalues --   -0.49525  -0.49435  -0.48780  -0.48588  -0.46484
 Alpha  occ. eigenvalues --   -0.46337  -0.46126  -0.45533  -0.45319  -0.45097
 Alpha  occ. eigenvalues --   -0.44364  -0.44139  -0.43321  -0.42997  -0.42729
 Alpha  occ. eigenvalues --   -0.42135  -0.42048  -0.41892  -0.41525  -0.41381
 Alpha  occ. eigenvalues --   -0.41278  -0.40979  -0.40597  -0.40457  -0.40075
 Alpha  occ. eigenvalues --   -0.39993  -0.39828  -0.39693  -0.39484  -0.39391
 Alpha  occ. eigenvalues --   -0.38973  -0.38913  -0.38589  -0.38352  -0.38268
 Alpha  occ. eigenvalues --   -0.37879  -0.37788  -0.37667  -0.37447  -0.37353
 Alpha  occ. eigenvalues --   -0.37058  -0.36996  -0.36806  -0.36686  -0.36621
 Alpha  occ. eigenvalues --   -0.36423  -0.36186  -0.35869  -0.35673  -0.35611
 Alpha  occ. eigenvalues --   -0.35290  -0.35235  -0.34986  -0.34906  -0.34861
 Alpha  occ. eigenvalues --   -0.34770  -0.34500  -0.34368  -0.34125  -0.34045
 Alpha  occ. eigenvalues --   -0.33914  -0.33689  -0.33653  -0.33529  -0.33380
 Alpha  occ. eigenvalues --   -0.33301  -0.33258  -0.33088  -0.32977  -0.32456
 Alpha  occ. eigenvalues --   -0.32286  -0.32231  -0.32010  -0.31849  -0.31635
 Alpha  occ. eigenvalues --   -0.31400  -0.31377  -0.31227  -0.30940  -0.30855
 Alpha  occ. eigenvalues --   -0.30627  -0.30512  -0.30192  -0.30109  -0.30057
 Alpha  occ. eigenvalues --   -0.29792  -0.29638  -0.29610  -0.29346  -0.29123
 Alpha  occ. eigenvalues --   -0.28922  -0.28697  -0.28524  -0.28315  -0.28044
 Alpha  occ. eigenvalues --   -0.27901  -0.27776  -0.27496  -0.26700  -0.26451
 Alpha  occ. eigenvalues --   -0.26404  -0.26269  -0.26268  -0.25474  -0.25095
 Alpha  occ. eigenvalues --   -0.25067  -0.24855  -0.24391  -0.23872  -0.23318
 Alpha  occ. eigenvalues --   -0.22535  -0.22369  -0.22281  -0.21982  -0.21090
 Alpha  occ. eigenvalues --   -0.20424  -0.20035  -0.19780  -0.18177  -0.17590
 Alpha  occ. eigenvalues --   -0.15753
 Alpha virt. eigenvalues --   -0.11708  -0.06899  -0.06366  -0.04593  -0.03756
 Alpha virt. eigenvalues --   -0.03507  -0.02552  -0.01367  -0.00954  -0.00273
 Alpha virt. eigenvalues --    0.00561   0.01384   0.01771   0.02153   0.02633

 Mulliken charges:
               1
     1  Mg   0.680509
     2  C    0.029924
     3  C   -0.079484
     4  C   -0.014743
     5  C   -0.135653
     6  N   -0.191506
     7  C   -0.121774
     8  C    0.109578
     9  C   -0.032493
    10  C    0.050486
    11  C    0.111086
    12  C    0.122140
    13  C    0.126012
    14  C    0.048644
    15  O   -0.164063
    16  O   -0.303262
    17  N   -0.366230
    18  C    0.157417
    19  C   -0.133068
    20  C    0.024131
    21  C    0.071715
    22  C    0.158431
    23  C   -0.079890
    24  O   -0.158351
    25  C    0.134997
    26  N   -0.187461
    27  C    0.027589
    28  C   -0.001358
    29  C    0.029088
    30  C    0.038515
    31  C    0.168621
    32  C    0.043917
    33  C    0.058877
    34  N   -0.232026
    35  C    0.171135
    36  C   -0.212474
    37  C    0.046097
    38  C    0.047939
    39  C    0.189019
    40  C    0.003171
    41  O   -0.093875
    42  C    0.084696
    43  C    0.103627
    44  O   -0.203425
    45  O   -0.272248
    46  C    0.216946
    47  C    0.354836
    48  C   -0.144107
    49  C   -0.147147
    50  C    0.142061
    51  C    0.172055
    52  C    0.083393
    53  C    0.097469
    54  C   -0.082775
    55  C    0.127558
    56  C    0.097874
    57  C    0.088229
    58  C    0.066957
    59  C   -0.046968
    60  C    0.083065
    61  C    0.107045
    62  C    0.079675
    63  C    0.072972
    64  C   -0.071310
    65  C    0.087372
    66  C    0.123134
    67  H   -0.063907
    68  H   -0.030893
    69  H   -0.057083
    70  H   -0.022260
    71  H   -0.011451
    72  H   -0.007555
    73  H   -0.007309
    74  H   -0.004913
    75  H   -0.006313
    76  H    0.002078
    77  H    0.010537
    78  H   -0.006502
    79  H    0.005841
    80  H   -0.001009
    81  H   -0.024828
    82  H   -0.006193
    83  H   -0.007773
    84  H   -0.008976
    85  H   -0.024492
    86  H   -0.056337
    87  H   -0.007078
    88  H    0.010322
    89  H   -0.004168
    90  H   -0.012624
    91  H   -0.014737
    92  H   -0.005234
    93  H   -0.010018
    94  H   -0.005828
    95  H    0.007069
    96  H   -0.007211
    97  H    0.013792
    98  H   -0.006380
    99  H    0.016427
   100  H    0.014603
   101  H    0.021792
   102  H   -0.001790
   103  H   -0.000507
   104  H   -0.038563
   105  H   -0.023194
   106  H   -0.011161
   107  H    0.017444
   108  H   -0.041139
   109  H   -0.052671
   110  H   -0.024111
   111  H   -0.030628
   112  H   -0.044976
   113  H   -0.041533
   114  H   -0.034269
   115  H   -0.012997
   116  H   -0.021615
   117  H   -0.029746
   118  H   -0.048742
   119  H   -0.043405
   120  H   -0.032692
   121  H   -0.023449
   122  H   -0.048792
   123  H   -0.030357
   124  H   -0.026465
   125  H   -0.007483
   126  H   -0.012272
   127  H   -0.014221
   128  H   -0.037401
   129  H   -0.042950
   130  H   -0.024845
   131  H   -0.021315
   132  H   -0.049937
   133  H   -0.044322
   134  H   -0.033491
   135  H   -0.022616
   136  H   -0.026932
   137  H   -0.013465
   138  H   -0.016519
   139  H   -0.016769
   140  H   -0.013803
 Sum of Mulliken charges =  -0.00000

 Dipole moment (field-independent basis, Debye):
    X=              2.3644    Y=              0.3256    Z=             -1.4164  Tot=              2.7754
 Quadrupole moment (field-independent basis, Debye-Ang):
   XX=           -363.4173   YY=           -434.8518   ZZ=           -419.0588
   XY=             -4.7258   XZ=             14.2518   YZ=              0.0205

 Normal termination of Gaussian 16 at Tue May  3 23:20:44 2022.
