 Gaussian 16, Revision A.03,
 Gaussian 16:  ES64L-G16RevA.03 25-Dec-2016

 -----------------------------------
 #p cam-b3lyp/Def2SVP td=(nstates=5)
 -----------------------------------

 --------------------------------------------------------
 step_1051_chromophore_27 TDDFT with cam-b3lyp functional
 --------------------------------------------------------
 Symbolic Z-matrix:
 Charge =  0 Multiplicity = 1

                         Standard orientation:
 ---------------------------------------------------------------------
 Center     Atomic      Atomic             Coordinates (Angstroms)
 Number     Number       Type             X           Y           Z
 ---------------------------------------------------------------------
      1         12           0       -4.621733    0.781913    0.149164
      2          6           0       -3.754879   -2.536089    0.426355
      3          6           0       -1.306471    1.525495    0.110964
      4          6           0       -5.746002    4.026283    0.307866
      5          6           0       -8.053372   -0.306453    0.377521
      6          7           0       -2.743142   -0.351746    0.089212
      7          6           0       -2.645557   -1.703982    0.191335
      8          6           0       -1.229157   -2.172803   -0.063320
      9          6           0       -0.410096   -0.912233    0.076224
     10          6           0       -1.538511    0.155909    0.252083
     11          6           0        0.629563   -0.782212    1.235796
     12          6           0       -1.045042   -2.938116   -1.517154
     13          6           0        0.034486   -4.150774   -1.421767
     14          6           0        1.401965   -4.064275   -2.104139
     15          8           0        1.613945   -3.917322   -3.279057
     16          8           0        2.458797   -4.292165   -1.179203
     17          7           0       -3.625038    2.551383    0.122456
     18          6           0       -2.212542    2.627485    0.037079
     19          6           0       -1.959371    4.006322   -0.018812
     20          6           0       -3.186387    4.766137    0.044454
     21          6           0       -4.254089    3.776312    0.139235
     22          6           0       -0.518954    4.550933   -0.037314
     23          6           0       -3.347258    6.264132    0.030903
     24          8           0       -4.435319    6.805136    0.085746
     25          6           0       -2.079228    7.145673    0.151176
     26          7           0       -6.659128    1.668338    0.480654
     27          6           0       -6.757042    3.074054    0.361685
     28          6           0       -8.227415    3.574650    0.312481
     29          6           0       -8.854960    2.156511   -0.112825
     30          6           0       -7.836110    1.119699    0.243172
     31          6           0       -8.825761    4.360225    1.533523
     32          6           0       -9.280434    2.070668   -1.585585
     33          6           0      -10.553183    2.880207   -2.068657
     34          7           0       -5.745113   -0.996074    0.426630
     35          6           0       -7.062770   -1.246404    0.532843
     36          6           0       -7.294728   -2.705708    0.647121
     37          6           0       -6.017662   -3.259864    0.564985
     38          6           0       -5.116450   -2.203219    0.543722
     39          6           0       -8.585792   -3.437518    0.712953
     40          6           0       -5.201174   -4.522736    0.661999
     41          8           0       -5.538353   -5.648670    0.919178
     42          6           0       -3.729107   -4.075640    0.490138
     43          6           0       -2.861195   -4.673617    1.544252
     44          8           0       -2.754684   -4.286213    2.722745
     45          8           0       -2.264850   -5.831074    1.063344
     46          6           0       -1.338832   -6.426287    2.006728
     47          6           0        3.820050   -4.218120   -1.654405
     48          6           0        4.191743   -2.778238   -1.945982
     49          6           0        5.355965   -2.171062   -1.992674
     50          6           0        6.668289   -2.944239   -1.965161
     51          6           0        5.445833   -0.675104   -2.111277
     52          6           0        6.070827   -0.259384   -3.386556
     53          6           0        7.548109    0.110786   -3.275608
     54          6           0        7.695961    1.522716   -3.712084
     55          6           0        7.529673    1.774627   -5.237589
     56          6           0        9.138047    1.960780   -3.079203
     57          6           0        8.870376    2.668914   -1.815697
     58          6           0       10.157583    2.544324   -0.880525
     59          6           0        9.961337    1.649981    0.355802
     60          6           0        9.943408    0.136300   -0.105285
     61          6           0       11.136019    1.879091    1.404052
     62          6           0       10.545953    2.100756    2.886367
     63          6           0       10.504986    0.806544    3.676884
     64          6           0       10.262931    1.093601    5.147106
     65          6           0       10.844969   -0.045747    6.042365
     66          6           0        8.746179    1.115112    5.417374
     67          1           0       -0.267257    1.808535   -0.066646
     68          1           0       -6.051670    5.072903    0.252185
     69          1           0       -9.106538   -0.587147    0.449828
     70          1           0       -1.056487   -2.862919    0.762011
     71          1           0        0.160388   -0.570271   -0.787126
     72          1           0        0.178781   -0.494560    2.186299
     73          1           0        1.369239   -0.021527    0.984415
     74          1           0        1.173628   -1.692593    1.487446
     75          1           0       -0.597939   -2.205253   -2.189245
     76          1           0       -1.995535   -3.243710   -1.955676
     77          1           0       -0.385808   -5.020966   -1.926629
     78          1           0        0.245739   -4.474504   -0.402474
     79          1           0       -0.234046    5.198312    0.792651
     80          1           0       -0.500094    5.133607   -0.958048
     81          1           0        0.235845    3.766106   -0.076345
     82          1           0       -2.294997    8.175651    0.434939
     83          1           0       -1.453948    6.982292   -0.726169
     84          1           0       -1.447493    6.765169    0.953269
     85          1           0       -8.246411    4.227096   -0.561011
     86          1           0       -9.842537    1.939260    0.292810
     87          1           0       -9.336575    3.594031    2.117551
     88          1           0       -9.420696    5.193633    1.161385
     89          1           0       -7.976348    4.686413    2.132359
     90          1           0       -9.634654    1.072725   -1.842436
     91          1           0       -8.415692    2.471759   -2.114198
     92          1           0      -11.015895    3.559830   -1.353429
     93          1           0      -11.362504    2.260014   -2.451336
     94          1           0      -10.159854    3.399407   -2.942030
     95          1           0       -8.416969   -4.470002    0.406723
     96          1           0       -9.289041   -3.049159   -0.023148
     97          1           0       -8.978830   -3.310316    1.721279
     98          1           0       -3.315312   -4.368185   -0.474224
     99          1           0       -0.602943   -6.939125    1.387039
    100          1           0       -1.970207   -7.112743    2.569751
    101          1           0       -0.859427   -5.778837    2.740147
    102          1           0        3.856842   -4.850490   -2.541797
    103          1           0        4.487655   -4.563599   -0.864584
    104          1           0        3.308495   -2.157608   -2.098139
    105          1           0        6.579963   -3.875418   -1.405879
    106          1           0        7.317487   -2.306544   -1.364814
    107          1           0        7.088835   -3.183927   -2.941956
    108          1           0        6.094679   -0.246864   -1.348014
    109          1           0        4.492823   -0.170458   -1.950593
    110          1           0        5.454889    0.536623   -3.804596
    111          1           0        6.014152   -1.128425   -4.041392
    112          1           0        8.112013   -0.495888   -3.983598
    113          1           0        8.034416   -0.099846   -2.323173
    114          1           0        6.934423    2.098815   -3.185970
    115          1           0        7.464481    0.844479   -5.803097
    116          1           0        8.238977    2.488875   -5.655025
    117          1           0        6.638886    2.340409   -5.511599
    118          1           0        9.766343    2.438134   -3.830620
    119          1           0        9.791457    1.128883   -2.818337
    120          1           0        8.072189    2.144538   -1.290720
    121          1           0        8.658952    3.732546   -1.927730
    122          1           0       10.316553    3.596704   -0.646249
    123          1           0       11.054078    2.310036   -1.453688
    124          1           0        8.983329    1.835482    0.801797
    125          1           0       10.182348   -0.002773   -1.159675
    126          1           0        8.920013   -0.231240   -0.037034
    127          1           0       10.562910   -0.527849    0.497399
    128          1           0       11.838352    2.679953    1.170897
    129          1           0       11.779525    1.003265    1.490396
    130          1           0        9.506345    2.328957    2.647576
    131          1           0       11.187470    2.885505    3.287319
    132          1           0       11.405045    0.206083    3.542990
    133          1           0        9.766613    0.100965    3.296349
    134          1           0       10.820242    1.995841    5.399967
    135          1           0       10.678762    0.053504    7.114702
    136          1           0       11.930069    0.036987    5.969737
    137          1           0       10.498321   -1.036265    5.747678
    138          1           0        8.222641    1.192320    4.463919
    139          1           0        8.623586    1.994754    6.049306
    140          1           0        8.371051    0.268376    5.992133
 ---------------------------------------------------------------------

 SCF Done:  E(RCAM-B3LYP) =  -3007.15111738     A.U. after   16 cycles

 Excitation energies and oscillator strengths:

 Excited State   1:      Singlet-A      1.7097 eV  725.17 nm  f=0.3540  <S**2>=0.000
     245 -> 248       -0.15827
     246 -> 247        0.69020
     245 <- 248       -0.10059
 This state for optimization and/or second-order correction.
 Total Energy, E(TD-HF/TD-DFT) =  -3007.08828625
 Copying the excited state density for this state as the 1-particle RhoCI density.

 Excited State   2:      Singlet-A      2.2823 eV  543.24 nm  f=0.1091  <S**2>=0.000
     245 -> 247        0.63043
     246 -> 248        0.30543

 Excited State   3:      Singlet-A      3.2759 eV  378.47 nm  f=0.0077  <S**2>=0.000
     241 -> 247       -0.17317
     244 -> 247        0.67179

 Excited State   4:      Singlet-A      3.4548 eV  358.87 nm  f=0.3068  <S**2>=0.000
     240 -> 247       -0.18175
     241 -> 247       -0.42766
     244 -> 247       -0.12223
     245 -> 247       -0.17466
     246 -> 248        0.46318

 Excited State   5:      Singlet-A      3.6121 eV  343.25 nm  f=0.5343  <S**2>=0.000
     238 -> 247        0.15917
     238 -> 249       -0.13008
     240 -> 247        0.20924
     241 -> 247        0.37193
     244 -> 247        0.10608
     245 -> 247       -0.25350
     246 -> 248        0.40960

 The electronic state is 1-A.
 Alpha  occ. eigenvalues --  -46.89048 -19.25837 -19.24196 -19.21048 -19.20742
 Alpha  occ. eigenvalues --  -19.20638 -19.17645 -14.42395 -14.41988 -14.39624
 Alpha  occ. eigenvalues --  -14.39058 -10.40258 -10.40136 -10.36991 -10.34001
 Alpha  occ. eigenvalues --  -10.31988 -10.31873 -10.31861 -10.31606 -10.30720
 Alpha  occ. eigenvalues --  -10.30303 -10.30213 -10.30156 -10.29933 -10.29792
 Alpha  occ. eigenvalues --  -10.29434 -10.29295 -10.29289 -10.28952 -10.28741
 Alpha  occ. eigenvalues --  -10.28545 -10.28377 -10.27914 -10.27720 -10.27203
 Alpha  occ. eigenvalues --  -10.27008 -10.27001 -10.26964 -10.26940 -10.26921
 Alpha  occ. eigenvalues --  -10.26609 -10.26586 -10.26312 -10.26161 -10.26110
 Alpha  occ. eigenvalues --  -10.26084 -10.26064 -10.25883 -10.25690 -10.25485
 Alpha  occ. eigenvalues --  -10.25450 -10.25082 -10.25060 -10.25030 -10.24927
 Alpha  occ. eigenvalues --  -10.24920 -10.24850 -10.24820 -10.24703 -10.24618
 Alpha  occ. eigenvalues --  -10.24380 -10.24359 -10.24329 -10.24278 -10.24228
 Alpha  occ. eigenvalues --  -10.24223  -3.17474  -1.92392  -1.91949  -1.91749
 Alpha  occ. eigenvalues --   -1.16475  -1.16099  -1.12582  -1.09133  -1.08374
 Alpha  occ. eigenvalues --   -1.07620  -1.05851  -1.04915  -1.03468  -1.00734
 Alpha  occ. eigenvalues --   -0.93707  -0.91615  -0.89881  -0.89455  -0.89174
 Alpha  occ. eigenvalues --   -0.88574  -0.88219  -0.87649  -0.87540  -0.86994
 Alpha  occ. eigenvalues --   -0.85730  -0.85300  -0.84496  -0.84364  -0.82876
 Alpha  occ. eigenvalues --   -0.82405  -0.81799  -0.80670  -0.80613  -0.79800
 Alpha  occ. eigenvalues --   -0.79543  -0.78511  -0.77803  -0.77191  -0.76595
 Alpha  occ. eigenvalues --   -0.76409  -0.75341  -0.75152  -0.75057  -0.74348
 Alpha  occ. eigenvalues --   -0.73661  -0.73045  -0.71832  -0.71361  -0.69176
 Alpha  occ. eigenvalues --   -0.68988  -0.68192  -0.66971  -0.66427  -0.65586
 Alpha  occ. eigenvalues --   -0.65247  -0.65069  -0.64629  -0.64551  -0.64294
 Alpha  occ. eigenvalues --   -0.63446  -0.63351  -0.62555  -0.62487  -0.60283
 Alpha  occ. eigenvalues --   -0.60007  -0.59906  -0.59093  -0.58837  -0.58574
 Alpha  occ. eigenvalues --   -0.57863  -0.57658  -0.56576  -0.56299  -0.56041
 Alpha  occ. eigenvalues --   -0.55115  -0.54910  -0.54890  -0.54634  -0.54404
 Alpha  occ. eigenvalues --   -0.54112  -0.53877  -0.53732  -0.53258  -0.52877
 Alpha  occ. eigenvalues --   -0.52772  -0.52563  -0.52430  -0.52196  -0.51841
 Alpha  occ. eigenvalues --   -0.51674  -0.51239  -0.51121  -0.50925  -0.50886
 Alpha  occ. eigenvalues --   -0.50772  -0.50485  -0.50104  -0.49914  -0.49672
 Alpha  occ. eigenvalues --   -0.49316  -0.49285  -0.49006  -0.48890  -0.48672
 Alpha  occ. eigenvalues --   -0.48595  -0.48116  -0.47993  -0.47896  -0.47708
 Alpha  occ. eigenvalues --   -0.47463  -0.47188  -0.47103  -0.46844  -0.46729
 Alpha  occ. eigenvalues --   -0.46536  -0.46293  -0.46138  -0.46098  -0.46064
 Alpha  occ. eigenvalues --   -0.45839  -0.45713  -0.45395  -0.45325  -0.45182
 Alpha  occ. eigenvalues --   -0.45030  -0.44855  -0.44680  -0.44619  -0.44434
 Alpha  occ. eigenvalues --   -0.44077  -0.43819  -0.43651  -0.43480  -0.43260
 Alpha  occ. eigenvalues --   -0.43087  -0.42763  -0.42622  -0.42545  -0.42245
 Alpha  occ. eigenvalues --   -0.42091  -0.41774  -0.41616  -0.41515  -0.41319
 Alpha  occ. eigenvalues --   -0.41156  -0.40976  -0.40744  -0.40396  -0.40159
 Alpha  occ. eigenvalues --   -0.39934  -0.39768  -0.39546  -0.39199  -0.38987
 Alpha  occ. eigenvalues --   -0.38810  -0.38798  -0.38429  -0.37620  -0.37445
 Alpha  occ. eigenvalues --   -0.37084  -0.36976  -0.36949  -0.36777  -0.36543
 Alpha  occ. eigenvalues --   -0.36257  -0.35636  -0.34982  -0.34909  -0.34528
 Alpha  occ. eigenvalues --   -0.34152  -0.33234  -0.32707  -0.32531  -0.31442
 Alpha  occ. eigenvalues --   -0.30584  -0.30138  -0.29867  -0.28513  -0.24521
 Alpha  occ. eigenvalues --   -0.21096
 Alpha virt. eigenvalues --   -0.08774  -0.01682   0.00119   0.02200   0.03300
 Alpha virt. eigenvalues --    0.03675   0.04135   0.05161   0.06051   0.06431
 Alpha virt. eigenvalues --    0.07479   0.07984   0.08107   0.08741   0.08834

 Mulliken charges:
               1
     1  Mg   0.811338
     2  C   -0.009186
     3  C   -0.080187
     4  C   -0.023900
     5  C   -0.141762
     6  N   -0.260648
     7  C   -0.067378
     8  C    0.051347
     9  C   -0.086129
    10  C    0.059842
    11  C    0.058925
    12  C    0.073209
    13  C    0.053980
    14  C    0.133800
    15  O   -0.201806
    16  O   -0.369632
    17  N   -0.452284
    18  C    0.152964
    19  C   -0.142842
    20  C   -0.053506
    21  C    0.096623
    22  C    0.101268
    23  C   -0.000243
    24  O   -0.205000
    25  C    0.054088
    26  N   -0.255003
    27  C    0.035593
    28  C   -0.050343
    29  C   -0.037007
    30  C    0.063147
    31  C    0.110339
    32  C   -0.005500
    33  C   -0.002004
    34  N   -0.323695
    35  C    0.182959
    36  C   -0.199528
    37  C   -0.028235
    38  C    0.093273
    39  C    0.131770
    40  C    0.104928
    41  O   -0.126967
    42  C    0.006603
    43  C    0.189686
    44  O   -0.238909
    45  O   -0.333854
    46  C    0.172735
    47  C    0.319090
    48  C   -0.156147
    49  C   -0.173129
    50  C    0.083796
    51  C    0.113194
    52  C    0.021225
    53  C    0.050050
    54  C   -0.140279
    55  C    0.066387
    56  C    0.045907
    57  C    0.036026
    58  C    0.012039
    59  C   -0.101438
    60  C    0.029355
    61  C    0.055400
    62  C    0.023470
    63  C    0.018903
    64  C   -0.133927
    65  C    0.029502
    66  C    0.061827
    67  H   -0.032195
    68  H    0.008770
    69  H   -0.019739
    70  H    0.010661
    71  H    0.021531
    72  H    0.018138
    73  H    0.015800
    74  H    0.018402
    75  H    0.026554
    76  H    0.030818
    77  H    0.042052
    78  H    0.025723
    79  H    0.028616
    80  H    0.020971
    81  H    0.001140
    82  H    0.026988
    83  H    0.018390
    84  H    0.017359
    85  H    0.010677
    86  H   -0.019310
    87  H    0.015503
    88  H    0.032728
    89  H    0.021949
    90  H    0.015419
    91  H    0.012959
    92  H    0.017879
    93  H    0.014245
    94  H    0.018727
    95  H    0.036540
    96  H    0.020716
    97  H    0.042575
    98  H    0.036573
    99  H    0.038957
   100  H    0.039097
   101  H    0.047460
   102  H    0.029797
   103  H    0.026918
   104  H   -0.009016
   105  H    0.002114
   106  H    0.010034
   107  H    0.040623
   108  H   -0.012386
   109  H   -0.018342
   110  H    0.005712
   111  H   -0.000195
   112  H   -0.014464
   113  H   -0.018772
   114  H   -0.002757
   115  H    0.011031
   116  H    0.003923
   117  H   -0.004318
   118  H   -0.018065
   119  H   -0.016662
   120  H   -0.007433
   121  H    0.006069
   122  H   -0.017150
   123  H   -0.001603
   124  H    0.003538
   125  H    0.013157
   126  H    0.006138
   127  H    0.010818
   128  H   -0.006829
   129  H   -0.014718
   130  H    0.000393
   131  H    0.007744
   132  H   -0.020189
   133  H   -0.015996
   134  H   -0.001869
   135  H    0.003139
   136  H   -0.002307
   137  H    0.009483
   138  H    0.006736
   139  H    0.007746
   140  H    0.011170
 Sum of Mulliken charges =  -0.00000

 Dipole moment (field-independent basis, Debye):
    X=              1.8562    Y=             -0.6631    Z=             -1.4584  Tot=              2.4519
 Quadrupole moment (field-independent basis, Debye-Ang):
   XX=           -354.3123   YY=           -433.7989   ZZ=           -419.8809
   XY=              0.1727   XZ=             14.8815   YZ=             -0.7534

 Normal termination of Gaussian 16 at Tue May  3 22:20:26 2022.
