 Gaussian 16, Revision A.03,
 Gaussian 16:  ES64L-G16RevA.03 25-Dec-2016

 ---------------------------------
 #p PBE1PBE/Def2SVP td=(nstates=5)
 ---------------------------------

 ------------------------------------------------------
 step_1051_chromophore_27 TDDFT with PBE1PBE functional
 ------------------------------------------------------
 Symbolic Z-matrix:
 Charge =  0 Multiplicity = 1

                         Standard orientation:
 ---------------------------------------------------------------------
 Center     Atomic      Atomic             Coordinates (Angstroms)
 Number     Number       Type             X           Y           Z
 ---------------------------------------------------------------------
      1         12           0       -4.621733    0.781913    0.149164
      2          6           0       -3.754879   -2.536089    0.426355
      3          6           0       -1.306471    1.525495    0.110964
      4          6           0       -5.746002    4.026283    0.307866
      5          6           0       -8.053372   -0.306453    0.377521
      6          7           0       -2.743142   -0.351746    0.089212
      7          6           0       -2.645557   -1.703982    0.191335
      8          6           0       -1.229157   -2.172803   -0.063320
      9          6           0       -0.410096   -0.912233    0.076224
     10          6           0       -1.538511    0.155909    0.252083
     11          6           0        0.629563   -0.782212    1.235796
     12          6           0       -1.045042   -2.938116   -1.517154
     13          6           0        0.034486   -4.150774   -1.421767
     14          6           0        1.401965   -4.064275   -2.104139
     15          8           0        1.613945   -3.917322   -3.279057
     16          8           0        2.458797   -4.292165   -1.179203
     17          7           0       -3.625038    2.551383    0.122456
     18          6           0       -2.212542    2.627485    0.037079
     19          6           0       -1.959371    4.006322   -0.018812
     20          6           0       -3.186387    4.766137    0.044454
     21          6           0       -4.254089    3.776312    0.139235
     22          6           0       -0.518954    4.550933   -0.037314
     23          6           0       -3.347258    6.264132    0.030903
     24          8           0       -4.435319    6.805136    0.085746
     25          6           0       -2.079228    7.145673    0.151176
     26          7           0       -6.659128    1.668338    0.480654
     27          6           0       -6.757042    3.074054    0.361685
     28          6           0       -8.227415    3.574650    0.312481
     29          6           0       -8.854960    2.156511   -0.112825
     30          6           0       -7.836110    1.119699    0.243172
     31          6           0       -8.825761    4.360225    1.533523
     32          6           0       -9.280434    2.070668   -1.585585
     33          6           0      -10.553183    2.880207   -2.068657
     34          7           0       -5.745113   -0.996074    0.426630
     35          6           0       -7.062770   -1.246404    0.532843
     36          6           0       -7.294728   -2.705708    0.647121
     37          6           0       -6.017662   -3.259864    0.564985
     38          6           0       -5.116450   -2.203219    0.543722
     39          6           0       -8.585792   -3.437518    0.712953
     40          6           0       -5.201174   -4.522736    0.661999
     41          8           0       -5.538353   -5.648670    0.919178
     42          6           0       -3.729107   -4.075640    0.490138
     43          6           0       -2.861195   -4.673617    1.544252
     44          8           0       -2.754684   -4.286213    2.722745
     45          8           0       -2.264850   -5.831074    1.063344
     46          6           0       -1.338832   -6.426287    2.006728
     47          6           0        3.820050   -4.218120   -1.654405
     48          6           0        4.191743   -2.778238   -1.945982
     49          6           0        5.355965   -2.171062   -1.992674
     50          6           0        6.668289   -2.944239   -1.965161
     51          6           0        5.445833   -0.675104   -2.111277
     52          6           0        6.070827   -0.259384   -3.386556
     53          6           0        7.548109    0.110786   -3.275608
     54          6           0        7.695961    1.522716   -3.712084
     55          6           0        7.529673    1.774627   -5.237589
     56          6           0        9.138047    1.960780   -3.079203
     57          6           0        8.870376    2.668914   -1.815697
     58          6           0       10.157583    2.544324   -0.880525
     59          6           0        9.961337    1.649981    0.355802
     60          6           0        9.943408    0.136300   -0.105285
     61          6           0       11.136019    1.879091    1.404052
     62          6           0       10.545953    2.100756    2.886367
     63          6           0       10.504986    0.806544    3.676884
     64          6           0       10.262931    1.093601    5.147106
     65          6           0       10.844969   -0.045747    6.042365
     66          6           0        8.746179    1.115112    5.417374
     67          1           0       -0.267257    1.808535   -0.066646
     68          1           0       -6.051670    5.072903    0.252185
     69          1           0       -9.106538   -0.587147    0.449828
     70          1           0       -1.056487   -2.862919    0.762011
     71          1           0        0.160388   -0.570271   -0.787126
     72          1           0        0.178781   -0.494560    2.186299
     73          1           0        1.369239   -0.021527    0.984415
     74          1           0        1.173628   -1.692593    1.487446
     75          1           0       -0.597939   -2.205253   -2.189245
     76          1           0       -1.995535   -3.243710   -1.955676
     77          1           0       -0.385808   -5.020966   -1.926629
     78          1           0        0.245739   -4.474504   -0.402474
     79          1           0       -0.234046    5.198312    0.792651
     80          1           0       -0.500094    5.133607   -0.958048
     81          1           0        0.235845    3.766106   -0.076345
     82          1           0       -2.294997    8.175651    0.434939
     83          1           0       -1.453948    6.982292   -0.726169
     84          1           0       -1.447493    6.765169    0.953269
     85          1           0       -8.246411    4.227096   -0.561011
     86          1           0       -9.842537    1.939260    0.292810
     87          1           0       -9.336575    3.594031    2.117551
     88          1           0       -9.420696    5.193633    1.161385
     89          1           0       -7.976348    4.686413    2.132359
     90          1           0       -9.634654    1.072725   -1.842436
     91          1           0       -8.415692    2.471759   -2.114198
     92          1           0      -11.015895    3.559830   -1.353429
     93          1           0      -11.362504    2.260014   -2.451336
     94          1           0      -10.159854    3.399407   -2.942030
     95          1           0       -8.416969   -4.470002    0.406723
     96          1           0       -9.289041   -3.049159   -0.023148
     97          1           0       -8.978830   -3.310316    1.721279
     98          1           0       -3.315312   -4.368185   -0.474224
     99          1           0       -0.602943   -6.939125    1.387039
    100          1           0       -1.970207   -7.112743    2.569751
    101          1           0       -0.859427   -5.778837    2.740147
    102          1           0        3.856842   -4.850490   -2.541797
    103          1           0        4.487655   -4.563599   -0.864584
    104          1           0        3.308495   -2.157608   -2.098139
    105          1           0        6.579963   -3.875418   -1.405879
    106          1           0        7.317487   -2.306544   -1.364814
    107          1           0        7.088835   -3.183927   -2.941956
    108          1           0        6.094679   -0.246864   -1.348014
    109          1           0        4.492823   -0.170458   -1.950593
    110          1           0        5.454889    0.536623   -3.804596
    111          1           0        6.014152   -1.128425   -4.041392
    112          1           0        8.112013   -0.495888   -3.983598
    113          1           0        8.034416   -0.099846   -2.323173
    114          1           0        6.934423    2.098815   -3.185970
    115          1           0        7.464481    0.844479   -5.803097
    116          1           0        8.238977    2.488875   -5.655025
    117          1           0        6.638886    2.340409   -5.511599
    118          1           0        9.766343    2.438134   -3.830620
    119          1           0        9.791457    1.128883   -2.818337
    120          1           0        8.072189    2.144538   -1.290720
    121          1           0        8.658952    3.732546   -1.927730
    122          1           0       10.316553    3.596704   -0.646249
    123          1           0       11.054078    2.310036   -1.453688
    124          1           0        8.983329    1.835482    0.801797
    125          1           0       10.182348   -0.002773   -1.159675
    126          1           0        8.920013   -0.231240   -0.037034
    127          1           0       10.562910   -0.527849    0.497399
    128          1           0       11.838352    2.679953    1.170897
    129          1           0       11.779525    1.003265    1.490396
    130          1           0        9.506345    2.328957    2.647576
    131          1           0       11.187470    2.885505    3.287319
    132          1           0       11.405045    0.206083    3.542990
    133          1           0        9.766613    0.100965    3.296349
    134          1           0       10.820242    1.995841    5.399967
    135          1           0       10.678762    0.053504    7.114702
    136          1           0       11.930069    0.036987    5.969737
    137          1           0       10.498321   -1.036265    5.747678
    138          1           0        8.222641    1.192320    4.463919
    139          1           0        8.623586    1.994754    6.049306
    140          1           0        8.371051    0.268376    5.992133
 ---------------------------------------------------------------------

 SCF Done:  E(RPBE1PBE) =  -3005.33815992     A.U. after   15 cycles

 Excitation energies and oscillator strengths:

 Excited State   1:      Singlet-A      1.8135 eV  683.67 nm  f=0.3376  <S**2>=0.000
     245 -> 248        0.15901
     246 -> 247        0.69598
     246 <- 247       -0.11615
 This state for optimization and/or second-order correction.
 Total Energy, E(TD-HF/TD-DFT) =  -3005.27151461
 Copying the excited state density for this state as the 1-particle RhoCI density.

 Excited State   2:      Singlet-A      2.2627 eV  547.94 nm  f=0.1041  <S**2>=0.000
     245 -> 247        0.64074
     246 -> 248       -0.28480

 Excited State   3:      Singlet-A      2.8482 eV  435.30 nm  f=0.0051  <S**2>=0.000
     244 -> 247        0.69836

 Excited State   4:      Singlet-A      2.9967 eV  413.73 nm  f=0.0004  <S**2>=0.000
     243 -> 247        0.68863

 Excited State   5:      Singlet-A      3.1925 eV  388.36 nm  f=0.0150  <S**2>=0.000
     239 -> 247        0.12662
     240 -> 247        0.13674
     241 -> 247        0.63294
     246 -> 248        0.20143

 The electronic state is 1-A.
 Alpha  occ. eigenvalues --  -46.92453 -19.26379 -19.24922 -19.20958 -19.20894
 Alpha  occ. eigenvalues --  -19.20742 -19.18199 -14.41908 -14.41434 -14.39107
 Alpha  occ. eigenvalues --  -14.39005 -10.37153 -10.37149 -10.33832 -10.31466
 Alpha  occ. eigenvalues --  -10.29387 -10.29304 -10.29185 -10.28752 -10.28363
 Alpha  occ. eigenvalues --  -10.28259 -10.28203 -10.27912 -10.27540 -10.27038
 Alpha  occ. eigenvalues --  -10.27024 -10.27019 -10.26719 -10.26571 -10.26431
 Alpha  occ. eigenvalues --  -10.26429 -10.26105 -10.25791 -10.25448 -10.25152
 Alpha  occ. eigenvalues --  -10.24833 -10.24811 -10.24676 -10.24555 -10.24383
 Alpha  occ. eigenvalues --  -10.24020 -10.23978 -10.23870 -10.23865 -10.23750
 Alpha  occ. eigenvalues --  -10.23717 -10.23634 -10.23464 -10.23454 -10.23274
 Alpha  occ. eigenvalues --  -10.23130 -10.22676 -10.22618 -10.22602 -10.22569
 Alpha  occ. eigenvalues --  -10.22472 -10.22392 -10.22316 -10.22251 -10.22137
 Alpha  occ. eigenvalues --  -10.22006 -10.21921 -10.21913 -10.21804 -10.21695
 Alpha  occ. eigenvalues --  -10.21623  -3.14463  -1.87322  -1.86856  -1.86661
 Alpha  occ. eigenvalues --   -1.11115  -1.10877  -1.07018  -1.04201  -1.03253
 Alpha  occ. eigenvalues --   -1.02294  -1.00454  -0.99335  -0.97972  -0.95787
 Alpha  occ. eigenvalues --   -0.87828  -0.85765  -0.84006  -0.83664  -0.83321
 Alpha  occ. eigenvalues --   -0.82760  -0.82455  -0.81871  -0.81693  -0.81268
 Alpha  occ. eigenvalues --   -0.80031  -0.79759  -0.78703  -0.78561  -0.77249
 Alpha  occ. eigenvalues --   -0.76606  -0.75996  -0.75033  -0.74820  -0.74008
 Alpha  occ. eigenvalues --   -0.73905  -0.72721  -0.72100  -0.71607  -0.70878
 Alpha  occ. eigenvalues --   -0.70560  -0.69706  -0.69333  -0.69152  -0.68611
 Alpha  occ. eigenvalues --   -0.67926  -0.67435  -0.66170  -0.65777  -0.63490
 Alpha  occ. eigenvalues --   -0.63368  -0.62464  -0.61430  -0.60679  -0.60225
 Alpha  occ. eigenvalues --   -0.59461  -0.59398  -0.59198  -0.58874  -0.58759
 Alpha  occ. eigenvalues --   -0.57651  -0.57572  -0.57008  -0.56994  -0.54676
 Alpha  occ. eigenvalues --   -0.54439  -0.54279  -0.53544  -0.53291  -0.53269
 Alpha  occ. eigenvalues --   -0.52388  -0.52090  -0.51086  -0.50753  -0.50542
 Alpha  occ. eigenvalues --   -0.49662  -0.49395  -0.49289  -0.49136  -0.48922
 Alpha  occ. eigenvalues --   -0.48735  -0.48396  -0.48288  -0.47670  -0.47354
 Alpha  occ. eigenvalues --   -0.47120  -0.47002  -0.46906  -0.46885  -0.46419
 Alpha  occ. eigenvalues --   -0.46324  -0.45829  -0.45690  -0.45501  -0.45391
 Alpha  occ. eigenvalues --   -0.45257  -0.44949  -0.44725  -0.44480  -0.44217
 Alpha  occ. eigenvalues --   -0.44048  -0.43929  -0.43611  -0.43562  -0.43314
 Alpha  occ. eigenvalues --   -0.43249  -0.42748  -0.42662  -0.42516  -0.42323
 Alpha  occ. eigenvalues --   -0.42146  -0.41921  -0.41779  -0.41533  -0.41413
 Alpha  occ. eigenvalues --   -0.41182  -0.41050  -0.40858  -0.40762  -0.40641
 Alpha  occ. eigenvalues --   -0.40534  -0.40393  -0.39994  -0.39946  -0.39893
 Alpha  occ. eigenvalues --   -0.39823  -0.39584  -0.39543  -0.39402  -0.39011
 Alpha  occ. eigenvalues --   -0.38829  -0.38564  -0.38444  -0.38115  -0.38002
 Alpha  occ. eigenvalues --   -0.37991  -0.37687  -0.37557  -0.37457  -0.37102
 Alpha  occ. eigenvalues --   -0.37035  -0.36560  -0.36469  -0.36359  -0.36079
 Alpha  occ. eigenvalues --   -0.35994  -0.35810  -0.35750  -0.35371  -0.34937
 Alpha  occ. eigenvalues --   -0.34758  -0.34665  -0.34393  -0.34011  -0.33870
 Alpha  occ. eigenvalues --   -0.33767  -0.33546  -0.33237  -0.32620  -0.32329
 Alpha  occ. eigenvalues --   -0.31969  -0.31909  -0.31812  -0.31664  -0.31628
 Alpha  occ. eigenvalues --   -0.31208  -0.30486  -0.29870  -0.29631  -0.29444
 Alpha  occ. eigenvalues --   -0.29320  -0.28842  -0.27640  -0.27347  -0.26945
 Alpha  occ. eigenvalues --   -0.26018  -0.25406  -0.24970  -0.24510  -0.21344
 Alpha  occ. eigenvalues --   -0.18689
 Alpha virt. eigenvalues --   -0.11297  -0.05251  -0.04059  -0.01965  -0.00916
 Alpha virt. eigenvalues --   -0.00412  -0.00012   0.01116   0.02039   0.02610
 Alpha virt. eigenvalues --    0.03472   0.04062   0.04597   0.05036   0.05519

 Mulliken charges:
               1
     1  Mg   0.960647
     2  C   -0.026905
     3  C   -0.079218
     4  C   -0.014145
     5  C   -0.116996
     6  N   -0.364619
     7  C   -0.002390
     8  C   -0.019343
     9  C   -0.166261
    10  C    0.105622
    11  C    0.004940
    12  C    0.023582
    13  C   -0.022811
    14  C    0.200632
    15  O   -0.234571
    16  O   -0.400812
    17  N   -0.571119
    18  C    0.187957
    19  C   -0.177767
    20  C   -0.109609
    21  C    0.146052
    22  C    0.039532
    23  C    0.055670
    24  O   -0.240749
    25  C   -0.024325
    26  N   -0.352079
    27  C    0.055710
    28  C   -0.114256
    29  C   -0.121997
    30  C    0.102050
    31  C    0.047154
    32  C   -0.062712
    33  C   -0.070348
    34  N   -0.446171
    35  C    0.192850
    36  C   -0.225347
    37  C   -0.068559
    38  C    0.142566
    39  C    0.074023
    40  C    0.203739
    41  O   -0.176459
    42  C   -0.101064
    43  C    0.271841
    44  O   -0.272713
    45  O   -0.364768
    46  C    0.117581
    47  C    0.274841
    48  C   -0.152472
    49  C   -0.231028
    50  C    0.022419
    51  C    0.048559
    52  C   -0.040580
    53  C   -0.006727
    54  C   -0.232067
    55  C    0.010709
    56  C   -0.010082
    57  C   -0.026985
    58  C   -0.042397
    59  C   -0.189837
    60  C   -0.030724
    61  C    0.009389
    62  C   -0.048750
    63  C   -0.031275
    64  C   -0.230798
    65  C   -0.032285
    66  C    0.003035
    67  H    0.001401
    68  H    0.038679
    69  H    0.010912
    70  H    0.054504
    71  H    0.057813
    72  H    0.046128
    73  H    0.041995
    74  H    0.047274
    75  H    0.057493
    76  H    0.060706
    77  H    0.073905
    78  H    0.058015
    79  H    0.057672
    80  H    0.052351
    81  H    0.031252
    82  H    0.055853
    83  H    0.047015
    84  H    0.046105
    85  H    0.048050
    86  H    0.018782
    87  H    0.045077
    88  H    0.059169
    89  H    0.049707
    90  H    0.048601
    91  H    0.045067
    92  H    0.044110
    93  H    0.041577
    94  H    0.045734
    95  H    0.062733
    96  H    0.045798
    97  H    0.068842
    98  H    0.076667
    99  H    0.060018
   100  H    0.062326
   101  H    0.067992
   102  H    0.057629
   103  H    0.053485
   104  H    0.020951
   105  H    0.029975
   106  H    0.039055
   107  H    0.066588
   108  H    0.023759
   109  H    0.012640
   110  H    0.037096
   111  H    0.035006
   112  H    0.019836
   113  H    0.018646
   114  H    0.035904
   115  H    0.037648
   116  H    0.030827
   117  H    0.022815
   118  H    0.014387
   119  H    0.017805
   120  H    0.026733
   121  H    0.038674
   122  H    0.017160
   123  H    0.031059
   124  H    0.038784
   125  H    0.040348
   126  H    0.034187
   127  H    0.038317
   128  H    0.024471
   129  H    0.017692
   130  H    0.035740
   131  H    0.039180
   132  H    0.011858
   133  H    0.017602
   134  H    0.034516
   135  H    0.031869
   136  H    0.026643
   137  H    0.037112
   138  H    0.033545
   139  H    0.035989
   140  H    0.038165
 Sum of Mulliken charges =  -0.00000

 Dipole moment (field-independent basis, Debye):
    X=              2.3088    Y=              0.1170    Z=             -1.5389  Tot=              2.7771
 Quadrupole moment (field-independent basis, Debye-Ang):
   XX=           -352.4569   YY=           -429.8408   ZZ=           -417.5448
   XY=             -3.6249   XZ=             15.3661   YZ=             -0.5721

 Normal termination of Gaussian 16 at Tue May  3 22:38:58 2022.
