 Gaussian 16, Revision A.03,
 Gaussian 16:  ES64L-G16RevA.03 25-Dec-2016

 --------------------------------
 #p wB97XD/Def2SVP td=(nstates=5)
 --------------------------------

 -----------------------------------------------------
 step_1051_chromophore_27 TDDFT with wB97XD functional
 -----------------------------------------------------
 Symbolic Z-matrix:
 Charge =  0 Multiplicity = 1

                         Standard orientation:
 ---------------------------------------------------------------------
 Center     Atomic      Atomic             Coordinates (Angstroms)
 Number     Number       Type             X           Y           Z
 ---------------------------------------------------------------------
      1         12           0       -4.621733    0.781913    0.149164
      2          6           0       -3.754879   -2.536089    0.426355
      3          6           0       -1.306471    1.525495    0.110964
      4          6           0       -5.746002    4.026283    0.307866
      5          6           0       -8.053372   -0.306453    0.377521
      6          7           0       -2.743142   -0.351746    0.089212
      7          6           0       -2.645557   -1.703982    0.191335
      8          6           0       -1.229157   -2.172803   -0.063320
      9          6           0       -0.410096   -0.912233    0.076224
     10          6           0       -1.538511    0.155909    0.252083
     11          6           0        0.629563   -0.782212    1.235796
     12          6           0       -1.045042   -2.938116   -1.517154
     13          6           0        0.034486   -4.150774   -1.421767
     14          6           0        1.401965   -4.064275   -2.104139
     15          8           0        1.613945   -3.917322   -3.279057
     16          8           0        2.458797   -4.292165   -1.179203
     17          7           0       -3.625038    2.551383    0.122456
     18          6           0       -2.212542    2.627485    0.037079
     19          6           0       -1.959371    4.006322   -0.018812
     20          6           0       -3.186387    4.766137    0.044454
     21          6           0       -4.254089    3.776312    0.139235
     22          6           0       -0.518954    4.550933   -0.037314
     23          6           0       -3.347258    6.264132    0.030903
     24          8           0       -4.435319    6.805136    0.085746
     25          6           0       -2.079228    7.145673    0.151176
     26          7           0       -6.659128    1.668338    0.480654
     27          6           0       -6.757042    3.074054    0.361685
     28          6           0       -8.227415    3.574650    0.312481
     29          6           0       -8.854960    2.156511   -0.112825
     30          6           0       -7.836110    1.119699    0.243172
     31          6           0       -8.825761    4.360225    1.533523
     32          6           0       -9.280434    2.070668   -1.585585
     33          6           0      -10.553183    2.880207   -2.068657
     34          7           0       -5.745113   -0.996074    0.426630
     35          6           0       -7.062770   -1.246404    0.532843
     36          6           0       -7.294728   -2.705708    0.647121
     37          6           0       -6.017662   -3.259864    0.564985
     38          6           0       -5.116450   -2.203219    0.543722
     39          6           0       -8.585792   -3.437518    0.712953
     40          6           0       -5.201174   -4.522736    0.661999
     41          8           0       -5.538353   -5.648670    0.919178
     42          6           0       -3.729107   -4.075640    0.490138
     43          6           0       -2.861195   -4.673617    1.544252
     44          8           0       -2.754684   -4.286213    2.722745
     45          8           0       -2.264850   -5.831074    1.063344
     46          6           0       -1.338832   -6.426287    2.006728
     47          6           0        3.820050   -4.218120   -1.654405
     48          6           0        4.191743   -2.778238   -1.945982
     49          6           0        5.355965   -2.171062   -1.992674
     50          6           0        6.668289   -2.944239   -1.965161
     51          6           0        5.445833   -0.675104   -2.111277
     52          6           0        6.070827   -0.259384   -3.386556
     53          6           0        7.548109    0.110786   -3.275608
     54          6           0        7.695961    1.522716   -3.712084
     55          6           0        7.529673    1.774627   -5.237589
     56          6           0        9.138047    1.960780   -3.079203
     57          6           0        8.870376    2.668914   -1.815697
     58          6           0       10.157583    2.544324   -0.880525
     59          6           0        9.961337    1.649981    0.355802
     60          6           0        9.943408    0.136300   -0.105285
     61          6           0       11.136019    1.879091    1.404052
     62          6           0       10.545953    2.100756    2.886367
     63          6           0       10.504986    0.806544    3.676884
     64          6           0       10.262931    1.093601    5.147106
     65          6           0       10.844969   -0.045747    6.042365
     66          6           0        8.746179    1.115112    5.417374
     67          1           0       -0.267257    1.808535   -0.066646
     68          1           0       -6.051670    5.072903    0.252185
     69          1           0       -9.106538   -0.587147    0.449828
     70          1           0       -1.056487   -2.862919    0.762011
     71          1           0        0.160388   -0.570271   -0.787126
     72          1           0        0.178781   -0.494560    2.186299
     73          1           0        1.369239   -0.021527    0.984415
     74          1           0        1.173628   -1.692593    1.487446
     75          1           0       -0.597939   -2.205253   -2.189245
     76          1           0       -1.995535   -3.243710   -1.955676
     77          1           0       -0.385808   -5.020966   -1.926629
     78          1           0        0.245739   -4.474504   -0.402474
     79          1           0       -0.234046    5.198312    0.792651
     80          1           0       -0.500094    5.133607   -0.958048
     81          1           0        0.235845    3.766106   -0.076345
     82          1           0       -2.294997    8.175651    0.434939
     83          1           0       -1.453948    6.982292   -0.726169
     84          1           0       -1.447493    6.765169    0.953269
     85          1           0       -8.246411    4.227096   -0.561011
     86          1           0       -9.842537    1.939260    0.292810
     87          1           0       -9.336575    3.594031    2.117551
     88          1           0       -9.420696    5.193633    1.161385
     89          1           0       -7.976348    4.686413    2.132359
     90          1           0       -9.634654    1.072725   -1.842436
     91          1           0       -8.415692    2.471759   -2.114198
     92          1           0      -11.015895    3.559830   -1.353429
     93          1           0      -11.362504    2.260014   -2.451336
     94          1           0      -10.159854    3.399407   -2.942030
     95          1           0       -8.416969   -4.470002    0.406723
     96          1           0       -9.289041   -3.049159   -0.023148
     97          1           0       -8.978830   -3.310316    1.721279
     98          1           0       -3.315312   -4.368185   -0.474224
     99          1           0       -0.602943   -6.939125    1.387039
    100          1           0       -1.970207   -7.112743    2.569751
    101          1           0       -0.859427   -5.778837    2.740147
    102          1           0        3.856842   -4.850490   -2.541797
    103          1           0        4.487655   -4.563599   -0.864584
    104          1           0        3.308495   -2.157608   -2.098139
    105          1           0        6.579963   -3.875418   -1.405879
    106          1           0        7.317487   -2.306544   -1.364814
    107          1           0        7.088835   -3.183927   -2.941956
    108          1           0        6.094679   -0.246864   -1.348014
    109          1           0        4.492823   -0.170458   -1.950593
    110          1           0        5.454889    0.536623   -3.804596
    111          1           0        6.014152   -1.128425   -4.041392
    112          1           0        8.112013   -0.495888   -3.983598
    113          1           0        8.034416   -0.099846   -2.323173
    114          1           0        6.934423    2.098815   -3.185970
    115          1           0        7.464481    0.844479   -5.803097
    116          1           0        8.238977    2.488875   -5.655025
    117          1           0        6.638886    2.340409   -5.511599
    118          1           0        9.766343    2.438134   -3.830620
    119          1           0        9.791457    1.128883   -2.818337
    120          1           0        8.072189    2.144538   -1.290720
    121          1           0        8.658952    3.732546   -1.927730
    122          1           0       10.316553    3.596704   -0.646249
    123          1           0       11.054078    2.310036   -1.453688
    124          1           0        8.983329    1.835482    0.801797
    125          1           0       10.182348   -0.002773   -1.159675
    126          1           0        8.920013   -0.231240   -0.037034
    127          1           0       10.562910   -0.527849    0.497399
    128          1           0       11.838352    2.679953    1.170897
    129          1           0       11.779525    1.003265    1.490396
    130          1           0        9.506345    2.328957    2.647576
    131          1           0       11.187470    2.885505    3.287319
    132          1           0       11.405045    0.206083    3.542990
    133          1           0        9.766613    0.100965    3.296349
    134          1           0       10.820242    1.995841    5.399967
    135          1           0       10.678762    0.053504    7.114702
    136          1           0       11.930069    0.036987    5.969737
    137          1           0       10.498321   -1.036265    5.747678
    138          1           0        8.222641    1.192320    4.463919
    139          1           0        8.623586    1.994754    6.049306
    140          1           0        8.371051    0.268376    5.992133
 ---------------------------------------------------------------------

 SCF Done:  E(RwB97XD) =  -3007.85162695     A.U. after   16 cycles

 Excitation energies and oscillator strengths:

 Excited State   1:      Singlet-A      1.6798 eV  738.10 nm  f=0.3540  <S**2>=0.000
     245 -> 248       -0.16059
     246 -> 247        0.68858
     245 <- 248       -0.10710
 This state for optimization and/or second-order correction.
 Total Energy, E(TD-HF/TD-DFT) =  -3007.78989632
 Copying the excited state density for this state as the 1-particle RhoCI density.

 Excited State   2:      Singlet-A      2.2373 eV  554.18 nm  f=0.1085  <S**2>=0.000
     245 -> 247        0.62910
     246 -> 248        0.30568

 Excited State   3:      Singlet-A      3.3381 eV  371.42 nm  f=0.0195  <S**2>=0.000
     241 -> 247       -0.28062
     244 -> 247        0.62221

 Excited State   4:      Singlet-A      3.4556 eV  358.79 nm  f=0.2752  <S**2>=0.000
     240 -> 247       -0.19045
     241 -> 247       -0.38610
     244 -> 247       -0.23871
     245 -> 247       -0.15978
     246 -> 248        0.45778

 Excited State   5:      Singlet-A      3.6379 eV  340.81 nm  f=0.5421  <S**2>=0.000
     238 -> 247        0.19351
     238 -> 249       -0.16368
     240 -> 247        0.24646
     241 -> 247        0.31689
     244 -> 247        0.13470
     245 -> 247       -0.25301
     246 -> 248        0.40012

 The electronic state is 1-A.
 Alpha  occ. eigenvalues --  -46.95381 -19.31118 -19.29483 -19.26180 -19.25692
 Alpha  occ. eigenvalues --  -19.25651 -19.22558 -14.46970 -14.46596 -14.44276
 Alpha  occ. eigenvalues --  -14.43607 -10.44184 -10.43982 -10.41097 -10.37865
 Alpha  occ. eigenvalues --  -10.35995 -10.35953 -10.35876 -10.35378 -10.34874
 Alpha  occ. eigenvalues --  -10.34321 -10.34168 -10.34086 -10.33992 -10.33935
 Alpha  occ. eigenvalues --  -10.33717 -10.33408 -10.33399 -10.32915 -10.32647
 Alpha  occ. eigenvalues --  -10.32564 -10.32540 -10.31975 -10.31788 -10.31301
 Alpha  occ. eigenvalues --  -10.31014 -10.30994 -10.30981 -10.30911 -10.30911
 Alpha  occ. eigenvalues --  -10.30764 -10.30619 -10.30298 -10.29994 -10.29950
 Alpha  occ. eigenvalues --  -10.29940 -10.29910 -10.29733 -10.29697 -10.29451
 Alpha  occ. eigenvalues --  -10.29380 -10.28997 -10.28944 -10.28868 -10.28851
 Alpha  occ. eigenvalues --  -10.28850 -10.28728 -10.28719 -10.28558 -10.28543
 Alpha  occ. eigenvalues --  -10.28321 -10.28276 -10.28257 -10.28141 -10.28099
 Alpha  occ. eigenvalues --  -10.28017  -3.21258  -1.94864  -1.94399  -1.94200
 Alpha  occ. eigenvalues --   -1.18704  -1.18280  -1.14918  -1.11242  -1.10617
 Alpha  occ. eigenvalues --   -1.09871  -1.07886  -1.07024  -1.05509  -1.02670
 Alpha  occ. eigenvalues --   -0.95764  -0.93403  -0.91651  -0.91316  -0.90954
 Alpha  occ. eigenvalues --   -0.90462  -0.90207  -0.89610  -0.89329  -0.88934
 Alpha  occ. eigenvalues --   -0.87608  -0.87145  -0.86428  -0.86227  -0.84763
 Alpha  occ. eigenvalues --   -0.84260  -0.83760  -0.82625  -0.82471  -0.81681
 Alpha  occ. eigenvalues --   -0.81407  -0.80435  -0.79717  -0.79107  -0.78541
 Alpha  occ. eigenvalues --   -0.78235  -0.77268  -0.76986  -0.76829  -0.76222
 Alpha  occ. eigenvalues --   -0.75538  -0.75049  -0.73764  -0.73349  -0.71227
 Alpha  occ. eigenvalues --   -0.70946  -0.70070  -0.68907  -0.68292  -0.67569
 Alpha  occ. eigenvalues --   -0.67053  -0.67042  -0.66614  -0.66388  -0.66291
 Alpha  occ. eigenvalues --   -0.65261  -0.65188  -0.64592  -0.64479  -0.62293
 Alpha  occ. eigenvalues --   -0.62063  -0.61811  -0.61087  -0.60818  -0.60544
 Alpha  occ. eigenvalues --   -0.59813  -0.59604  -0.58557  -0.58278  -0.57985
 Alpha  occ. eigenvalues --   -0.57038  -0.56846  -0.56758  -0.56614  -0.56353
 Alpha  occ. eigenvalues --   -0.56019  -0.55806  -0.55712  -0.55100  -0.54848
 Alpha  occ. eigenvalues --   -0.54779  -0.54463  -0.54305  -0.54150  -0.53740
 Alpha  occ. eigenvalues --   -0.53573  -0.53105  -0.53044  -0.52882  -0.52799
 Alpha  occ. eigenvalues --   -0.52699  -0.52459  -0.51983  -0.51808  -0.51548
 Alpha  occ. eigenvalues --   -0.51217  -0.51195  -0.50886  -0.50782  -0.50578
 Alpha  occ. eigenvalues --   -0.50495  -0.49980  -0.49908  -0.49835  -0.49647
 Alpha  occ. eigenvalues --   -0.49406  -0.49077  -0.48999  -0.48757  -0.48608
 Alpha  occ. eigenvalues --   -0.48392  -0.48259  -0.48149  -0.47998  -0.47967
 Alpha  occ. eigenvalues --   -0.47748  -0.47632  -0.47368  -0.47144  -0.47087
 Alpha  occ. eigenvalues --   -0.46927  -0.46743  -0.46583  -0.46551  -0.46409
 Alpha  occ. eigenvalues --   -0.46020  -0.45757  -0.45574  -0.45486  -0.45129
 Alpha  occ. eigenvalues --   -0.45052  -0.44629  -0.44476  -0.44446  -0.44175
 Alpha  occ. eigenvalues --   -0.43963  -0.43646  -0.43546  -0.43414  -0.43170
 Alpha  occ. eigenvalues --   -0.43065  -0.42851  -0.42676  -0.42288  -0.41999
 Alpha  occ. eigenvalues --   -0.41770  -0.41681  -0.41425  -0.41046  -0.40922
 Alpha  occ. eigenvalues --   -0.40716  -0.40622  -0.40285  -0.39565  -0.39290
 Alpha  occ. eigenvalues --   -0.39124  -0.38926  -0.38875  -0.38804  -0.38445
 Alpha  occ. eigenvalues --   -0.38234  -0.37453  -0.36960  -0.36778  -0.36460
 Alpha  occ. eigenvalues --   -0.36125  -0.35476  -0.34794  -0.34396  -0.33698
 Alpha  occ. eigenvalues --   -0.32816  -0.32142  -0.31709  -0.30582  -0.26472
 Alpha  occ. eigenvalues --   -0.22933
 Alpha virt. eigenvalues --   -0.07105   0.00247   0.02115   0.04626   0.05638
 Alpha virt. eigenvalues --    0.06137   0.06389   0.07603   0.08706   0.08993
 Alpha virt. eigenvalues --    0.09926   0.10827   0.11266   0.11943   0.12241

 Mulliken charges:
               1
     1  Mg   0.950882
     2  C   -0.031936
     3  C   -0.087080
     4  C   -0.028022
     5  C   -0.145571
     6  N   -0.331682
     7  C   -0.024629
     8  C    0.007331
     9  C   -0.138840
    10  C    0.083163
    11  C    0.013783
    12  C    0.033075
    13  C   -0.006799
    14  C    0.189748
    15  O   -0.231151
    16  O   -0.400592
    17  N   -0.537229
    18  C    0.168465
    19  C   -0.165968
    20  C   -0.100678
    21  C    0.125186
    22  C    0.055516
    23  C    0.046793
    24  O   -0.238571
    25  C   -0.005927
    26  N   -0.321474
    27  C    0.045113
    28  C   -0.092214
    29  C   -0.092857
    30  C    0.090300
    31  C    0.059707
    32  C   -0.049162
    33  C   -0.057082
    34  N   -0.412320
    35  C    0.196490
    36  C   -0.213268
    37  C   -0.067205
    38  C    0.131131
    39  C    0.084030
    40  C    0.184495
    41  O   -0.163799
    42  C   -0.058486
    43  C    0.249595
    44  O   -0.266563
    45  O   -0.363182
    46  C    0.131151
    47  C    0.291724
    48  C   -0.167103
    49  C   -0.210080
    50  C    0.036349
    51  C    0.069652
    52  C   -0.024952
    53  C    0.020541
    54  C   -0.195548
    55  C    0.018561
    56  C    0.010373
    57  C   -0.009169
    58  C   -0.025417
    59  C   -0.159952
    60  C   -0.014225
    61  C    0.019991
    62  C   -0.025000
    63  C   -0.017857
    64  C   -0.200302
    65  C   -0.019541
    66  C    0.012617
    67  H   -0.008700
    68  H    0.035044
    69  H    0.007851
    70  H    0.036206
    71  H    0.047331
    72  H    0.039972
    73  H    0.037011
    74  H    0.040868
    75  H    0.051807
    76  H    0.054465
    77  H    0.068780
    78  H    0.051308
    79  H    0.049725
    80  H    0.041802
    81  H    0.025051
    82  H    0.053347
    83  H    0.038778
    84  H    0.036882
    85  H    0.037151
    86  H    0.008131
    87  H    0.037311
    88  H    0.054670
    89  H    0.044064
    90  H    0.039958
    91  H    0.036302
    92  H    0.038748
    93  H    0.036466
    94  H    0.040558
    95  H    0.061272
    96  H    0.042608
    97  H    0.066578
    98  H    0.065454
    99  H    0.057425
   100  H    0.058536
   101  H    0.064523
   102  H    0.053138
   103  H    0.048250
   104  H    0.014807
   105  H    0.024250
   106  H    0.030973
   107  H    0.062091
   108  H    0.010734
   109  H    0.008200
   110  H    0.029329
   111  H    0.023839
   112  H    0.010149
   113  H   -0.010185
   114  H    0.020693
   115  H    0.031930
   116  H    0.025439
   117  H    0.017413
   118  H    0.007253
   119  H    0.001373
   120  H    0.011236
   121  H    0.032603
   122  H    0.008678
   123  H    0.020962
   124  H    0.026262
   125  H    0.032064
   126  H    0.025438
   127  H    0.032705
   128  H    0.018204
   129  H    0.006339
   130  H    0.021589
   131  H    0.032803
   132  H    0.001766
   133  H    0.006941
   134  H    0.024462
   135  H    0.026135
   136  H    0.019834
   137  H    0.030366
   138  H    0.026947
   139  H    0.030424
   140  H    0.032953
 Sum of Mulliken charges =  -0.00000

 Dipole moment (field-independent basis, Debye):
    X=              1.7457    Y=             -0.8786    Z=             -1.4843  Tot=              2.4541
 Quadrupole moment (field-independent basis, Debye-Ang):
   XX=           -347.4327   YY=           -429.9767   ZZ=           -417.1605
   XY=              0.8743   XZ=             15.0566   YZ=             -1.0750

 Normal termination of Gaussian 16 at Tue May  3 23:07:29 2022.
