 Gaussian 16, Revision A.03,
 Gaussian 16:  ES64L-G16RevA.03 25-Dec-2016

 --------------------
 #p ZINDO=(nstates=5)
 --------------------

 ------------------------------
 step_1051_chromophore_27 ZINDO
 ------------------------------
 Symbolic Z-matrix:
 Charge =  0 Multiplicity = 1

                         Standard orientation:
 ---------------------------------------------------------------------
 Center     Atomic      Atomic             Coordinates (Angstroms)
 Number     Number       Type             X           Y           Z
 ---------------------------------------------------------------------
      1         12           0       -4.621733    0.781913    0.149164
      2          6           0       -3.754879   -2.536089    0.426355
      3          6           0       -1.306471    1.525495    0.110964
      4          6           0       -5.746002    4.026283    0.307866
      5          6           0       -8.053372   -0.306453    0.377521
      6          7           0       -2.743142   -0.351746    0.089212
      7          6           0       -2.645557   -1.703982    0.191335
      8          6           0       -1.229157   -2.172803   -0.063320
      9          6           0       -0.410096   -0.912233    0.076224
     10          6           0       -1.538511    0.155909    0.252083
     11          6           0        0.629563   -0.782212    1.235796
     12          6           0       -1.045042   -2.938116   -1.517154
     13          6           0        0.034486   -4.150774   -1.421767
     14          6           0        1.401965   -4.064275   -2.104139
     15          8           0        1.613945   -3.917322   -3.279057
     16          8           0        2.458797   -4.292165   -1.179203
     17          7           0       -3.625038    2.551383    0.122456
     18          6           0       -2.212542    2.627485    0.037079
     19          6           0       -1.959371    4.006322   -0.018812
     20          6           0       -3.186387    4.766137    0.044454
     21          6           0       -4.254089    3.776312    0.139235
     22          6           0       -0.518954    4.550933   -0.037314
     23          6           0       -3.347258    6.264132    0.030903
     24          8           0       -4.435319    6.805136    0.085746
     25          6           0       -2.079228    7.145673    0.151176
     26          7           0       -6.659128    1.668338    0.480654
     27          6           0       -6.757042    3.074054    0.361685
     28          6           0       -8.227415    3.574650    0.312481
     29          6           0       -8.854960    2.156511   -0.112825
     30          6           0       -7.836110    1.119699    0.243172
     31          6           0       -8.825761    4.360225    1.533523
     32          6           0       -9.280434    2.070668   -1.585585
     33          6           0      -10.553183    2.880207   -2.068657
     34          7           0       -5.745113   -0.996074    0.426630
     35          6           0       -7.062770   -1.246404    0.532843
     36          6           0       -7.294728   -2.705708    0.647121
     37          6           0       -6.017662   -3.259864    0.564985
     38          6           0       -5.116450   -2.203219    0.543722
     39          6           0       -8.585792   -3.437518    0.712953
     40          6           0       -5.201174   -4.522736    0.661999
     41          8           0       -5.538353   -5.648670    0.919178
     42          6           0       -3.729107   -4.075640    0.490138
     43          6           0       -2.861195   -4.673617    1.544252
     44          8           0       -2.754684   -4.286213    2.722745
     45          8           0       -2.264850   -5.831074    1.063344
     46          6           0       -1.338832   -6.426287    2.006728
     47          6           0        3.820050   -4.218120   -1.654405
     48          6           0        4.191743   -2.778238   -1.945982
     49          6           0        5.355965   -2.171062   -1.992674
     50          6           0        6.668289   -2.944239   -1.965161
     51          6           0        5.445833   -0.675104   -2.111277
     52          6           0        6.070827   -0.259384   -3.386556
     53          6           0        7.548109    0.110786   -3.275608
     54          6           0        7.695961    1.522716   -3.712084
     55          6           0        7.529673    1.774627   -5.237589
     56          6           0        9.138047    1.960780   -3.079203
     57          6           0        8.870376    2.668914   -1.815697
     58          6           0       10.157583    2.544324   -0.880525
     59          6           0        9.961337    1.649981    0.355802
     60          6           0        9.943408    0.136300   -0.105285
     61          6           0       11.136019    1.879091    1.404052
     62          6           0       10.545953    2.100756    2.886367
     63          6           0       10.504986    0.806544    3.676884
     64          6           0       10.262931    1.093601    5.147106
     65          6           0       10.844969   -0.045747    6.042365
     66          6           0        8.746179    1.115112    5.417374
     67          1           0       -0.267257    1.808535   -0.066646
     68          1           0       -6.051670    5.072903    0.252185
     69          1           0       -9.106538   -0.587147    0.449828
     70          1           0       -1.056487   -2.862919    0.762011
     71          1           0        0.160388   -0.570271   -0.787126
     72          1           0        0.178781   -0.494560    2.186299
     73          1           0        1.369239   -0.021527    0.984415
     74          1           0        1.173628   -1.692593    1.487446
     75          1           0       -0.597939   -2.205253   -2.189245
     76          1           0       -1.995535   -3.243710   -1.955676
     77          1           0       -0.385808   -5.020966   -1.926629
     78          1           0        0.245739   -4.474504   -0.402474
     79          1           0       -0.234046    5.198312    0.792651
     80          1           0       -0.500094    5.133607   -0.958048
     81          1           0        0.235845    3.766106   -0.076345
     82          1           0       -2.294997    8.175651    0.434939
     83          1           0       -1.453948    6.982292   -0.726169
     84          1           0       -1.447493    6.765169    0.953269
     85          1           0       -8.246411    4.227096   -0.561011
     86          1           0       -9.842537    1.939260    0.292810
     87          1           0       -9.336575    3.594031    2.117551
     88          1           0       -9.420696    5.193633    1.161385
     89          1           0       -7.976348    4.686413    2.132359
     90          1           0       -9.634654    1.072725   -1.842436
     91          1           0       -8.415692    2.471759   -2.114198
     92          1           0      -11.015895    3.559830   -1.353429
     93          1           0      -11.362504    2.260014   -2.451336
     94          1           0      -10.159854    3.399407   -2.942030
     95          1           0       -8.416969   -4.470002    0.406723
     96          1           0       -9.289041   -3.049159   -0.023148
     97          1           0       -8.978830   -3.310316    1.721279
     98          1           0       -3.315312   -4.368185   -0.474224
     99          1           0       -0.602943   -6.939125    1.387039
    100          1           0       -1.970207   -7.112743    2.569751
    101          1           0       -0.859427   -5.778837    2.740147
    102          1           0        3.856842   -4.850490   -2.541797
    103          1           0        4.487655   -4.563599   -0.864584
    104          1           0        3.308495   -2.157608   -2.098139
    105          1           0        6.579963   -3.875418   -1.405879
    106          1           0        7.317487   -2.306544   -1.364814
    107          1           0        7.088835   -3.183927   -2.941956
    108          1           0        6.094679   -0.246864   -1.348014
    109          1           0        4.492823   -0.170458   -1.950593
    110          1           0        5.454889    0.536623   -3.804596
    111          1           0        6.014152   -1.128425   -4.041392
    112          1           0        8.112013   -0.495888   -3.983598
    113          1           0        8.034416   -0.099846   -2.323173
    114          1           0        6.934423    2.098815   -3.185970
    115          1           0        7.464481    0.844479   -5.803097
    116          1           0        8.238977    2.488875   -5.655025
    117          1           0        6.638886    2.340409   -5.511599
    118          1           0        9.766343    2.438134   -3.830620
    119          1           0        9.791457    1.128883   -2.818337
    120          1           0        8.072189    2.144538   -1.290720
    121          1           0        8.658952    3.732546   -1.927730
    122          1           0       10.316553    3.596704   -0.646249
    123          1           0       11.054078    2.310036   -1.453688
    124          1           0        8.983329    1.835482    0.801797
    125          1           0       10.182348   -0.002773   -1.159675
    126          1           0        8.920013   -0.231240   -0.037034
    127          1           0       10.562910   -0.527849    0.497399
    128          1           0       11.838352    2.679953    1.170897
    129          1           0       11.779525    1.003265    1.490396
    130          1           0        9.506345    2.328957    2.647576
    131          1           0       11.187470    2.885505    3.287319
    132          1           0       11.405045    0.206083    3.542990
    133          1           0        9.766613    0.100965    3.296349
    134          1           0       10.820242    1.995841    5.399967
    135          1           0       10.678762    0.053504    7.114702
    136          1           0       11.930069    0.036987    5.969737
    137          1           0       10.498321   -1.036265    5.747678
    138          1           0        8.222641    1.192320    4.463919
    139          1           0        8.623586    1.994754    6.049306
    140          1           0        8.371051    0.268376    5.992133
 ---------------------------------------------------------------------

 SCF Done:  E(RZINDO/S) =  -474.214078667     A.U. after   19 cycles

 Excitation energies and oscillator strengths:

 Excited State   1:      Singlet-A      1.3777 eV  899.96 nm  f=0.4862  <S**2>=0.000
     175 ->178         0.12903
     176 ->177         0.67658
 This state for optimization and/or second-order correction.
 Total Energy, E(CIS/TDA) =  -474.163450284
 Copying the excited state density for this state as the 1-particle RhoCI density.

 Excited State   2:      Singlet-A      2.0070 eV  617.77 nm  f=0.0366  <S**2>=0.000
     175 ->177         0.52735
     176 ->178        -0.41145
     176 ->179         0.12207

 Excited State   3:      Singlet-A      2.9598 eV  418.90 nm  f=0.9735  <S**2>=0.000
     172 ->177         0.11220
     175 ->177         0.37236
     176 ->178         0.52440
     176 ->179         0.13660

 Excited State   4:      Singlet-A      3.0368 eV  408.28 nm  f=0.0024  <S**2>=0.000
     167 ->177         0.32100
     167 ->178        -0.23326
     167 ->179        -0.40005
     167 ->182         0.14223
     167 ->184        -0.10304
     167 ->185         0.16223
     168 ->177         0.10461
     168 ->179        -0.11212

 Excited State   5:      Singlet-A      3.1436 eV  394.40 nm  f=0.0105  <S**2>=0.000
     171 ->177         0.17731
     171 ->179         0.16725
     171 ->180         0.15843
     171 ->182         0.41315
     171 ->184        -0.11368
     171 ->185        -0.23909
     171 ->188        -0.21617
     171 ->189         0.12449
     171 ->204        -0.10719
     176 ->179        -0.11918

 The electronic state is 1-A.
 Alpha  occ. eigenvalues --   -1.86284  -1.81630  -1.78124  -1.73590  -1.72635
 Alpha  occ. eigenvalues --   -1.70564  -1.68256  -1.62423  -1.60927  -1.57097
 Alpha  occ. eigenvalues --   -1.56420  -1.50796  -1.50188  -1.47951  -1.46166
 Alpha  occ. eigenvalues --   -1.44049  -1.42984  -1.39963  -1.39667  -1.37636
 Alpha  occ. eigenvalues --   -1.36525  -1.35206  -1.31917  -1.30345  -1.28310
 Alpha  occ. eigenvalues --   -1.25815  -1.24069  -1.20973  -1.19426  -1.17952
 Alpha  occ. eigenvalues --   -1.17451  -1.16399  -1.14977  -1.14719  -1.14367
 Alpha  occ. eigenvalues --   -1.12904  -1.10123  -1.08540  -1.05536  -1.03836
 Alpha  occ. eigenvalues --   -1.03440  -1.02118  -0.99016  -0.97849  -0.96448
 Alpha  occ. eigenvalues --   -0.95104  -0.94395  -0.94078  -0.93115  -0.92449
 Alpha  occ. eigenvalues --   -0.90297  -0.90210  -0.90038  -0.87487  -0.86563
 Alpha  occ. eigenvalues --   -0.85390  -0.83625  -0.83280  -0.81933  -0.80266
 Alpha  occ. eigenvalues --   -0.79950  -0.79567  -0.77956  -0.76902  -0.76393
 Alpha  occ. eigenvalues --   -0.75768  -0.75624  -0.75001  -0.74433  -0.74182
 Alpha  occ. eigenvalues --   -0.73772  -0.73224  -0.71941  -0.71310  -0.70824
 Alpha  occ. eigenvalues --   -0.70267  -0.69765  -0.68998  -0.68770  -0.68254
 Alpha  occ. eigenvalues --   -0.67502  -0.66712  -0.66614  -0.66421  -0.65630
 Alpha  occ. eigenvalues --   -0.65015  -0.64754  -0.64471  -0.64114  -0.63852
 Alpha  occ. eigenvalues --   -0.63349  -0.63246  -0.62983  -0.62325  -0.61379
 Alpha  occ. eigenvalues --   -0.61003  -0.60754  -0.60506  -0.60272  -0.59938
 Alpha  occ. eigenvalues --   -0.59058  -0.58757  -0.58720  -0.58187  -0.58100
 Alpha  occ. eigenvalues --   -0.57916  -0.57510  -0.57071  -0.56629  -0.56512
 Alpha  occ. eigenvalues --   -0.55868  -0.55780  -0.55530  -0.55337  -0.55083
 Alpha  occ. eigenvalues --   -0.54748  -0.54103  -0.53999  -0.53569  -0.53341
 Alpha  occ. eigenvalues --   -0.52919  -0.52284  -0.52064  -0.51847  -0.51807
 Alpha  occ. eigenvalues --   -0.51647  -0.51049  -0.50931  -0.50756  -0.50451
 Alpha  occ. eigenvalues --   -0.49783  -0.49694  -0.49394  -0.49055  -0.48951
 Alpha  occ. eigenvalues --   -0.48845  -0.48313  -0.48269  -0.47873  -0.47678
 Alpha  occ. eigenvalues --   -0.47521  -0.47320  -0.47029  -0.46896  -0.46773
 Alpha  occ. eigenvalues --   -0.46696  -0.46536  -0.46017  -0.45889  -0.45534
 Alpha  occ. eigenvalues --   -0.45427  -0.44898  -0.44204  -0.43895  -0.43782
 Alpha  occ. eigenvalues --   -0.43347  -0.43297  -0.42872  -0.42548  -0.42356
 Alpha  occ. eigenvalues --   -0.41671  -0.41583  -0.39922  -0.39627  -0.39420
 Alpha  occ. eigenvalues --   -0.38946  -0.37424  -0.36702  -0.35273  -0.34035
 Alpha  occ. eigenvalues --   -0.33421  -0.32445  -0.32232  -0.30708  -0.27150
 Alpha  occ. eigenvalues --   -0.22078
 Alpha virt. eigenvalues --   -0.08233  -0.02077  -0.01032   0.00839   0.01719
 Alpha virt. eigenvalues --    0.02041   0.02798   0.02912   0.04391   0.05718
 Alpha virt. eigenvalues --    0.05766   0.06355   0.06651   0.06912   0.07240

 Mulliken charges:
               1
     1  Mg   0.427478
     2  C   -0.077985
     3  C   -0.056420
     4  C   -0.054940
     5  C   -0.091352
     6  N   -0.267137
     7  C    0.166857
     8  C    0.014229
     9  C    0.005193
    10  C    0.071780
    11  C   -0.053007
    12  C   -0.023034
    13  C   -0.000812
    14  C    0.470223
    15  O   -0.497885
    16  O   -0.295888
    17  N   -0.319777
    18  C    0.045491
    19  C   -0.015158
    20  C   -0.076330
    21  C    0.110551
    22  C   -0.055835
    23  C    0.321439
    24  O   -0.537559
    25  C   -0.039396
    26  N   -0.271483
    27  C    0.084141
    28  C   -0.010498
    29  C    0.008399
    30  C    0.208429
    31  C   -0.047817
    32  C   -0.031233
    33  C   -0.066846
    34  N   -0.347957
    35  C    0.158930
    36  C    0.063766
    37  C   -0.044523
    38  C    0.144335
    39  C   -0.032006
    40  C    0.347824
    41  O   -0.481427
    42  C    0.053403
    43  C    0.485426
    44  O   -0.522184
    45  O   -0.266991
    46  C    0.074973
    47  C    0.111135
    48  C   -0.082788
    49  C   -0.002327
    50  C   -0.047318
    51  C   -0.013868
    52  C   -0.028797
    53  C   -0.027328
    54  C   -0.013933
    55  C   -0.060814
    56  C   -0.043240
    57  C   -0.033914
    58  C   -0.044778
    59  C   -0.004295
    60  C   -0.064443
    61  C   -0.055539
    62  C   -0.047403
    63  C   -0.025220
    64  C   -0.012701
    65  C   -0.061818
    66  C   -0.056073
    67  H    0.022516
    68  H    0.057839
    69  H    0.027962
    70  H    0.037000
    71  H    0.035141
    72  H    0.022424
    73  H    0.020186
    74  H    0.015970
    75  H    0.035641
    76  H    0.037784
    77  H    0.042302
    78  H    0.036948
    79  H    0.028260
    80  H    0.023070
    81  H    0.017637
    82  H    0.037869
    83  H    0.038320
    84  H    0.027780
    85  H    0.028709
    86  H    0.023785
    87  H    0.023297
    88  H    0.035739
    89  H    0.031631
    90  H    0.024620
    91  H    0.029958
    92  H    0.026173
    93  H    0.018162
    94  H    0.018734
    95  H    0.037041
    96  H    0.027746
    97  H    0.046670
    98  H    0.052061
    99  H    0.030356
   100  H    0.042783
   101  H    0.053168
   102  H    0.053146
   103  H    0.039224
   104  H    0.024950
   105  H    0.017927
   106  H    0.019214
   107  H    0.038485
   108  H    0.017470
   109  H    0.016112
   110  H    0.022434
   111  H    0.014456
   112  H    0.008667
   113  H    0.026687
   114  H    0.020668
   115  H    0.024100
   116  H    0.020048
   117  H    0.012422
   118  H    0.016850
   119  H    0.019036
   120  H    0.022576
   121  H    0.023856
   122  H    0.002984
   123  H    0.023398
   124  H    0.030451
   125  H    0.022486
   126  H    0.009194
   127  H    0.022520
   128  H    0.019618
   129  H    0.016070
   130  H    0.028541
   131  H    0.032593
   132  H    0.009585
   133  H    0.016899
   134  H    0.027832
   135  H    0.013838
   136  H    0.005554
   137  H    0.022480
   138  H    0.021700
   139  H    0.013985
   140  H    0.024737
 Sum of Mulliken charges =  -0.00000

 Dipole moment (field-independent basis, Debye):
    X=              0.2668    Y=             -3.8510    Z=             -2.3944  Tot=              4.5425
 N-N= 4.389890716206D+03 E-N= 0.000000000000D+00  KE=-9.453759860913D+03
 Leave Link  601 at Tue May  3 23:20:51 2022, MaxMem=  6710886400 cpu:               0.8 elap:               0.0
 (Enter /sw/apps/gaussian-16.0/g16/l9999.exe)
 1\1\GINC-BP1-COMPUTE062\SP\RZINDO CIS\STO-3G\C55H74Mg1N4O6\OF15641\03-
 May-2022\0\\#p ZINDO=(nstates=5)\\step_1051_chromophore_27 ZINDO\\0,1\
 Mg,0,-5.975,24.975,26.574\C,0,-4.439,26.897,28.979\C,0,-6.883,22.821,2
 9.04\C,0,-7.05,23.035,23.948\C,0,-4.73,27.356,24.167\N,0,-5.851,24.93,
 28.765\C,0,-5.192,25.843,29.527\C,0,-5.451,25.617,31.001\C,0,-6.009,24
 .215,31.05\C,0,-6.127,23.89,29.525\C,0,-5.211,23.083,31.774\C,0,-6.439
 ,26.759,31.674\C,0,-6.01,27.092,33.207\C,0,-6.88,26.671,34.394\O,0,-8.

 Normal termination of Gaussian 16 at Tue May  3 23:20:51 2022.
