 Gaussian 16, Revision A.03,
 Gaussian 16:  ES64L-G16RevA.03 25-Dec-2016

 ------------------------------
 #p blyp/Def2SVP td=(nstates=5)
 ------------------------------

 --------------------------------------------------
 step_401_chromophore_11 TDDFT with blyp functional
 --------------------------------------------------
 Symbolic Z-matrix:
 Charge =  0 Multiplicity = 1

                         Standard orientation:
 ---------------------------------------------------------------------
 Center     Atomic      Atomic             Coordinates (Angstroms)
 Number     Number       Type             X           Y           Z
 ---------------------------------------------------------------------
      1         12           0       -4.750354    1.369221    0.759249
      2          6           0       -5.345427   -2.191121    0.340589
      3          6           0       -2.305298    0.688948    2.962652
      4          6           0       -3.826327    4.530498    0.494252
      5          6           0       -7.260830    1.817080   -1.593194
      6          7           0       -3.838652   -0.657316    1.409005
      7          6           0       -4.274384   -1.937470    1.242153
      8          6           0       -3.563171   -2.914538    2.275020
      9          6           0       -2.789623   -1.945666    3.202363
     10          6           0       -3.014030   -0.525063    2.569796
     11          6           0       -3.210098   -1.934542    4.695881
     12          6           0       -2.686652   -3.922264    1.557147
     13          6           0       -1.612175   -3.279151    0.538778
     14          6           0       -0.211160   -4.033078    0.494453
     15          8           0        0.450241   -4.272730    1.474760
     16          8           0        0.199101   -4.321289   -0.781211
     17          7           0       -3.207398    2.475398    1.531777
     18          6           0       -2.267620    2.035431    2.400917
     19          6           0       -1.385249    3.095378    2.811057
     20          6           0       -1.755465    4.271002    1.995245
     21          6           0       -2.974698    3.850720    1.285510
     22          6           0       -0.271174    2.812295    3.759647
     23          6           0       -1.035398    5.640307    2.007932
     24          8           0       -0.144235    5.824517    2.825195
     25          6           0       -1.359220    6.786301    1.120805
     26          7           0       -5.491599    2.998036   -0.416398
     27          6           0       -4.899748    4.217106   -0.376943
     28          6           0       -5.452755    5.110619   -1.462906
     29          6           0       -6.660118    4.308903   -2.103168
     30          6           0       -6.470675    2.933751   -1.381822
     31          6           0       -5.801538    6.581636   -0.966748
     32          6           0       -6.650862    4.108907   -3.673779
     33          6           0       -7.726746    4.802344   -4.562083
     34          7           0       -6.159898    0.162452   -0.280463
     35          6           0       -7.168198    0.495677   -1.126581
     36          6           0       -8.003044   -0.638484   -1.565751
     37          6           0       -7.273860   -1.726434   -0.969191
     38          6           0       -6.129432   -1.175627   -0.234271
     39          6           0       -9.162393   -0.672016   -2.433954
     40          6           0       -7.253253   -3.129874   -0.885963
     41          8           0       -7.970006   -4.023967   -1.382630
     42          6           0       -6.011083   -3.509724    0.025803
     43          6           0       -5.118640   -4.391757   -0.821742
     44          8           0       -4.332618   -3.965766   -1.707252
     45          8           0       -5.270996   -5.732109   -0.499931
     46          6           0       -4.349878   -6.607005   -1.137380
     47          6           0        1.368027   -5.097475   -0.861153
     48          6           0        2.415243   -3.964430   -1.049801
     49          6           0        3.417517   -3.687467   -0.178458
     50          6           0        3.773963   -4.694338    1.006861
     51          6           0        4.262420   -2.460847   -0.462160
     52          6           0        5.716173   -2.437492   -1.013956
     53          6           0        5.963445   -1.124126   -1.780600
     54          6           0        6.382830    0.110739   -0.912772
     55          6           0        5.426126    1.346896   -1.093717
     56          6           0        7.809167    0.528260   -1.211952
     57          6           0        8.847583   -0.020571   -0.133992
     58          6           0        9.701490    1.031576    0.530131
     59          6           0       11.191718    0.557818    0.550305
     60          6           0       11.683897    0.455871    2.027694
     61          6           0       12.098524    1.513505   -0.249627
     62          6           0       12.820288    0.840859   -1.343497
     63          6           0       14.164201    0.332825   -0.990214
     64          6           0       15.364722    1.165079   -1.463788
     65          6           0       16.332799    0.413720   -2.456198
     66          6           0       16.184995    1.827015   -0.307457
     67          1           0       -1.738775    0.577528    3.889685
     68          1           0       -3.490168    5.541861    0.256171
     69          1           0       -8.027148    1.949595   -2.360655
     70          1           0       -4.320167   -3.403787    2.888675
     71          1           0       -1.739108   -2.235759    3.218415
     72          1           0       -3.020227   -0.958737    5.142359
     73          1           0       -2.568286   -2.661001    5.194026
     74          1           0       -4.270536   -2.175790    4.766475
     75          1           0       -3.185676   -4.833182    1.227934
     76          1           0       -2.152119   -4.386195    2.385413
     77          1           0       -1.324296   -2.281289    0.867235
     78          1           0       -2.062758   -3.206361   -0.451811
     79          1           0       -0.189534    1.780509    4.100771
     80          1           0       -0.327255    3.456216    4.637637
     81          1           0        0.686630    3.103032    3.329995
     82          1           0       -1.150220    6.501149    0.089863
     83          1           0       -0.662119    7.574018    1.406745
     84          1           0       -2.375573    7.164342    1.229232
     85          1           0       -4.759435    5.218293   -2.296886
     86          1           0       -7.547717    4.781613   -1.683745
     87          1           0       -5.486873    6.752716    0.062494
     88          1           0       -6.854632    6.849876   -1.053616
     89          1           0       -5.209475    7.159943   -1.676017
     90          1           0       -6.737648    3.047991   -3.913422
     91          1           0       -5.680631    4.392698   -4.082140
     92          1           0       -8.026265    5.740814   -4.093877
     93          1           0       -8.541362    4.113019   -4.784154
     94          1           0       -7.201522    4.827492   -5.516873
     95          1           0       -9.039185   -0.808100   -3.508409
     96          1           0       -9.733329    0.205560   -2.132668
     97          1           0       -9.727306   -1.525137   -2.057884
     98          1           0       -6.344683   -4.016819    0.930953
     99          1           0       -3.300293   -6.319820   -1.199427
    100          1           0       -4.646975   -6.702379   -2.181487
    101          1           0       -4.444163   -7.577239   -0.650192
    102          1           0        1.331726   -5.728048   -1.749064
    103          1           0        1.519663   -5.749970   -0.000537
    104          1           0        2.191541   -3.375812   -1.939540
    105          1           0        2.951501   -5.228456    1.484025
    106          1           0        4.377657   -4.250232    1.797715
    107          1           0        4.497592   -5.412667    0.623875
    108          1           0        4.308233   -1.947871    0.498691
    109          1           0        3.632644   -1.729791   -0.969024
    110          1           0        5.921131   -3.221658   -1.742602
    111          1           0        6.461053   -2.465934   -0.218818
    112          1           0        5.051987   -0.911448   -2.340063
    113          1           0        6.769696   -1.264955   -2.500236
    114          1           0        6.107782   -0.195045    0.096394
    115          1           0        4.489429    1.168981   -0.565370
    116          1           0        5.126840    1.386640   -2.141878
    117          1           0        5.797190    2.312877   -0.751884
    118          1           0        8.048719    1.567858   -1.435345
    119          1           0        8.179777    0.248367   -2.197799
    120          1           0        9.572682   -0.559654   -0.743424
    121          1           0        8.304408   -0.605093    0.608402
    122          1           0        9.364565    0.991002    1.565929
    123          1           0        9.468253    2.019557    0.132255
    124          1           0       11.282683   -0.458103    0.166166
    125          1           0       12.757809    0.617496    2.125599
    126          1           0       11.515635   -0.547635    2.418515
    127          1           0       11.119345    1.147469    2.653665
    128          1           0       12.812625    1.989978    0.421211
    129          1           0       11.445582    2.222234   -0.760210
    130          1           0       12.837334    1.528106   -2.189220
    131          1           0       12.206797    0.048403   -1.770903
    132          1           0       14.293721   -0.738858   -1.140192
    133          1           0       14.279304    0.275602    0.092118
    134          1           0       14.972631    2.017118   -2.018632
    135          1           0       16.718364    1.088306   -3.222439
    136          1           0       15.735289   -0.284077   -3.042973
    137          1           0       17.152225   -0.061338   -1.917902
    138          1           0       16.327545    2.886729   -0.514449
    139          1           0       17.190018    1.415344   -0.207947
    140          1           0       15.643574    1.664968    0.624151
 ---------------------------------------------------------------------

 SCF Done:  E(RB-LYP) =  -3007.36062224     A.U. after   21 cycles

 Excitation energies and oscillator strengths:

 Excited State   1:      Singlet-A      1.7835 eV  695.16 nm  f=0.3008  <S**2>=0.000
     245 -> 248        0.20637
     246 -> 247        0.68505
     246 <- 247       -0.14687
 This state for optimization and/or second-order correction.
 Total Energy, E(TD-HF/TD-DFT) =  -3007.29507866
 Copying the excited state density for this state as the 1-particle RhoCI density.

 Excited State   2:      Singlet-A      1.8650 eV  664.80 nm  f=0.0015  <S**2>=0.000
     244 -> 247        0.69444
     245 -> 247        0.12128

 Excited State   3:      Singlet-A      1.9122 eV  648.40 nm  f=0.0000  <S**2>=0.000
     243 -> 247        0.70501

 Excited State   4:      Singlet-A      1.9509 eV  635.52 nm  f=0.0600  <S**2>=0.000
     244 -> 247       -0.12645
     245 -> 247        0.63924
     246 -> 248       -0.24033

 Excited State   5:      Singlet-A      2.1451 eV  577.98 nm  f=0.0000  <S**2>=0.000
     242 -> 247        0.70707

 The electronic state is 1-A.
 Alpha  occ. eigenvalues --  -46.28122 -18.82472 -18.81919 -18.76982 -18.76751
 Alpha  occ. eigenvalues --  -18.75510 -18.75409 -14.03570 -14.03403 -14.01525
 Alpha  occ. eigenvalues --  -14.01218 -10.04206 -10.04126 -10.00100  -9.99300
 Alpha  occ. eigenvalues --   -9.97651  -9.97158  -9.97139  -9.97094  -9.97036
 Alpha  occ. eigenvalues --   -9.96649  -9.96167  -9.95956  -9.95913  -9.95272
 Alpha  occ. eigenvalues --   -9.94746  -9.94741  -9.94612  -9.94421  -9.94255
 Alpha  occ. eigenvalues --   -9.94224  -9.94027  -9.93978  -9.93881  -9.93723
 Alpha  occ. eigenvalues --   -9.93717  -9.93551  -9.93356  -9.93129  -9.92977
 Alpha  occ. eigenvalues --   -9.92747  -9.92691  -9.92679  -9.92609  -9.92560
 Alpha  occ. eigenvalues --   -9.92256  -9.91928  -9.91800  -9.91718  -9.91637
 Alpha  occ. eigenvalues --   -9.91629  -9.91519  -9.91499  -9.91249  -9.91193
 Alpha  occ. eigenvalues --   -9.90738  -9.90697  -9.90620  -9.90527  -9.90472
 Alpha  occ. eigenvalues --   -9.90403  -9.90341  -9.90276  -9.90192  -9.90096
 Alpha  occ. eigenvalues --   -9.90049  -2.92604  -1.73030  -1.72486  -1.72320
 Alpha  occ. eigenvalues --   -0.99035  -0.97455  -0.91727  -0.90954  -0.89822
 Alpha  occ. eigenvalues --   -0.88700  -0.86815  -0.85866  -0.84838  -0.83998
 Alpha  occ. eigenvalues --   -0.75416  -0.73502  -0.72621  -0.72499  -0.72397
 Alpha  occ. eigenvalues --   -0.71801  -0.71246  -0.71141  -0.70377  -0.70271
 Alpha  occ. eigenvalues --   -0.69201  -0.68703  -0.67927  -0.67675  -0.66996
 Alpha  occ. eigenvalues --   -0.66348  -0.66036  -0.65524  -0.64785  -0.64332
 Alpha  occ. eigenvalues --   -0.63710  -0.62765  -0.61931  -0.61497  -0.60635
 Alpha  occ. eigenvalues --   -0.60213  -0.59990  -0.59583  -0.59506  -0.58995
 Alpha  occ. eigenvalues --   -0.57889  -0.57478  -0.56929  -0.55823  -0.54654
 Alpha  occ. eigenvalues --   -0.54311  -0.53340  -0.52824  -0.52471  -0.51623
 Alpha  occ. eigenvalues --   -0.51001  -0.50722  -0.50598  -0.50401  -0.49770
 Alpha  occ. eigenvalues --   -0.49596  -0.49218  -0.48884  -0.48862  -0.46592
 Alpha  occ. eigenvalues --   -0.46402  -0.45926  -0.45470  -0.45239  -0.44779
 Alpha  occ. eigenvalues --   -0.44263  -0.44117  -0.43378  -0.42484  -0.42189
 Alpha  occ. eigenvalues --   -0.41679  -0.41498  -0.41391  -0.41300  -0.40804
 Alpha  occ. eigenvalues --   -0.40659  -0.40420  -0.40117  -0.40019  -0.39745
 Alpha  occ. eigenvalues --   -0.39613  -0.39513  -0.39394  -0.39302  -0.39226
 Alpha  occ. eigenvalues --   -0.39166  -0.38928  -0.38614  -0.38556  -0.37828
 Alpha  occ. eigenvalues --   -0.37800  -0.37605  -0.37425  -0.37298  -0.36999
 Alpha  occ. eigenvalues --   -0.36770  -0.36760  -0.36540  -0.36358  -0.36273
 Alpha  occ. eigenvalues --   -0.36231  -0.36011  -0.35829  -0.35683  -0.35419
 Alpha  occ. eigenvalues --   -0.35320  -0.34981  -0.34882  -0.34693  -0.34630
 Alpha  occ. eigenvalues --   -0.34464  -0.34247  -0.33792  -0.33694  -0.33591
 Alpha  occ. eigenvalues --   -0.33447  -0.33205  -0.33180  -0.33037  -0.32914
 Alpha  occ. eigenvalues --   -0.32810  -0.32569  -0.32431  -0.32151  -0.32102
 Alpha  occ. eigenvalues --   -0.32032  -0.31932  -0.31611  -0.31552  -0.31168
 Alpha  occ. eigenvalues --   -0.31115  -0.31023  -0.30875  -0.30702  -0.30647
 Alpha  occ. eigenvalues --   -0.30459  -0.30316  -0.30187  -0.29924  -0.29879
 Alpha  occ. eigenvalues --   -0.29611  -0.29415  -0.29289  -0.29009  -0.28928
 Alpha  occ. eigenvalues --   -0.28625  -0.28408  -0.28215  -0.27995  -0.27778
 Alpha  occ. eigenvalues --   -0.27374  -0.27127  -0.26934  -0.26684  -0.26619
 Alpha  occ. eigenvalues --   -0.26354  -0.26260  -0.25586  -0.25229  -0.24729
 Alpha  occ. eigenvalues --   -0.24574  -0.24259  -0.24088  -0.23808  -0.23692
 Alpha  occ. eigenvalues --   -0.23118  -0.22301  -0.21986  -0.21658  -0.21027
 Alpha  occ. eigenvalues --   -0.20251  -0.19695  -0.18745  -0.18537  -0.17395
 Alpha  occ. eigenvalues --   -0.16052
 Alpha virt. eigenvalues --   -0.11812  -0.07460  -0.06763  -0.04981  -0.03378
 Alpha virt. eigenvalues --   -0.02756  -0.02308  -0.01976  -0.00988  -0.00365
 Alpha virt. eigenvalues --    0.01196   0.01428   0.02508   0.03135   0.03169

 Mulliken charges:
               1
     1  Mg   0.686971
     2  C   -0.015621
     3  C   -0.059982
     4  C   -0.049462
     5  C   -0.063064
     6  N   -0.224165
     7  C   -0.083713
     8  C    0.075849
     9  C   -0.038481
    10  C    0.028121
    11  C    0.124493
    12  C    0.101118
    13  C    0.121240
    14  C    0.061426
    15  O   -0.177061
    16  O   -0.234893
    17  N   -0.323625
    18  C    0.128371
    19  C   -0.124890
    20  C    0.051530
    21  C    0.148737
    22  C    0.182116
    23  C   -0.096355
    24  O   -0.166631
    25  C    0.142099
    26  N   -0.219512
    27  C   -0.013199
    28  C    0.011428
    29  C    0.065882
    30  C   -0.013323
    31  C    0.114042
    32  C    0.055205
    33  C    0.078219
    34  N   -0.209100
    35  C    0.090887
    36  C   -0.150573
    37  C    0.105266
    38  C    0.096652
    39  C    0.175617
    40  C   -0.081737
    41  O   -0.163746
    42  C    0.074417
    43  C    0.134074
    44  O   -0.219811
    45  O   -0.251475
    46  C    0.230280
    47  C    0.304549
    48  C   -0.125068
    49  C   -0.083047
    50  C    0.109479
    51  C    0.118134
    52  C    0.116686
    53  C    0.084804
    54  C   -0.039659
    55  C    0.075233
    56  C    0.115316
    57  C    0.044464
    58  C    0.132879
    59  C   -0.094741
    60  C    0.091617
    61  C    0.155276
    62  C    0.082060
    63  C    0.133647
    64  C   -0.088457
    65  C    0.095048
    66  C    0.097305
    67  H   -0.044575
    68  H   -0.086113
    69  H   -0.070003
    70  H   -0.033976
    71  H   -0.007660
    72  H   -0.005508
    73  H   -0.003109
    74  H   -0.008512
    75  H   -0.018531
    76  H   -0.025607
    77  H    0.013523
    78  H    0.014953
    79  H   -0.017015
    80  H   -0.001639
    81  H    0.001435
    82  H    0.008215
    83  H   -0.008080
    84  H    0.024713
    85  H   -0.016797
    86  H   -0.022216
    87  H    0.004567
    88  H   -0.005557
    89  H   -0.005543
    90  H   -0.014447
    91  H   -0.025137
    92  H    0.008306
    93  H   -0.007004
    94  H   -0.011061
    95  H    0.027145
    96  H   -0.007906
    97  H    0.005431
    98  H   -0.005367
    99  H    0.010111
   100  H    0.003833
   101  H    0.006663
   102  H   -0.014121
   103  H   -0.009514
   104  H   -0.030498
   105  H    0.022751
   106  H   -0.029542
   107  H   -0.009737
   108  H   -0.037085
   109  H   -0.035368
   110  H   -0.030101
   111  H   -0.023508
   112  H   -0.038295
   113  H   -0.041758
   114  H   -0.029361
   115  H   -0.026823
   116  H   -0.021302
   117  H   -0.008503
   118  H   -0.058585
   119  H   -0.053763
   120  H   -0.029673
   121  H   -0.014661
   122  H   -0.049130
   123  H   -0.023247
   124  H   -0.027492
   125  H   -0.018113
   126  H   -0.026909
   127  H   -0.012904
   128  H   -0.033688
   129  H   -0.050480
   130  H   -0.046663
   131  H   -0.049500
   132  H   -0.052656
   133  H   -0.062667
   134  H   -0.036542
   135  H   -0.019356
   136  H   -0.020943
   137  H   -0.004867
   138  H   -0.014666
   139  H   -0.021935
   140  H   -0.015470
 Sum of Mulliken charges =  -0.00000

 Dipole moment (field-independent basis, Debye):
    X=             -1.1752    Y=              2.2072    Z=             -0.4583  Tot=              2.5423
 Quadrupole moment (field-independent basis, Debye-Ang):
   XX=           -405.4254   YY=           -397.8537   ZZ=           -401.9153
   XY=            -43.7287   XZ=            -10.1233   YZ=            -26.4083

 Normal termination of Gaussian 16 at Fri Apr 29 16:58:38 2022.
