 Gaussian 16, Revision A.03,
 Gaussian 16:  ES64L-G16RevA.03 25-Dec-2016

 -----------------------------------
 #p cam-b3lyp/Def2SVP td=(nstates=5)
 -----------------------------------

 -------------------------------------------------------
 step_401_chromophore_11 TDDFT with cam-b3lyp functional
 -------------------------------------------------------
 Symbolic Z-matrix:
 Charge =  0 Multiplicity = 1

                         Standard orientation:
 ---------------------------------------------------------------------
 Center     Atomic      Atomic             Coordinates (Angstroms)
 Number     Number       Type             X           Y           Z
 ---------------------------------------------------------------------
      1         12           0       -4.750354    1.369221    0.759249
      2          6           0       -5.345427   -2.191121    0.340589
      3          6           0       -2.305298    0.688948    2.962652
      4          6           0       -3.826327    4.530498    0.494252
      5          6           0       -7.260830    1.817080   -1.593194
      6          7           0       -3.838652   -0.657316    1.409005
      7          6           0       -4.274384   -1.937470    1.242153
      8          6           0       -3.563171   -2.914538    2.275020
      9          6           0       -2.789623   -1.945666    3.202363
     10          6           0       -3.014030   -0.525063    2.569796
     11          6           0       -3.210098   -1.934542    4.695881
     12          6           0       -2.686652   -3.922264    1.557147
     13          6           0       -1.612175   -3.279151    0.538778
     14          6           0       -0.211160   -4.033078    0.494453
     15          8           0        0.450241   -4.272730    1.474760
     16          8           0        0.199101   -4.321289   -0.781211
     17          7           0       -3.207398    2.475398    1.531777
     18          6           0       -2.267620    2.035431    2.400917
     19          6           0       -1.385249    3.095378    2.811057
     20          6           0       -1.755465    4.271002    1.995245
     21          6           0       -2.974698    3.850720    1.285510
     22          6           0       -0.271174    2.812295    3.759647
     23          6           0       -1.035398    5.640307    2.007932
     24          8           0       -0.144235    5.824517    2.825195
     25          6           0       -1.359220    6.786301    1.120805
     26          7           0       -5.491599    2.998036   -0.416398
     27          6           0       -4.899748    4.217106   -0.376943
     28          6           0       -5.452755    5.110619   -1.462906
     29          6           0       -6.660118    4.308903   -2.103168
     30          6           0       -6.470675    2.933751   -1.381822
     31          6           0       -5.801538    6.581636   -0.966748
     32          6           0       -6.650862    4.108907   -3.673779
     33          6           0       -7.726746    4.802344   -4.562083
     34          7           0       -6.159898    0.162452   -0.280463
     35          6           0       -7.168198    0.495677   -1.126581
     36          6           0       -8.003044   -0.638484   -1.565751
     37          6           0       -7.273860   -1.726434   -0.969191
     38          6           0       -6.129432   -1.175627   -0.234271
     39          6           0       -9.162393   -0.672016   -2.433954
     40          6           0       -7.253253   -3.129874   -0.885963
     41          8           0       -7.970006   -4.023967   -1.382630
     42          6           0       -6.011083   -3.509724    0.025803
     43          6           0       -5.118640   -4.391757   -0.821742
     44          8           0       -4.332618   -3.965766   -1.707252
     45          8           0       -5.270996   -5.732109   -0.499931
     46          6           0       -4.349878   -6.607005   -1.137380
     47          6           0        1.368027   -5.097475   -0.861153
     48          6           0        2.415243   -3.964430   -1.049801
     49          6           0        3.417517   -3.687467   -0.178458
     50          6           0        3.773963   -4.694338    1.006861
     51          6           0        4.262420   -2.460847   -0.462160
     52          6           0        5.716173   -2.437492   -1.013956
     53          6           0        5.963445   -1.124126   -1.780600
     54          6           0        6.382830    0.110739   -0.912772
     55          6           0        5.426126    1.346896   -1.093717
     56          6           0        7.809167    0.528260   -1.211952
     57          6           0        8.847583   -0.020571   -0.133992
     58          6           0        9.701490    1.031576    0.530131
     59          6           0       11.191718    0.557818    0.550305
     60          6           0       11.683897    0.455871    2.027694
     61          6           0       12.098524    1.513505   -0.249627
     62          6           0       12.820288    0.840859   -1.343497
     63          6           0       14.164201    0.332825   -0.990214
     64          6           0       15.364722    1.165079   -1.463788
     65          6           0       16.332799    0.413720   -2.456198
     66          6           0       16.184995    1.827015   -0.307457
     67          1           0       -1.738775    0.577528    3.889685
     68          1           0       -3.490168    5.541861    0.256171
     69          1           0       -8.027148    1.949595   -2.360655
     70          1           0       -4.320167   -3.403787    2.888675
     71          1           0       -1.739108   -2.235759    3.218415
     72          1           0       -3.020227   -0.958737    5.142359
     73          1           0       -2.568286   -2.661001    5.194026
     74          1           0       -4.270536   -2.175790    4.766475
     75          1           0       -3.185676   -4.833182    1.227934
     76          1           0       -2.152119   -4.386195    2.385413
     77          1           0       -1.324296   -2.281289    0.867235
     78          1           0       -2.062758   -3.206361   -0.451811
     79          1           0       -0.189534    1.780509    4.100771
     80          1           0       -0.327255    3.456216    4.637637
     81          1           0        0.686630    3.103032    3.329995
     82          1           0       -1.150220    6.501149    0.089863
     83          1           0       -0.662119    7.574018    1.406745
     84          1           0       -2.375573    7.164342    1.229232
     85          1           0       -4.759435    5.218293   -2.296886
     86          1           0       -7.547717    4.781613   -1.683745
     87          1           0       -5.486873    6.752716    0.062494
     88          1           0       -6.854632    6.849876   -1.053616
     89          1           0       -5.209475    7.159943   -1.676017
     90          1           0       -6.737648    3.047991   -3.913422
     91          1           0       -5.680631    4.392698   -4.082140
     92          1           0       -8.026265    5.740814   -4.093877
     93          1           0       -8.541362    4.113019   -4.784154
     94          1           0       -7.201522    4.827492   -5.516873
     95          1           0       -9.039185   -0.808100   -3.508409
     96          1           0       -9.733329    0.205560   -2.132668
     97          1           0       -9.727306   -1.525137   -2.057884
     98          1           0       -6.344683   -4.016819    0.930953
     99          1           0       -3.300293   -6.319820   -1.199427
    100          1           0       -4.646975   -6.702379   -2.181487
    101          1           0       -4.444163   -7.577239   -0.650192
    102          1           0        1.331726   -5.728048   -1.749064
    103          1           0        1.519663   -5.749970   -0.000537
    104          1           0        2.191541   -3.375812   -1.939540
    105          1           0        2.951501   -5.228456    1.484025
    106          1           0        4.377657   -4.250232    1.797715
    107          1           0        4.497592   -5.412667    0.623875
    108          1           0        4.308233   -1.947871    0.498691
    109          1           0        3.632644   -1.729791   -0.969024
    110          1           0        5.921131   -3.221658   -1.742602
    111          1           0        6.461053   -2.465934   -0.218818
    112          1           0        5.051987   -0.911448   -2.340063
    113          1           0        6.769696   -1.264955   -2.500236
    114          1           0        6.107782   -0.195045    0.096394
    115          1           0        4.489429    1.168981   -0.565370
    116          1           0        5.126840    1.386640   -2.141878
    117          1           0        5.797190    2.312877   -0.751884
    118          1           0        8.048719    1.567858   -1.435345
    119          1           0        8.179777    0.248367   -2.197799
    120          1           0        9.572682   -0.559654   -0.743424
    121          1           0        8.304408   -0.605093    0.608402
    122          1           0        9.364565    0.991002    1.565929
    123          1           0        9.468253    2.019557    0.132255
    124          1           0       11.282683   -0.458103    0.166166
    125          1           0       12.757809    0.617496    2.125599
    126          1           0       11.515635   -0.547635    2.418515
    127          1           0       11.119345    1.147469    2.653665
    128          1           0       12.812625    1.989978    0.421211
    129          1           0       11.445582    2.222234   -0.760210
    130          1           0       12.837334    1.528106   -2.189220
    131          1           0       12.206797    0.048403   -1.770903
    132          1           0       14.293721   -0.738858   -1.140192
    133          1           0       14.279304    0.275602    0.092118
    134          1           0       14.972631    2.017118   -2.018632
    135          1           0       16.718364    1.088306   -3.222439
    136          1           0       15.735289   -0.284077   -3.042973
    137          1           0       17.152225   -0.061338   -1.917902
    138          1           0       16.327545    2.886729   -0.514449
    139          1           0       17.190018    1.415344   -0.207947
    140          1           0       15.643574    1.664968    0.624151
 ---------------------------------------------------------------------

 SCF Done:  E(RCAM-B3LYP) =  -3007.14081333     A.U. after   17 cycles

 Excitation energies and oscillator strengths:

 Excited State   1:      Singlet-A      1.6853 eV  735.67 nm  f=0.3820  <S**2>=0.000
     245 -> 248       -0.19133
     246 -> 247        0.68076
     245 <- 248       -0.11074
 This state for optimization and/or second-order correction.
 Total Energy, E(TD-HF/TD-DFT) =  -3007.07887851
 Copying the excited state density for this state as the 1-particle RhoCI density.

 Excited State   2:      Singlet-A      2.1627 eV  573.28 nm  f=0.0820  <S**2>=0.000
     245 -> 247        0.63033
     246 -> 248        0.30720

 Excited State   3:      Singlet-A      3.3032 eV  375.35 nm  f=0.0034  <S**2>=0.000
     241 -> 247        0.50738
     241 -> 249       -0.31055
     241 -> 250       -0.13502
     242 -> 247        0.24440
     242 -> 249       -0.11941
     243 -> 247       -0.11809

 Excited State   4:      Singlet-A      3.3229 eV  373.12 nm  f=0.0371  <S**2>=0.000
     241 -> 247        0.11777
     243 -> 247        0.63782
     246 -> 248        0.21729

 Excited State   5:      Singlet-A      3.4373 eV  360.70 nm  f=0.5746  <S**2>=0.000
     242 -> 247        0.23270
     243 -> 247       -0.19702
     245 -> 247       -0.27502
     246 -> 248        0.55855
     245 <- 247        0.10349

 The electronic state is 1-A.
 Alpha  occ. eigenvalues --  -46.89740 -19.25457 -19.24592 -19.19917 -19.19900
 Alpha  occ. eigenvalues --  -19.18765 -19.18584 -14.42437 -14.42404 -14.39983
 Alpha  occ. eigenvalues --  -14.39746 -10.39854 -10.39374 -10.35278 -10.34720
 Alpha  occ. eigenvalues --  -10.32321 -10.31719 -10.31545 -10.31060 -10.31044
 Alpha  occ. eigenvalues --  -10.31027 -10.30621 -10.30328 -10.30161 -10.29696
 Alpha  occ. eigenvalues --  -10.29110 -10.28858 -10.28842 -10.28763 -10.28612
 Alpha  occ. eigenvalues --  -10.28482 -10.28295 -10.28220 -10.28151 -10.28074
 Alpha  occ. eigenvalues --  -10.27777 -10.27535 -10.27155 -10.27071 -10.26923
 Alpha  occ. eigenvalues --  -10.26884 -10.26752 -10.26504 -10.26416 -10.26299
 Alpha  occ. eigenvalues --  -10.26214 -10.25786 -10.25673 -10.25488 -10.25426
 Alpha  occ. eigenvalues --  -10.25232 -10.25168 -10.25137 -10.25060 -10.24948
 Alpha  occ. eigenvalues --  -10.24374 -10.24290 -10.24269 -10.24126 -10.24099
 Alpha  occ. eigenvalues --  -10.23994 -10.23933 -10.23877 -10.23777 -10.23630
 Alpha  occ. eigenvalues --  -10.23614  -3.18120  -1.93026  -1.92564  -1.92429
 Alpha  occ. eigenvalues --   -1.17409  -1.15957  -1.10173  -1.08782  -1.08166
 Alpha  occ. eigenvalues --   -1.06707  -1.04518  -1.03537  -1.02434  -1.01543
 Alpha  occ. eigenvalues --   -0.92596  -0.90327  -0.89391  -0.89242  -0.89168
 Alpha  occ. eigenvalues --   -0.88424  -0.87881  -0.87817  -0.86917  -0.86807
 Alpha  occ. eigenvalues --   -0.85756  -0.85092  -0.84140  -0.83859  -0.83091
 Alpha  occ. eigenvalues --   -0.82495  -0.82191  -0.81492  -0.80576  -0.80164
 Alpha  occ. eigenvalues --   -0.79469  -0.78392  -0.77520  -0.77036  -0.76068
 Alpha  occ. eigenvalues --   -0.75533  -0.75299  -0.74906  -0.74808  -0.74226
 Alpha  occ. eigenvalues --   -0.72936  -0.72454  -0.71868  -0.70644  -0.69264
 Alpha  occ. eigenvalues --   -0.68945  -0.67864  -0.67372  -0.66829  -0.65747
 Alpha  occ. eigenvalues --   -0.65025  -0.64755  -0.64638  -0.64553  -0.63814
 Alpha  occ. eigenvalues --   -0.63517  -0.63012  -0.62793  -0.62587  -0.60258
 Alpha  occ. eigenvalues --   -0.59902  -0.59403  -0.58959  -0.58609  -0.58428
 Alpha  occ. eigenvalues --   -0.57729  -0.57570  -0.56654  -0.55840  -0.55316
 Alpha  occ. eigenvalues --   -0.54973  -0.54552  -0.54410  -0.54080  -0.53766
 Alpha  occ. eigenvalues --   -0.53540  -0.53169  -0.52809  -0.52755  -0.52344
 Alpha  occ. eigenvalues --   -0.52243  -0.52161  -0.52071  -0.51857  -0.51756
 Alpha  occ. eigenvalues --   -0.51604  -0.51438  -0.51068  -0.51060  -0.50457
 Alpha  occ. eigenvalues --   -0.50034  -0.49897  -0.49811  -0.49526  -0.49492
 Alpha  occ. eigenvalues --   -0.49273  -0.49053  -0.48958  -0.48701  -0.48569
 Alpha  occ. eigenvalues --   -0.48302  -0.48266  -0.48096  -0.47872  -0.47771
 Alpha  occ. eigenvalues --   -0.47538  -0.46937  -0.46766  -0.46735  -0.46550
 Alpha  occ. eigenvalues --   -0.46293  -0.46141  -0.45811  -0.45569  -0.45257
 Alpha  occ. eigenvalues --   -0.45216  -0.45130  -0.44909  -0.44810  -0.44548
 Alpha  occ. eigenvalues --   -0.44502  -0.44335  -0.43995  -0.43827  -0.43729
 Alpha  occ. eigenvalues --   -0.43624  -0.43359  -0.43350  -0.43068  -0.42980
 Alpha  occ. eigenvalues --   -0.42571  -0.42496  -0.42300  -0.42245  -0.41977
 Alpha  occ. eigenvalues --   -0.41915  -0.41584  -0.41543  -0.41269  -0.41198
 Alpha  occ. eigenvalues --   -0.40951  -0.40916  -0.40516  -0.40282  -0.40014
 Alpha  occ. eigenvalues --   -0.39735  -0.39485  -0.39194  -0.38963  -0.38683
 Alpha  occ. eigenvalues --   -0.38226  -0.37938  -0.37920  -0.37775  -0.37343
 Alpha  occ. eigenvalues --   -0.37106  -0.36939  -0.36546  -0.36187  -0.35879
 Alpha  occ. eigenvalues --   -0.35389  -0.34943  -0.34584  -0.34334  -0.34320
 Alpha  occ. eigenvalues --   -0.34160  -0.33470  -0.33444  -0.31311  -0.31109
 Alpha  occ. eigenvalues --   -0.30695  -0.30286  -0.29443  -0.29265  -0.24124
 Alpha  occ. eigenvalues --   -0.21300
 Alpha virt. eigenvalues --   -0.08923  -0.02490  -0.00440   0.01898   0.02318
 Alpha virt. eigenvalues --    0.04298   0.05095   0.05669   0.06326   0.06745
 Alpha virt. eigenvalues --    0.07758   0.08500   0.08963   0.09298   0.09372

 Mulliken charges:
               1
     1  Mg   0.818385
     2  C   -0.036246
     3  C   -0.075778
     4  C   -0.068961
     5  C   -0.069526
     6  N   -0.288828
     7  C   -0.042436
     8  C    0.029641
     9  C   -0.091297
    10  C    0.043542
    11  C    0.070134
    12  C    0.044610
    13  C    0.053316
    14  C    0.145545
    15  O   -0.219055
    16  O   -0.299485
    17  N   -0.410912
    18  C    0.136907
    19  C   -0.128145
    20  C   -0.014522
    21  C    0.171478
    22  C    0.121330
    23  C   -0.017405
    24  O   -0.205548
    25  C    0.058133
    26  N   -0.291134
    27  C    0.013890
    28  C   -0.041259
    29  C    0.011551
    30  C    0.005258
    31  C    0.055059
    32  C   -0.000260
    33  C    0.019228
    34  N   -0.298313
    35  C    0.094490
    36  C   -0.135250
    37  C    0.018167
    38  C    0.129119
    39  C    0.118997
    40  C    0.015613
    41  O   -0.203189
    42  C   -0.001658
    43  C    0.222034
    44  O   -0.255618
    45  O   -0.313396
    46  C    0.184806
    47  C    0.261568
    48  C   -0.142731
    49  C   -0.106378
    50  C    0.052469
    51  C    0.059800
    52  C    0.060960
    53  C    0.031263
    54  C   -0.102463
    55  C    0.024399
    56  C    0.058426
    57  C   -0.002568
    58  C    0.074132
    59  C   -0.153714
    60  C    0.039034
    61  C    0.098584
    62  C    0.022820
    63  C    0.071904
    64  C   -0.148184
    65  C    0.039001
    66  C    0.042036
    67  H   -0.013750
    68  H   -0.054005
    69  H   -0.035157
    70  H    0.002950
    71  H    0.027495
    72  H    0.018960
    73  H    0.021420
    74  H    0.015297
    75  H    0.009804
    76  H    0.008791
    77  H    0.043555
    78  H    0.049513
    79  H    0.010011
    80  H    0.026947
    81  H    0.029808
    82  H    0.036311
    83  H    0.028644
    84  H    0.049505
    85  H    0.017130
    86  H    0.011495
    87  H    0.028063
    88  H    0.019200
    89  H    0.018125
    90  H    0.015234
    91  H    0.003159
    92  H    0.028664
    93  H    0.015363
    94  H    0.013220
    95  H    0.054740
    96  H    0.017364
    97  H    0.034168
    98  H    0.038213
    99  H    0.032054
   100  H    0.029028
   101  H    0.031146
   102  H    0.015136
   103  H    0.021350
   104  H    0.004652
   105  H    0.046002
   106  H   -0.003518
   107  H    0.014196
   108  H   -0.009376
   109  H   -0.005737
   110  H   -0.000375
   111  H    0.001934
   112  H   -0.008764
   113  H   -0.010681
   114  H    0.000875
   115  H   -0.003021
   116  H    0.001455
   117  H    0.015568
   118  H   -0.027652
   119  H   -0.022859
   120  H   -0.002647
   121  H    0.010219
   122  H   -0.017504
   123  H    0.004712
   124  H    0.003975
   125  H    0.003253
   126  H   -0.001593
   127  H    0.010565
   128  H   -0.006035
   129  H   -0.018922
   130  H   -0.015473
   131  H   -0.019386
   132  H   -0.019608
   133  H   -0.033956
   134  H   -0.004340
   135  H    0.004996
   136  H    0.003183
   137  H    0.016582
   138  H    0.009456
   139  H    0.001711
   140  H    0.005789
 Sum of Mulliken charges =  -0.00000

 Dipole moment (field-independent basis, Debye):
    X=             -1.2306    Y=              2.5340    Z=             -0.4013  Tot=              2.8455
 Quadrupole moment (field-independent basis, Debye-Ang):
   XX=           -405.1429   YY=           -393.8011   ZZ=           -400.8052
   XY=            -45.0373   XZ=             -9.9511   YZ=            -27.9718

 Normal termination of Gaussian 16 at Fri Apr 29 16:05:47 2022.
