 Gaussian 16, Revision A.03,
 Gaussian 16:  ES64L-G16RevA.03 25-Dec-2016

 ---------------------------------
 #p PBE1PBE/Def2SVP td=(nstates=5)
 ---------------------------------

 -----------------------------------------------------
 step_401_chromophore_11 TDDFT with PBE1PBE functional
 -----------------------------------------------------
 Symbolic Z-matrix:
 Charge =  0 Multiplicity = 1

                         Standard orientation:
 ---------------------------------------------------------------------
 Center     Atomic      Atomic             Coordinates (Angstroms)
 Number     Number       Type             X           Y           Z
 ---------------------------------------------------------------------
      1         12           0       -4.750354    1.369221    0.759249
      2          6           0       -5.345427   -2.191121    0.340589
      3          6           0       -2.305298    0.688948    2.962652
      4          6           0       -3.826327    4.530498    0.494252
      5          6           0       -7.260830    1.817080   -1.593194
      6          7           0       -3.838652   -0.657316    1.409005
      7          6           0       -4.274384   -1.937470    1.242153
      8          6           0       -3.563171   -2.914538    2.275020
      9          6           0       -2.789623   -1.945666    3.202363
     10          6           0       -3.014030   -0.525063    2.569796
     11          6           0       -3.210098   -1.934542    4.695881
     12          6           0       -2.686652   -3.922264    1.557147
     13          6           0       -1.612175   -3.279151    0.538778
     14          6           0       -0.211160   -4.033078    0.494453
     15          8           0        0.450241   -4.272730    1.474760
     16          8           0        0.199101   -4.321289   -0.781211
     17          7           0       -3.207398    2.475398    1.531777
     18          6           0       -2.267620    2.035431    2.400917
     19          6           0       -1.385249    3.095378    2.811057
     20          6           0       -1.755465    4.271002    1.995245
     21          6           0       -2.974698    3.850720    1.285510
     22          6           0       -0.271174    2.812295    3.759647
     23          6           0       -1.035398    5.640307    2.007932
     24          8           0       -0.144235    5.824517    2.825195
     25          6           0       -1.359220    6.786301    1.120805
     26          7           0       -5.491599    2.998036   -0.416398
     27          6           0       -4.899748    4.217106   -0.376943
     28          6           0       -5.452755    5.110619   -1.462906
     29          6           0       -6.660118    4.308903   -2.103168
     30          6           0       -6.470675    2.933751   -1.381822
     31          6           0       -5.801538    6.581636   -0.966748
     32          6           0       -6.650862    4.108907   -3.673779
     33          6           0       -7.726746    4.802344   -4.562083
     34          7           0       -6.159898    0.162452   -0.280463
     35          6           0       -7.168198    0.495677   -1.126581
     36          6           0       -8.003044   -0.638484   -1.565751
     37          6           0       -7.273860   -1.726434   -0.969191
     38          6           0       -6.129432   -1.175627   -0.234271
     39          6           0       -9.162393   -0.672016   -2.433954
     40          6           0       -7.253253   -3.129874   -0.885963
     41          8           0       -7.970006   -4.023967   -1.382630
     42          6           0       -6.011083   -3.509724    0.025803
     43          6           0       -5.118640   -4.391757   -0.821742
     44          8           0       -4.332618   -3.965766   -1.707252
     45          8           0       -5.270996   -5.732109   -0.499931
     46          6           0       -4.349878   -6.607005   -1.137380
     47          6           0        1.368027   -5.097475   -0.861153
     48          6           0        2.415243   -3.964430   -1.049801
     49          6           0        3.417517   -3.687467   -0.178458
     50          6           0        3.773963   -4.694338    1.006861
     51          6           0        4.262420   -2.460847   -0.462160
     52          6           0        5.716173   -2.437492   -1.013956
     53          6           0        5.963445   -1.124126   -1.780600
     54          6           0        6.382830    0.110739   -0.912772
     55          6           0        5.426126    1.346896   -1.093717
     56          6           0        7.809167    0.528260   -1.211952
     57          6           0        8.847583   -0.020571   -0.133992
     58          6           0        9.701490    1.031576    0.530131
     59          6           0       11.191718    0.557818    0.550305
     60          6           0       11.683897    0.455871    2.027694
     61          6           0       12.098524    1.513505   -0.249627
     62          6           0       12.820288    0.840859   -1.343497
     63          6           0       14.164201    0.332825   -0.990214
     64          6           0       15.364722    1.165079   -1.463788
     65          6           0       16.332799    0.413720   -2.456198
     66          6           0       16.184995    1.827015   -0.307457
     67          1           0       -1.738775    0.577528    3.889685
     68          1           0       -3.490168    5.541861    0.256171
     69          1           0       -8.027148    1.949595   -2.360655
     70          1           0       -4.320167   -3.403787    2.888675
     71          1           0       -1.739108   -2.235759    3.218415
     72          1           0       -3.020227   -0.958737    5.142359
     73          1           0       -2.568286   -2.661001    5.194026
     74          1           0       -4.270536   -2.175790    4.766475
     75          1           0       -3.185676   -4.833182    1.227934
     76          1           0       -2.152119   -4.386195    2.385413
     77          1           0       -1.324296   -2.281289    0.867235
     78          1           0       -2.062758   -3.206361   -0.451811
     79          1           0       -0.189534    1.780509    4.100771
     80          1           0       -0.327255    3.456216    4.637637
     81          1           0        0.686630    3.103032    3.329995
     82          1           0       -1.150220    6.501149    0.089863
     83          1           0       -0.662119    7.574018    1.406745
     84          1           0       -2.375573    7.164342    1.229232
     85          1           0       -4.759435    5.218293   -2.296886
     86          1           0       -7.547717    4.781613   -1.683745
     87          1           0       -5.486873    6.752716    0.062494
     88          1           0       -6.854632    6.849876   -1.053616
     89          1           0       -5.209475    7.159943   -1.676017
     90          1           0       -6.737648    3.047991   -3.913422
     91          1           0       -5.680631    4.392698   -4.082140
     92          1           0       -8.026265    5.740814   -4.093877
     93          1           0       -8.541362    4.113019   -4.784154
     94          1           0       -7.201522    4.827492   -5.516873
     95          1           0       -9.039185   -0.808100   -3.508409
     96          1           0       -9.733329    0.205560   -2.132668
     97          1           0       -9.727306   -1.525137   -2.057884
     98          1           0       -6.344683   -4.016819    0.930953
     99          1           0       -3.300293   -6.319820   -1.199427
    100          1           0       -4.646975   -6.702379   -2.181487
    101          1           0       -4.444163   -7.577239   -0.650192
    102          1           0        1.331726   -5.728048   -1.749064
    103          1           0        1.519663   -5.749970   -0.000537
    104          1           0        2.191541   -3.375812   -1.939540
    105          1           0        2.951501   -5.228456    1.484025
    106          1           0        4.377657   -4.250232    1.797715
    107          1           0        4.497592   -5.412667    0.623875
    108          1           0        4.308233   -1.947871    0.498691
    109          1           0        3.632644   -1.729791   -0.969024
    110          1           0        5.921131   -3.221658   -1.742602
    111          1           0        6.461053   -2.465934   -0.218818
    112          1           0        5.051987   -0.911448   -2.340063
    113          1           0        6.769696   -1.264955   -2.500236
    114          1           0        6.107782   -0.195045    0.096394
    115          1           0        4.489429    1.168981   -0.565370
    116          1           0        5.126840    1.386640   -2.141878
    117          1           0        5.797190    2.312877   -0.751884
    118          1           0        8.048719    1.567858   -1.435345
    119          1           0        8.179777    0.248367   -2.197799
    120          1           0        9.572682   -0.559654   -0.743424
    121          1           0        8.304408   -0.605093    0.608402
    122          1           0        9.364565    0.991002    1.565929
    123          1           0        9.468253    2.019557    0.132255
    124          1           0       11.282683   -0.458103    0.166166
    125          1           0       12.757809    0.617496    2.125599
    126          1           0       11.515635   -0.547635    2.418515
    127          1           0       11.119345    1.147469    2.653665
    128          1           0       12.812625    1.989978    0.421211
    129          1           0       11.445582    2.222234   -0.760210
    130          1           0       12.837334    1.528106   -2.189220
    131          1           0       12.206797    0.048403   -1.770903
    132          1           0       14.293721   -0.738858   -1.140192
    133          1           0       14.279304    0.275602    0.092118
    134          1           0       14.972631    2.017118   -2.018632
    135          1           0       16.718364    1.088306   -3.222439
    136          1           0       15.735289   -0.284077   -3.042973
    137          1           0       17.152225   -0.061338   -1.917902
    138          1           0       16.327545    2.886729   -0.514449
    139          1           0       17.190018    1.415344   -0.207947
    140          1           0       15.643574    1.664968    0.624151
 ---------------------------------------------------------------------

 SCF Done:  E(RPBE1PBE) =  -3005.33126777     A.U. after   16 cycles

 Excitation energies and oscillator strengths:

 Excited State   1:      Singlet-A      1.8381 eV  674.51 nm  f=0.3705  <S**2>=0.000
     245 -> 248        0.18488
     246 -> 247        0.68865
     246 <- 247       -0.10415
 This state for optimization and/or second-order correction.
 Total Energy, E(TD-HF/TD-DFT) =  -3005.26371701
 Copying the excited state density for this state as the 1-particle RhoCI density.

 Excited State   2:      Singlet-A      2.1678 eV  571.93 nm  f=0.0828  <S**2>=0.000
     245 -> 247        0.64641
     246 -> 248       -0.27275

 Excited State   3:      Singlet-A      2.8455 eV  435.73 nm  f=0.0001  <S**2>=0.000
     242 -> 247        0.66165
     242 -> 249       -0.19337

 Excited State   4:      Singlet-A      2.9514 eV  420.08 nm  f=0.0039  <S**2>=0.000
     243 -> 247        0.68806

 Excited State   5:      Singlet-A      3.1441 eV  394.34 nm  f=0.0009  <S**2>=0.000
     240 -> 247        0.43063
     241 -> 247        0.50489

 The electronic state is 1-A.
 Alpha  occ. eigenvalues --  -46.93115 -19.26059 -19.25326 -19.20159 -19.20123
 Alpha  occ. eigenvalues --  -19.18952 -19.18839 -14.42017 -14.41855 -14.39604
 Alpha  occ. eigenvalues --  -14.39368 -10.36859 -10.36417 -10.32413 -10.31840
 Alpha  occ. eigenvalues --  -10.30116 -10.29465 -10.29248 -10.28813 -10.28473
 Alpha  occ. eigenvalues --  -10.28269 -10.28232 -10.27991 -10.27893 -10.27366
 Alpha  occ. eigenvalues --  -10.26705 -10.26635 -10.26620 -10.26514 -10.26433
 Alpha  occ. eigenvalues --  -10.26098 -10.26069 -10.25953 -10.25926 -10.25895
 Alpha  occ. eigenvalues --  -10.25277 -10.25157 -10.24808 -10.24774 -10.24435
 Alpha  occ. eigenvalues --  -10.24428 -10.24325 -10.23902 -10.23887 -10.23653
 Alpha  occ. eigenvalues --  -10.23585 -10.23540 -10.23203 -10.23115 -10.23104
 Alpha  occ. eigenvalues --  -10.22776 -10.22699 -10.22678 -10.22660 -10.22585
 Alpha  occ. eigenvalues --  -10.21958 -10.21871 -10.21678 -10.21655 -10.21522
 Alpha  occ. eigenvalues --  -10.21455 -10.21396 -10.21349 -10.21311 -10.21154
 Alpha  occ. eigenvalues --  -10.21118  -3.15081  -1.87926  -1.87443  -1.87312
 Alpha  occ. eigenvalues --   -1.12253  -1.10699  -1.04894  -1.03656  -1.02877
 Alpha  occ. eigenvalues --   -1.01454  -0.99171  -0.98146  -0.97045  -0.96139
 Alpha  occ. eigenvalues --   -0.86948  -0.84426  -0.83615  -0.83470  -0.83357
 Alpha  occ. eigenvalues --   -0.82696  -0.82115  -0.81991  -0.81190  -0.80974
 Alpha  occ. eigenvalues --   -0.80037  -0.79325  -0.78316  -0.78119  -0.77315
 Alpha  occ. eigenvalues --   -0.76690  -0.76361  -0.75752  -0.74859  -0.74457
 Alpha  occ. eigenvalues --   -0.73650  -0.72739  -0.71806  -0.71291  -0.70383
 Alpha  occ. eigenvalues --   -0.69889  -0.69437  -0.68985  -0.68947  -0.68394
 Alpha  occ. eigenvalues --   -0.67372  -0.66764  -0.66295  -0.64945  -0.63646
 Alpha  occ. eigenvalues --   -0.63411  -0.62108  -0.61817  -0.61074  -0.60110
 Alpha  occ. eigenvalues --   -0.59584  -0.59288  -0.59068  -0.58747  -0.57959
 Alpha  occ. eigenvalues --   -0.57779  -0.57394  -0.57135  -0.56955  -0.54775
 Alpha  occ. eigenvalues --   -0.54325  -0.54019  -0.53559  -0.53187  -0.52847
 Alpha  occ. eigenvalues --   -0.52251  -0.51961  -0.51193  -0.50278  -0.49914
 Alpha  occ. eigenvalues --   -0.49552  -0.49101  -0.48886  -0.48517  -0.48367
 Alpha  occ. eigenvalues --   -0.48033  -0.47669  -0.47489  -0.47344  -0.46810
 Alpha  occ. eigenvalues --   -0.46687  -0.46588  -0.46535  -0.46366  -0.46274
 Alpha  occ. eigenvalues --   -0.46192  -0.46061  -0.45641  -0.45566  -0.45097
 Alpha  occ. eigenvalues --   -0.44550  -0.44435  -0.44345  -0.44094  -0.44070
 Alpha  occ. eigenvalues --   -0.43851  -0.43654  -0.43524  -0.43324  -0.43208
 Alpha  occ. eigenvalues --   -0.42926  -0.42826  -0.42700  -0.42487  -0.42420
 Alpha  occ. eigenvalues --   -0.42218  -0.41629  -0.41402  -0.41360  -0.41137
 Alpha  occ. eigenvalues --   -0.40896  -0.40813  -0.40564  -0.40331  -0.40063
 Alpha  occ. eigenvalues --   -0.39900  -0.39839  -0.39651  -0.39596  -0.39231
 Alpha  occ. eigenvalues --   -0.39103  -0.39040  -0.38688  -0.38618  -0.38502
 Alpha  occ. eigenvalues --   -0.38315  -0.38143  -0.38060  -0.37790  -0.37657
 Alpha  occ. eigenvalues --   -0.37391  -0.37361  -0.37083  -0.37047  -0.36826
 Alpha  occ. eigenvalues --   -0.36774  -0.36413  -0.36321  -0.36178  -0.36053
 Alpha  occ. eigenvalues --   -0.35890  -0.35772  -0.35468  -0.35167  -0.34830
 Alpha  occ. eigenvalues --   -0.34582  -0.34298  -0.33956  -0.33915  -0.33486
 Alpha  occ. eigenvalues --   -0.33003  -0.32940  -0.32788  -0.32561  -0.32392
 Alpha  occ. eigenvalues --   -0.31872  -0.31755  -0.31608  -0.31077  -0.30696
 Alpha  occ. eigenvalues --   -0.30330  -0.29865  -0.29773  -0.29245  -0.29203
 Alpha  occ. eigenvalues --   -0.29055  -0.28794  -0.28414  -0.26820  -0.26062
 Alpha  occ. eigenvalues --   -0.25986  -0.25459  -0.25000  -0.24576  -0.21067
 Alpha  occ. eigenvalues --   -0.18962
 Alpha virt. eigenvalues --   -0.11398  -0.05895  -0.04593  -0.02436  -0.00545
 Alpha virt. eigenvalues --   -0.00238   0.00694   0.01135   0.02195   0.02599
 Alpha virt. eigenvalues --    0.03907   0.04435   0.05328   0.06043   0.06092

 Mulliken charges:
               1
     1  Mg   0.964417
     2  C   -0.029511
     3  C   -0.072072
     4  C   -0.078733
     5  C   -0.062656
     6  N   -0.377153
     7  C    0.041013
     8  C   -0.042875
     9  C   -0.161006
    10  C    0.065282
    11  C    0.012319
    12  C   -0.006767
    13  C   -0.026105
    14  C    0.215845
    15  O   -0.250339
    16  O   -0.329918
    17  N   -0.523566
    18  C    0.167428
    19  C   -0.157293
    20  C   -0.059240
    21  C    0.190975
    22  C    0.063190
    23  C    0.035283
    24  O   -0.239634
    25  C   -0.016746
    26  N   -0.397012
    27  C    0.063698
    28  C   -0.117754
    29  C   -0.063481
    30  C    0.046587
    31  C   -0.003524
    32  C   -0.057669
    33  C   -0.054654
    34  N   -0.426549
    35  C    0.110101
    36  C   -0.138875
    37  C   -0.029275
    38  C    0.164730
    39  C    0.062654
    40  C    0.101419
    41  O   -0.247587
    42  C   -0.116682
    43  C    0.310695
    44  O   -0.287584
    45  O   -0.346518
    46  C    0.128119
    47  C    0.212028
    48  C   -0.156004
    49  C   -0.141636
    50  C   -0.008825
    51  C   -0.000334
    52  C   -0.011244
    53  C   -0.018415
    54  C   -0.192285
    55  C   -0.035060
    56  C    0.012216
    57  C   -0.067723
    58  C    0.022681
    59  C   -0.237448
    60  C   -0.021468
    61  C    0.038390
    62  C   -0.043980
    63  C    0.017600
    64  C   -0.236489
    65  C   -0.023541
    66  C   -0.017402
    67  H    0.017665
    68  H   -0.015643
    69  H   -0.002343
    70  H    0.039655
    71  H    0.062606
    72  H    0.047037
    73  H    0.049142
    74  H    0.042950
    75  H    0.045307
    76  H    0.042118
    77  H    0.077551
    78  H    0.082623
    79  H    0.035741
    80  H    0.055032
    81  H    0.057977
    82  H    0.063407
    83  H    0.056479
    84  H    0.073835
    85  H    0.054598
    86  H    0.048899
    87  H    0.054838
    88  H    0.045874
    89  H    0.045378
    90  H    0.048043
    91  H    0.034795
    92  H    0.056010
    93  H    0.043421
    94  H    0.041361
    95  H    0.080270
    96  H    0.044782
    97  H    0.062534
    98  H    0.073560
    99  H    0.053489
   100  H    0.052255
   101  H    0.053476
   102  H    0.043311
   103  H    0.046625
   104  H    0.034564
   105  H    0.070693
   106  H    0.024151
   107  H    0.042994
   108  H    0.024663
   109  H    0.025049
   110  H    0.033232
   111  H    0.036434
   112  H    0.023603
   113  H    0.022053
   114  H    0.039296
   115  H    0.025574
   116  H    0.029522
   117  H    0.042871
   118  H    0.002564
   119  H    0.007966
   120  H    0.032010
   121  H    0.040964
   122  H    0.017497
   123  H    0.033773
   124  H    0.039665
   125  H    0.030120
   126  H    0.027172
   127  H    0.037767
   128  H    0.028387
   129  H    0.014869
   130  H    0.016932
   131  H    0.014577
   132  H    0.012190
   133  H    0.001715
   134  H    0.033815
   135  H    0.033036
   136  H    0.031472
   137  H    0.043197
   138  H    0.036744
   139  H    0.028597
   140  H    0.031572
 Sum of Mulliken charges =  -0.00000

 Dipole moment (field-independent basis, Debye):
    X=             -1.1968    Y=              2.5560    Z=             -0.4311  Tot=              2.8551
 Quadrupole moment (field-independent basis, Debye-Ang):
   XX=           -401.8594   YY=           -390.3712   ZZ=           -397.0183
   XY=            -45.8028   XZ=             -8.9628   YZ=            -29.0588

 Normal termination of Gaussian 16 at Fri Apr 29 16:23:05 2022.
