 Gaussian 16, Revision A.03,
 Gaussian 16:  ES64L-G16RevA.03 25-Dec-2016

 --------------------------------
 #p wB97XD/Def2SVP td=(nstates=5)
 --------------------------------

 ----------------------------------------------------
 step_401_chromophore_11 TDDFT with wB97XD functional
 ----------------------------------------------------
 Symbolic Z-matrix:
 Charge =  0 Multiplicity = 1

                         Standard orientation:
 ---------------------------------------------------------------------
 Center     Atomic      Atomic             Coordinates (Angstroms)
 Number     Number       Type             X           Y           Z
 ---------------------------------------------------------------------
      1         12           0       -4.750354    1.369221    0.759249
      2          6           0       -5.345427   -2.191121    0.340589
      3          6           0       -2.305298    0.688948    2.962652
      4          6           0       -3.826327    4.530498    0.494252
      5          6           0       -7.260830    1.817080   -1.593194
      6          7           0       -3.838652   -0.657316    1.409005
      7          6           0       -4.274384   -1.937470    1.242153
      8          6           0       -3.563171   -2.914538    2.275020
      9          6           0       -2.789623   -1.945666    3.202363
     10          6           0       -3.014030   -0.525063    2.569796
     11          6           0       -3.210098   -1.934542    4.695881
     12          6           0       -2.686652   -3.922264    1.557147
     13          6           0       -1.612175   -3.279151    0.538778
     14          6           0       -0.211160   -4.033078    0.494453
     15          8           0        0.450241   -4.272730    1.474760
     16          8           0        0.199101   -4.321289   -0.781211
     17          7           0       -3.207398    2.475398    1.531777
     18          6           0       -2.267620    2.035431    2.400917
     19          6           0       -1.385249    3.095378    2.811057
     20          6           0       -1.755465    4.271002    1.995245
     21          6           0       -2.974698    3.850720    1.285510
     22          6           0       -0.271174    2.812295    3.759647
     23          6           0       -1.035398    5.640307    2.007932
     24          8           0       -0.144235    5.824517    2.825195
     25          6           0       -1.359220    6.786301    1.120805
     26          7           0       -5.491599    2.998036   -0.416398
     27          6           0       -4.899748    4.217106   -0.376943
     28          6           0       -5.452755    5.110619   -1.462906
     29          6           0       -6.660118    4.308903   -2.103168
     30          6           0       -6.470675    2.933751   -1.381822
     31          6           0       -5.801538    6.581636   -0.966748
     32          6           0       -6.650862    4.108907   -3.673779
     33          6           0       -7.726746    4.802344   -4.562083
     34          7           0       -6.159898    0.162452   -0.280463
     35          6           0       -7.168198    0.495677   -1.126581
     36          6           0       -8.003044   -0.638484   -1.565751
     37          6           0       -7.273860   -1.726434   -0.969191
     38          6           0       -6.129432   -1.175627   -0.234271
     39          6           0       -9.162393   -0.672016   -2.433954
     40          6           0       -7.253253   -3.129874   -0.885963
     41          8           0       -7.970006   -4.023967   -1.382630
     42          6           0       -6.011083   -3.509724    0.025803
     43          6           0       -5.118640   -4.391757   -0.821742
     44          8           0       -4.332618   -3.965766   -1.707252
     45          8           0       -5.270996   -5.732109   -0.499931
     46          6           0       -4.349878   -6.607005   -1.137380
     47          6           0        1.368027   -5.097475   -0.861153
     48          6           0        2.415243   -3.964430   -1.049801
     49          6           0        3.417517   -3.687467   -0.178458
     50          6           0        3.773963   -4.694338    1.006861
     51          6           0        4.262420   -2.460847   -0.462160
     52          6           0        5.716173   -2.437492   -1.013956
     53          6           0        5.963445   -1.124126   -1.780600
     54          6           0        6.382830    0.110739   -0.912772
     55          6           0        5.426126    1.346896   -1.093717
     56          6           0        7.809167    0.528260   -1.211952
     57          6           0        8.847583   -0.020571   -0.133992
     58          6           0        9.701490    1.031576    0.530131
     59          6           0       11.191718    0.557818    0.550305
     60          6           0       11.683897    0.455871    2.027694
     61          6           0       12.098524    1.513505   -0.249627
     62          6           0       12.820288    0.840859   -1.343497
     63          6           0       14.164201    0.332825   -0.990214
     64          6           0       15.364722    1.165079   -1.463788
     65          6           0       16.332799    0.413720   -2.456198
     66          6           0       16.184995    1.827015   -0.307457
     67          1           0       -1.738775    0.577528    3.889685
     68          1           0       -3.490168    5.541861    0.256171
     69          1           0       -8.027148    1.949595   -2.360655
     70          1           0       -4.320167   -3.403787    2.888675
     71          1           0       -1.739108   -2.235759    3.218415
     72          1           0       -3.020227   -0.958737    5.142359
     73          1           0       -2.568286   -2.661001    5.194026
     74          1           0       -4.270536   -2.175790    4.766475
     75          1           0       -3.185676   -4.833182    1.227934
     76          1           0       -2.152119   -4.386195    2.385413
     77          1           0       -1.324296   -2.281289    0.867235
     78          1           0       -2.062758   -3.206361   -0.451811
     79          1           0       -0.189534    1.780509    4.100771
     80          1           0       -0.327255    3.456216    4.637637
     81          1           0        0.686630    3.103032    3.329995
     82          1           0       -1.150220    6.501149    0.089863
     83          1           0       -0.662119    7.574018    1.406745
     84          1           0       -2.375573    7.164342    1.229232
     85          1           0       -4.759435    5.218293   -2.296886
     86          1           0       -7.547717    4.781613   -1.683745
     87          1           0       -5.486873    6.752716    0.062494
     88          1           0       -6.854632    6.849876   -1.053616
     89          1           0       -5.209475    7.159943   -1.676017
     90          1           0       -6.737648    3.047991   -3.913422
     91          1           0       -5.680631    4.392698   -4.082140
     92          1           0       -8.026265    5.740814   -4.093877
     93          1           0       -8.541362    4.113019   -4.784154
     94          1           0       -7.201522    4.827492   -5.516873
     95          1           0       -9.039185   -0.808100   -3.508409
     96          1           0       -9.733329    0.205560   -2.132668
     97          1           0       -9.727306   -1.525137   -2.057884
     98          1           0       -6.344683   -4.016819    0.930953
     99          1           0       -3.300293   -6.319820   -1.199427
    100          1           0       -4.646975   -6.702379   -2.181487
    101          1           0       -4.444163   -7.577239   -0.650192
    102          1           0        1.331726   -5.728048   -1.749064
    103          1           0        1.519663   -5.749970   -0.000537
    104          1           0        2.191541   -3.375812   -1.939540
    105          1           0        2.951501   -5.228456    1.484025
    106          1           0        4.377657   -4.250232    1.797715
    107          1           0        4.497592   -5.412667    0.623875
    108          1           0        4.308233   -1.947871    0.498691
    109          1           0        3.632644   -1.729791   -0.969024
    110          1           0        5.921131   -3.221658   -1.742602
    111          1           0        6.461053   -2.465934   -0.218818
    112          1           0        5.051987   -0.911448   -2.340063
    113          1           0        6.769696   -1.264955   -2.500236
    114          1           0        6.107782   -0.195045    0.096394
    115          1           0        4.489429    1.168981   -0.565370
    116          1           0        5.126840    1.386640   -2.141878
    117          1           0        5.797190    2.312877   -0.751884
    118          1           0        8.048719    1.567858   -1.435345
    119          1           0        8.179777    0.248367   -2.197799
    120          1           0        9.572682   -0.559654   -0.743424
    121          1           0        8.304408   -0.605093    0.608402
    122          1           0        9.364565    0.991002    1.565929
    123          1           0        9.468253    2.019557    0.132255
    124          1           0       11.282683   -0.458103    0.166166
    125          1           0       12.757809    0.617496    2.125599
    126          1           0       11.515635   -0.547635    2.418515
    127          1           0       11.119345    1.147469    2.653665
    128          1           0       12.812625    1.989978    0.421211
    129          1           0       11.445582    2.222234   -0.760210
    130          1           0       12.837334    1.528106   -2.189220
    131          1           0       12.206797    0.048403   -1.770903
    132          1           0       14.293721   -0.738858   -1.140192
    133          1           0       14.279304    0.275602    0.092118
    134          1           0       14.972631    2.017118   -2.018632
    135          1           0       16.718364    1.088306   -3.222439
    136          1           0       15.735289   -0.284077   -3.042973
    137          1           0       17.152225   -0.061338   -1.917902
    138          1           0       16.327545    2.886729   -0.514449
    139          1           0       17.190018    1.415344   -0.207947
    140          1           0       15.643574    1.664968    0.624151
 ---------------------------------------------------------------------

 SCF Done:  E(RwB97XD) =  -3007.83852051     A.U. after   19 cycles

 Excitation energies and oscillator strengths:

 Excited State   1:      Singlet-A      1.6231 eV  763.85 nm  f=0.3794  <S**2>=0.000
     245 -> 248       -0.19724
     246 -> 247        0.67871
     245 <- 248       -0.12091
 This state for optimization and/or second-order correction.
 Total Energy, E(TD-HF/TD-DFT) =  -3007.77887119
 Copying the excited state density for this state as the 1-particle RhoCI density.

 Excited State   2:      Singlet-A      2.1072 eV  588.39 nm  f=0.0790  <S**2>=0.000
     245 -> 247        0.62812
     246 -> 248        0.31075

 Excited State   3:      Singlet-A      3.3309 eV  372.22 nm  f=0.0050  <S**2>=0.000
     241 -> 247        0.42173
     241 -> 249       -0.28884
     241 -> 250       -0.14410
     242 -> 247       -0.35001
     242 -> 249        0.20487
     243 -> 247       -0.13243

 Excited State   4:      Singlet-A      3.3524 eV  369.84 nm  f=0.0709  <S**2>=0.000
     241 -> 247        0.11216
     243 -> 247        0.60524
     243 -> 249        0.11815
     246 -> 248        0.26717

 Excited State   5:      Singlet-A      3.4516 eV  359.21 nm  f=0.5305  <S**2>=0.000
     241 -> 247       -0.15999
     242 -> 247       -0.22066
     243 -> 247       -0.24212
     245 -> 247       -0.26471
     246 -> 248        0.52814
     245 <- 247        0.10339

 The electronic state is 1-A.
 Alpha  occ. eigenvalues --  -46.96068 -19.30665 -19.29825 -19.24862 -19.24810
 Alpha  occ. eigenvalues --  -19.23773 -19.23662 -14.47023 -14.47006 -14.44561
 Alpha  occ. eigenvalues --  -14.44362 -10.43722 -10.43178 -10.39241 -10.38746
 Alpha  occ. eigenvalues --  -10.36422 -10.35753 -10.35546 -10.35032 -10.34914
 Alpha  occ. eigenvalues --  -10.34761 -10.34654 -10.34367 -10.34163 -10.33705
 Alpha  occ. eigenvalues --  -10.33257 -10.32996 -10.32896 -10.32819 -10.32641
 Alpha  occ. eigenvalues --  -10.32515 -10.32352 -10.32337 -10.32243 -10.32178
 Alpha  occ. eigenvalues --  -10.31709 -10.31522 -10.31105 -10.31090 -10.30931
 Alpha  occ. eigenvalues --  -10.30802 -10.30781 -10.30380 -10.30284 -10.30164
 Alpha  occ. eigenvalues --  -10.30033 -10.29845 -10.29584 -10.29471 -10.29373
 Alpha  occ. eigenvalues --  -10.29137 -10.29072 -10.29020 -10.28993 -10.28933
 Alpha  occ. eigenvalues --  -10.28297 -10.28205 -10.28103 -10.28003 -10.27933
 Alpha  occ. eigenvalues --  -10.27820 -10.27795 -10.27769 -10.27670 -10.27514
 Alpha  occ. eigenvalues --  -10.27488  -3.21913  -1.95504  -1.95022  -1.94887
 Alpha  occ. eigenvalues --   -1.19583  -1.18128  -1.12382  -1.10963  -1.10400
 Alpha  occ. eigenvalues --   -1.08882  -1.06530  -1.05545  -1.04457  -1.03538
 Alpha  occ. eigenvalues --   -0.94578  -0.92070  -0.91232  -0.91098  -0.91010
 Alpha  occ. eigenvalues --   -0.90281  -0.89784  -0.89641  -0.88811  -0.88620
 Alpha  occ. eigenvalues --   -0.87713  -0.86985  -0.85959  -0.85744  -0.84958
 Alpha  occ. eigenvalues --   -0.84406  -0.84052  -0.83415  -0.82486  -0.82084
 Alpha  occ. eigenvalues --   -0.81303  -0.80340  -0.79447  -0.78940  -0.78013
 Alpha  occ. eigenvalues --   -0.77476  -0.77115  -0.76687  -0.76611  -0.76048
 Alpha  occ. eigenvalues --   -0.74923  -0.74365  -0.73840  -0.72557  -0.71202
 Alpha  occ. eigenvalues --   -0.70936  -0.69726  -0.69378  -0.68687  -0.67651
 Alpha  occ. eigenvalues --   -0.67032  -0.66737  -0.66582  -0.66388  -0.65619
 Alpha  occ. eigenvalues --   -0.65359  -0.64926  -0.64597  -0.64560  -0.62239
 Alpha  occ. eigenvalues --   -0.61816  -0.61394  -0.60963  -0.60576  -0.60371
 Alpha  occ. eigenvalues --   -0.59709  -0.59455  -0.58626  -0.57745  -0.57291
 Alpha  occ. eigenvalues --   -0.56925  -0.56473  -0.56313  -0.55925  -0.55715
 Alpha  occ. eigenvalues --   -0.55423  -0.55055  -0.54765  -0.54690  -0.54248
 Alpha  occ. eigenvalues --   -0.54143  -0.54057  -0.53983  -0.53736  -0.53626
 Alpha  occ. eigenvalues --   -0.53511  -0.53353  -0.52973  -0.52937  -0.52407
 Alpha  occ. eigenvalues --   -0.51891  -0.51802  -0.51723  -0.51455  -0.51406
 Alpha  occ. eigenvalues --   -0.51211  -0.50951  -0.50841  -0.50615  -0.50476
 Alpha  occ. eigenvalues --   -0.50226  -0.50123  -0.49972  -0.49775  -0.49700
 Alpha  occ. eigenvalues --   -0.49476  -0.48871  -0.48686  -0.48636  -0.48416
 Alpha  occ. eigenvalues --   -0.48151  -0.48073  -0.47727  -0.47490  -0.47155
 Alpha  occ. eigenvalues --   -0.47102  -0.47022  -0.46843  -0.46759  -0.46433
 Alpha  occ. eigenvalues --   -0.46373  -0.46221  -0.45866  -0.45764  -0.45645
 Alpha  occ. eigenvalues --   -0.45502  -0.45295  -0.45209  -0.45030  -0.44829
 Alpha  occ. eigenvalues --   -0.44473  -0.44420  -0.44275  -0.44191  -0.43899
 Alpha  occ. eigenvalues --   -0.43828  -0.43492  -0.43432  -0.43208  -0.43137
 Alpha  occ. eigenvalues --   -0.42857  -0.42808  -0.42416  -0.42148  -0.41880
 Alpha  occ. eigenvalues --   -0.41605  -0.41357  -0.41035  -0.40876  -0.40529
 Alpha  occ. eigenvalues --   -0.40058  -0.39860  -0.39775  -0.39614  -0.39463
 Alpha  occ. eigenvalues --   -0.38928  -0.38783  -0.38498  -0.38180  -0.37718
 Alpha  occ. eigenvalues --   -0.37300  -0.36793  -0.36563  -0.36241  -0.36163
 Alpha  occ. eigenvalues --   -0.36066  -0.35710  -0.35272  -0.33377  -0.33199
 Alpha  occ. eigenvalues --   -0.32710  -0.32434  -0.31626  -0.31279  -0.26039
 Alpha  occ. eigenvalues --   -0.23080
 Alpha virt. eigenvalues --   -0.07274  -0.00580   0.01627   0.04069   0.05374
 Alpha virt. eigenvalues --    0.06470   0.07454   0.07974   0.08978   0.09070
 Alpha virt. eigenvalues --    0.10282   0.11320   0.12043   0.12759   0.12796

 Mulliken charges:
               1
     1  Mg   0.955903
     2  C   -0.038078
     3  C   -0.087131
     4  C   -0.082191
     5  C   -0.078347
     6  N   -0.350599
     7  C    0.001742
     8  C   -0.015954
     9  C   -0.139782
    10  C    0.060621
    11  C    0.023596
    12  C    0.005667
    13  C   -0.005782
    14  C    0.204651
    15  O   -0.247960
    16  O   -0.330549
    17  N   -0.493792
    18  C    0.156502
    19  C   -0.147076
    20  C   -0.055609
    21  C    0.190773
    22  C    0.072202
    23  C    0.031292
    24  O   -0.235321
    25  C   -0.006631
    26  N   -0.363863
    27  C    0.045657
    28  C   -0.092206
    29  C   -0.039623
    30  C    0.034226
    31  C    0.008208
    32  C   -0.044291
    33  C   -0.037463
    34  N   -0.387576
    35  C    0.104132
    36  C   -0.138771
    37  C   -0.028588
    38  C    0.154817
    39  C    0.073168
    40  C    0.086051
    41  O   -0.237962
    42  C   -0.074918
    43  C    0.284732
    44  O   -0.281555
    45  O   -0.344170
    46  C    0.142269
    47  C    0.233372
    48  C   -0.165105
    49  C   -0.134373
    50  C    0.005699
    51  C    0.018558
    52  C    0.010112
    53  C   -0.005179
    54  C   -0.163038
    55  C   -0.021038
    56  C    0.024124
    57  C   -0.045452
    58  C    0.034562
    59  C   -0.210125
    60  C   -0.005574
    61  C    0.057214
    62  C   -0.024169
    63  C    0.033155
    64  C   -0.211105
    65  C   -0.009426
    66  C   -0.002812
    67  H    0.008382
    68  H   -0.033307
    69  H   -0.009992
    70  H    0.030493
    71  H    0.053052
    72  H    0.040103
    73  H    0.044197
    74  H    0.036866
    75  H    0.034698
    76  H    0.033301
    77  H    0.067658
    78  H    0.075889
    79  H    0.032070
    80  H    0.051362
    81  H    0.053933
    82  H    0.059271
    83  H    0.055293
    84  H    0.070005
    85  H    0.042906
    86  H    0.037626
    87  H    0.048066
    88  H    0.040933
    89  H    0.039861
    90  H    0.038472
    91  H    0.027134
    92  H    0.049887
    93  H    0.037048
    94  H    0.035599
    95  H    0.078143
    96  H    0.038914
    97  H    0.058370
    98  H    0.068988
    99  H    0.048774
   100  H    0.048146
   101  H    0.050725
   102  H    0.039456
   103  H    0.039587
   104  H    0.032191
   105  H    0.065267
   106  H    0.019061
   107  H    0.036342
   108  H    0.014521
   109  H    0.014952
   110  H    0.026169
   111  H    0.025733
   112  H    0.013180
   113  H    0.013558
   114  H    0.024049
   115  H    0.019267
   116  H    0.022119
   117  H    0.037602
   118  H   -0.006307
   119  H   -0.000147
   120  H    0.019304
   121  H    0.032245
   122  H    0.007607
   123  H    0.025247
   124  H    0.025590
   125  H    0.022563
   126  H    0.021541
   127  H    0.030991
   128  H    0.015810
   129  H    0.006245
   130  H    0.008769
   131  H    0.005185
   132  H    0.005995
   133  H   -0.014652
   134  H    0.021480
   135  H    0.027459
   136  H    0.024665
   137  H    0.036670
   138  H    0.031592
   139  H    0.022248
   140  H    0.024153
 Sum of Mulliken charges =  -0.00000

 Dipole moment (field-independent basis, Debye):
    X=             -1.2192    Y=              2.5997    Z=             -0.4013  Tot=              2.8993
 Quadrupole moment (field-independent basis, Debye-Ang):
   XX=           -401.0929   YY=           -389.2912   ZZ=           -396.9115
   XY=            -45.3407   XZ=             -9.2134   YZ=            -28.5800

 Normal termination of Gaussian 16 at Fri Apr 29 16:45:53 2022.
