 Gaussian 16, Revision A.03,
 Gaussian 16:  ES64L-G16RevA.03 25-Dec-2016

 --------------------
 #p ZINDO=(nstates=5)
 --------------------

 -----------------------------
 step_401_chromophore_11 ZINDO
 -----------------------------
 Symbolic Z-matrix:
 Charge =  0 Multiplicity = 1

                         Standard orientation:
 ---------------------------------------------------------------------
 Center     Atomic      Atomic             Coordinates (Angstroms)
 Number     Number       Type             X           Y           Z
 ---------------------------------------------------------------------
      1         12           0       -4.750354    1.369221    0.759249
      2          6           0       -5.345427   -2.191121    0.340589
      3          6           0       -2.305298    0.688948    2.962652
      4          6           0       -3.826327    4.530498    0.494252
      5          6           0       -7.260830    1.817080   -1.593194
      6          7           0       -3.838652   -0.657316    1.409005
      7          6           0       -4.274384   -1.937470    1.242153
      8          6           0       -3.563171   -2.914538    2.275020
      9          6           0       -2.789623   -1.945666    3.202363
     10          6           0       -3.014030   -0.525063    2.569796
     11          6           0       -3.210098   -1.934542    4.695881
     12          6           0       -2.686652   -3.922264    1.557147
     13          6           0       -1.612175   -3.279151    0.538778
     14          6           0       -0.211160   -4.033078    0.494453
     15          8           0        0.450241   -4.272730    1.474760
     16          8           0        0.199101   -4.321289   -0.781211
     17          7           0       -3.207398    2.475398    1.531777
     18          6           0       -2.267620    2.035431    2.400917
     19          6           0       -1.385249    3.095378    2.811057
     20          6           0       -1.755465    4.271002    1.995245
     21          6           0       -2.974698    3.850720    1.285510
     22          6           0       -0.271174    2.812295    3.759647
     23          6           0       -1.035398    5.640307    2.007932
     24          8           0       -0.144235    5.824517    2.825195
     25          6           0       -1.359220    6.786301    1.120805
     26          7           0       -5.491599    2.998036   -0.416398
     27          6           0       -4.899748    4.217106   -0.376943
     28          6           0       -5.452755    5.110619   -1.462906
     29          6           0       -6.660118    4.308903   -2.103168
     30          6           0       -6.470675    2.933751   -1.381822
     31          6           0       -5.801538    6.581636   -0.966748
     32          6           0       -6.650862    4.108907   -3.673779
     33          6           0       -7.726746    4.802344   -4.562083
     34          7           0       -6.159898    0.162452   -0.280463
     35          6           0       -7.168198    0.495677   -1.126581
     36          6           0       -8.003044   -0.638484   -1.565751
     37          6           0       -7.273860   -1.726434   -0.969191
     38          6           0       -6.129432   -1.175627   -0.234271
     39          6           0       -9.162393   -0.672016   -2.433954
     40          6           0       -7.253253   -3.129874   -0.885963
     41          8           0       -7.970006   -4.023967   -1.382630
     42          6           0       -6.011083   -3.509724    0.025803
     43          6           0       -5.118640   -4.391757   -0.821742
     44          8           0       -4.332618   -3.965766   -1.707252
     45          8           0       -5.270996   -5.732109   -0.499931
     46          6           0       -4.349878   -6.607005   -1.137380
     47          6           0        1.368027   -5.097475   -0.861153
     48          6           0        2.415243   -3.964430   -1.049801
     49          6           0        3.417517   -3.687467   -0.178458
     50          6           0        3.773963   -4.694338    1.006861
     51          6           0        4.262420   -2.460847   -0.462160
     52          6           0        5.716173   -2.437492   -1.013956
     53          6           0        5.963445   -1.124126   -1.780600
     54          6           0        6.382830    0.110739   -0.912772
     55          6           0        5.426126    1.346896   -1.093717
     56          6           0        7.809167    0.528260   -1.211952
     57          6           0        8.847583   -0.020571   -0.133992
     58          6           0        9.701490    1.031576    0.530131
     59          6           0       11.191718    0.557818    0.550305
     60          6           0       11.683897    0.455871    2.027694
     61          6           0       12.098524    1.513505   -0.249627
     62          6           0       12.820288    0.840859   -1.343497
     63          6           0       14.164201    0.332825   -0.990214
     64          6           0       15.364722    1.165079   -1.463788
     65          6           0       16.332799    0.413720   -2.456198
     66          6           0       16.184995    1.827015   -0.307457
     67          1           0       -1.738775    0.577528    3.889685
     68          1           0       -3.490168    5.541861    0.256171
     69          1           0       -8.027148    1.949595   -2.360655
     70          1           0       -4.320167   -3.403787    2.888675
     71          1           0       -1.739108   -2.235759    3.218415
     72          1           0       -3.020227   -0.958737    5.142359
     73          1           0       -2.568286   -2.661001    5.194026
     74          1           0       -4.270536   -2.175790    4.766475
     75          1           0       -3.185676   -4.833182    1.227934
     76          1           0       -2.152119   -4.386195    2.385413
     77          1           0       -1.324296   -2.281289    0.867235
     78          1           0       -2.062758   -3.206361   -0.451811
     79          1           0       -0.189534    1.780509    4.100771
     80          1           0       -0.327255    3.456216    4.637637
     81          1           0        0.686630    3.103032    3.329995
     82          1           0       -1.150220    6.501149    0.089863
     83          1           0       -0.662119    7.574018    1.406745
     84          1           0       -2.375573    7.164342    1.229232
     85          1           0       -4.759435    5.218293   -2.296886
     86          1           0       -7.547717    4.781613   -1.683745
     87          1           0       -5.486873    6.752716    0.062494
     88          1           0       -6.854632    6.849876   -1.053616
     89          1           0       -5.209475    7.159943   -1.676017
     90          1           0       -6.737648    3.047991   -3.913422
     91          1           0       -5.680631    4.392698   -4.082140
     92          1           0       -8.026265    5.740814   -4.093877
     93          1           0       -8.541362    4.113019   -4.784154
     94          1           0       -7.201522    4.827492   -5.516873
     95          1           0       -9.039185   -0.808100   -3.508409
     96          1           0       -9.733329    0.205560   -2.132668
     97          1           0       -9.727306   -1.525137   -2.057884
     98          1           0       -6.344683   -4.016819    0.930953
     99          1           0       -3.300293   -6.319820   -1.199427
    100          1           0       -4.646975   -6.702379   -2.181487
    101          1           0       -4.444163   -7.577239   -0.650192
    102          1           0        1.331726   -5.728048   -1.749064
    103          1           0        1.519663   -5.749970   -0.000537
    104          1           0        2.191541   -3.375812   -1.939540
    105          1           0        2.951501   -5.228456    1.484025
    106          1           0        4.377657   -4.250232    1.797715
    107          1           0        4.497592   -5.412667    0.623875
    108          1           0        4.308233   -1.947871    0.498691
    109          1           0        3.632644   -1.729791   -0.969024
    110          1           0        5.921131   -3.221658   -1.742602
    111          1           0        6.461053   -2.465934   -0.218818
    112          1           0        5.051987   -0.911448   -2.340063
    113          1           0        6.769696   -1.264955   -2.500236
    114          1           0        6.107782   -0.195045    0.096394
    115          1           0        4.489429    1.168981   -0.565370
    116          1           0        5.126840    1.386640   -2.141878
    117          1           0        5.797190    2.312877   -0.751884
    118          1           0        8.048719    1.567858   -1.435345
    119          1           0        8.179777    0.248367   -2.197799
    120          1           0        9.572682   -0.559654   -0.743424
    121          1           0        8.304408   -0.605093    0.608402
    122          1           0        9.364565    0.991002    1.565929
    123          1           0        9.468253    2.019557    0.132255
    124          1           0       11.282683   -0.458103    0.166166
    125          1           0       12.757809    0.617496    2.125599
    126          1           0       11.515635   -0.547635    2.418515
    127          1           0       11.119345    1.147469    2.653665
    128          1           0       12.812625    1.989978    0.421211
    129          1           0       11.445582    2.222234   -0.760210
    130          1           0       12.837334    1.528106   -2.189220
    131          1           0       12.206797    0.048403   -1.770903
    132          1           0       14.293721   -0.738858   -1.140192
    133          1           0       14.279304    0.275602    0.092118
    134          1           0       14.972631    2.017118   -2.018632
    135          1           0       16.718364    1.088306   -3.222439
    136          1           0       15.735289   -0.284077   -3.042973
    137          1           0       17.152225   -0.061338   -1.917902
    138          1           0       16.327545    2.886729   -0.514449
    139          1           0       17.190018    1.415344   -0.207947
    140          1           0       15.643574    1.664968    0.624151
 ---------------------------------------------------------------------

 SCF Done:  E(RZINDO/S) =  -474.035589545     A.U. after   20 cycles

 Excitation energies and oscillator strengths:

 Excited State   1:      Singlet-A      1.2201 eV 1016.14 nm  f=0.6074  <S**2>=0.000
     175 ->178         0.20399
     176 ->177         0.65864
 This state for optimization and/or second-order correction.
 Total Energy, E(CIS/TDA) =  -473.990750083
 Copying the excited state density for this state as the 1-particle RhoCI density.

 Excited State   2:      Singlet-A      1.8438 eV  672.42 nm  f=0.0314  <S**2>=0.000
     175 ->177         0.53705
     176 ->178        -0.43695

 Excited State   3:      Singlet-A      2.8769 eV  430.97 nm  f=0.0805  <S**2>=0.000
     169 ->179        -0.10220
     170 ->177        -0.27566
     170 ->179         0.30943
     170 ->180         0.15715
     175 ->177         0.12275
     176 ->178         0.15032
     176 ->179         0.40905

 Excited State   4:      Singlet-A      2.9285 eV  423.37 nm  f=0.0843  <S**2>=0.000
     169 ->177        -0.12396
     169 ->179         0.12717
     170 ->177         0.23429
     170 ->179        -0.25548
     170 ->180        -0.11371
     175 ->177         0.11345
     176 ->178         0.13555
     176 ->179         0.45829

 Excited State   5:      Singlet-A      2.9486 eV  420.49 nm  f=1.1040  <S**2>=0.000
     175 ->177         0.37358
     176 ->178         0.48025
     176 ->179        -0.25339

 The electronic state is 1-A.
 Alpha  occ. eigenvalues --   -1.83101  -1.79714  -1.77394  -1.75745  -1.71799
 Alpha  occ. eigenvalues --   -1.69381  -1.66675  -1.60930  -1.59722  -1.58548
 Alpha  occ. eigenvalues --   -1.53965  -1.50048  -1.47614  -1.46351  -1.45753
 Alpha  occ. eigenvalues --   -1.43528  -1.41469  -1.39711  -1.38878  -1.38032
 Alpha  occ. eigenvalues --   -1.35889  -1.35152  -1.32285  -1.29464  -1.28666
 Alpha  occ. eigenvalues --   -1.27122  -1.25735  -1.22770  -1.19394  -1.17845
 Alpha  occ. eigenvalues --   -1.16292  -1.15048  -1.14689  -1.13781  -1.13591
 Alpha  occ. eigenvalues --   -1.12757  -1.10574  -1.08890  -1.04942  -1.03843
 Alpha  occ. eigenvalues --   -1.01367  -1.00864  -0.98936  -0.97027  -0.96316
 Alpha  occ. eigenvalues --   -0.94737  -0.94178  -0.93916  -0.93833  -0.92617
 Alpha  occ. eigenvalues --   -0.91599  -0.90815  -0.88895  -0.88838  -0.88296
 Alpha  occ. eigenvalues --   -0.86277  -0.84283  -0.83507  -0.82025  -0.80817
 Alpha  occ. eigenvalues --   -0.80310  -0.79362  -0.78492  -0.76657  -0.76229
 Alpha  occ. eigenvalues --   -0.75995  -0.75028  -0.74091  -0.73864  -0.73381
 Alpha  occ. eigenvalues --   -0.73067  -0.72468  -0.71040  -0.70832  -0.70684
 Alpha  occ. eigenvalues --   -0.69891  -0.69344  -0.68452  -0.68075  -0.67612
 Alpha  occ. eigenvalues --   -0.67522  -0.66642  -0.66294  -0.65493  -0.65299
 Alpha  occ. eigenvalues --   -0.64933  -0.64642  -0.64493  -0.64400  -0.64223
 Alpha  occ. eigenvalues --   -0.63889  -0.63025  -0.62850  -0.62590  -0.61538
 Alpha  occ. eigenvalues --   -0.60987  -0.60791  -0.60661  -0.60074  -0.59873
 Alpha  occ. eigenvalues --   -0.59164  -0.59057  -0.58561  -0.57847  -0.57815
 Alpha  occ. eigenvalues --   -0.57394  -0.56870  -0.56860  -0.56587  -0.56272
 Alpha  occ. eigenvalues --   -0.55808  -0.55599  -0.55234  -0.54938  -0.54528
 Alpha  occ. eigenvalues --   -0.54272  -0.54082  -0.53235  -0.53022  -0.52560
 Alpha  occ. eigenvalues --   -0.52434  -0.51997  -0.51832  -0.51581  -0.51451
 Alpha  occ. eigenvalues --   -0.51150  -0.51007  -0.50705  -0.50351  -0.50164
 Alpha  occ. eigenvalues --   -0.50011  -0.49771  -0.49564  -0.48711  -0.48658
 Alpha  occ. eigenvalues --   -0.48241  -0.48143  -0.47733  -0.47696  -0.47358
 Alpha  occ. eigenvalues --   -0.47118  -0.46866  -0.46803  -0.46752  -0.46479
 Alpha  occ. eigenvalues --   -0.46354  -0.45865  -0.45655  -0.45478  -0.45062
 Alpha  occ. eigenvalues --   -0.44995  -0.44802  -0.44765  -0.44408  -0.43954
 Alpha  occ. eigenvalues --   -0.43134  -0.43068  -0.42659  -0.42231  -0.41418
 Alpha  occ. eigenvalues --   -0.41345  -0.40685  -0.40357  -0.39121  -0.38769
 Alpha  occ. eigenvalues --   -0.38605  -0.37765  -0.35602  -0.35178  -0.34975
 Alpha  occ. eigenvalues --   -0.33065  -0.32609  -0.32148  -0.31323  -0.26691
 Alpha  occ. eigenvalues --   -0.21892
 Alpha virt. eigenvalues --   -0.08808  -0.02742  -0.01187   0.00916   0.01830
 Alpha virt. eigenvalues --    0.02026   0.02420   0.02686   0.04337   0.05613
 Alpha virt. eigenvalues --    0.05732   0.06651   0.06832   0.07545   0.07586

 Mulliken charges:
               1
     1  Mg   0.433949
     2  C   -0.048359
     3  C   -0.083164
     4  C   -0.061794
     5  C   -0.056614
     6  N   -0.305713
     7  C    0.133568
     8  C    0.018849
     9  C    0.006843
    10  C    0.106163
    11  C   -0.051767
    12  C   -0.022682
    13  C    0.004738
    14  C    0.462978
    15  O   -0.517252
    16  O   -0.250595
    17  N   -0.331172
    18  C    0.123298
    19  C    0.034598
    20  C   -0.056260
    21  C    0.119732
    22  C   -0.032898
    23  C    0.330706
    24  O   -0.520785
    25  C   -0.023734
    26  N   -0.263595
    27  C    0.132713
    28  C    0.002411
    29  C   -0.003387
    30  C    0.103158
    31  C   -0.058970
    32  C   -0.034770
    33  C   -0.063314
    34  N   -0.308144
    35  C    0.100238
    36  C    0.049530
    37  C   -0.067692
    38  C    0.128200
    39  C   -0.029251
    40  C    0.329766
    41  O   -0.542715
    42  C    0.058017
    43  C    0.485947
    44  O   -0.539155
    45  O   -0.255483
    46  C    0.079335
    47  C    0.100314
    48  C   -0.073225
    49  C   -0.015742
    50  C   -0.046446
    51  C   -0.022591
    52  C   -0.022808
    53  C   -0.038789
    54  C   -0.005657
    55  C   -0.064384
    56  C   -0.043133
    57  C   -0.049277
    58  C   -0.037517
    59  C   -0.014993
    60  C   -0.063209
    61  C   -0.027769
    62  C   -0.019693
    63  C   -0.026473
    64  C   -0.014215
    65  C   -0.059893
    66  C   -0.060911
    67  H    0.029728
    68  H    0.006549
    69  H    0.014610
    70  H    0.029210
    71  H    0.037440
    72  H    0.024829
    73  H    0.021696
    74  H    0.024277
    75  H    0.036138
    76  H    0.015486
    77  H    0.048717
    78  H    0.050382
    79  H    0.026633
    80  H    0.035158
    81  H    0.035781
    82  H    0.036506
    83  H    0.036470
    84  H    0.039539
    85  H    0.034894
    86  H    0.037244
    87  H    0.028430
    88  H    0.026230
    89  H    0.019751
    90  H    0.022071
    91  H    0.019722
    92  H    0.032741
    93  H    0.022439
    94  H    0.022614
    95  H    0.053837
    96  H    0.025255
    97  H    0.031926
    98  H    0.055556
    99  H    0.044870
   100  H    0.039965
   101  H    0.027569
   102  H    0.028537
   103  H    0.052983
   104  H    0.038337
   105  H    0.042401
   106  H    0.016587
   107  H    0.019876
   108  H    0.012269
   109  H    0.021785
   110  H    0.019498
   111  H    0.023922
   112  H    0.018925
   113  H    0.013415
   114  H    0.027629
   115  H    0.009199
   116  H    0.014601
   117  H    0.023825
   118  H    0.019691
   119  H    0.013199
   120  H    0.020169
   121  H    0.028903
   122  H    0.011232
   123  H    0.032232
   124  H    0.027667
   125  H    0.016118
   126  H    0.010922
   127  H    0.021278
   128  H    0.025703
   129  H    0.012886
   130  H    0.008436
   131  H    0.010749
   132  H    0.015505
   133  H    0.008675
   134  H    0.015810
   135  H    0.015717
   136  H    0.014212
   137  H    0.027103
   138  H    0.017547
   139  H    0.018109
   140  H    0.021025
 Sum of Mulliken charges =  -0.00000

 Dipole moment (field-independent basis, Debye):
    X=             -2.5140    Y=              3.3836    Z=              0.0645  Tot=              4.2158
 N-N= 4.345787317826D+03 E-N= 0.000000000000D+00  KE=-9.366094272041D+03
 Leave Link  601 at Fri Apr 29 16:58:45 2022, MaxMem=  6710886400 cpu:               0.7 elap:               0.0
 (Enter /sw/apps/gaussian-16.0/g16/l9999.exe)
 1\1\GINC-BP1-COMPUTE161\SP\RZINDO CIS\STO-3G\C55H74Mg1N4O6\OF15641\29-
 Apr-2022\0\\#p ZINDO=(nstates=5)\\step_401_chromophore_11 ZINDO\\0,1\M
 g,0,52.748,23.903,44.762\C,0,49.778,25.858,44.012\C,0,51.119,21.105,43
 .86\C,0,55.674,22.368,44.766\C,0,54.239,26.93,45.569\N,0,50.643,23.625
 ,43.839\C,0,49.584,24.476,43.735\C,0,48.238,23.672,43.472\C,0,48.67,22
 .195,43.642\C,0,50.224,22.258,43.865\C,0,47.999,21.407,44.798\C,0,47.6
 65,24.,42.107\C,0,48.696,23.815,40.879\C,0,48.037,23.257,39.542\O,0,47

 Normal termination of Gaussian 16 at Fri Apr 29 16:58:45 2022.
