 Gaussian 16, Revision A.03,
 Gaussian 16:  ES64L-G16RevA.03 25-Dec-2016

 ------------------------------
 #p blyp/Def2SVP td=(nstates=5)
 ------------------------------

 --------------------------------------------------
 step_101_chromophore_12 TDDFT with blyp functional
 --------------------------------------------------
 Symbolic Z-matrix:
 Charge =  0 Multiplicity = 1

                         Standard orientation:
 ---------------------------------------------------------------------
 Center     Atomic      Atomic             Coordinates (Angstroms)
 Number     Number       Type             X           Y           Z
 ---------------------------------------------------------------------
      1         12           0       -4.225991    0.306222   -0.309072
      2          6           0       -2.770298   -2.848474    0.568505
      3          6           0       -1.029906    1.634379   -0.361131
      4          6           0       -5.621710    3.196230   -1.076698
      5          6           0       -7.312586   -1.188417    0.473622
      6          7           0       -2.163439   -0.543454    0.064754
      7          6           0       -1.776863   -1.809692    0.358635
      8          6           0       -0.243162   -2.039395    0.344377
      9          6           0        0.343496   -0.523912    0.292583
     10          6           0       -0.992236    0.273762   -0.027828
     11          6           0        0.960493   -0.007997    1.528878
     12          6           0        0.287089   -2.837153   -0.905133
     13          6           0        1.842717   -3.152408   -0.848886
     14          6           0        2.741310   -3.186275   -2.052572
     15          8           0        2.276316   -3.065331   -3.185555
     16          8           0        4.029554   -3.555950   -1.852056
     17          7           0       -3.458292    2.115176   -0.775786
     18          6           0       -2.096596    2.479097   -0.783152
     19          6           0       -2.023285    3.892259   -1.189505
     20          6           0       -3.331561    4.310020   -1.619818
     21          6           0       -4.224243    3.232836   -1.144033
     22          6           0       -0.654516    4.594660   -1.252926
     23          6           0       -3.789997    5.577861   -2.327746
     24          8           0       -4.924626    5.875511   -2.762735
     25          6           0       -2.705111    6.632803   -2.587411
     26          7           0       -6.192582    0.812561   -0.344974
     27          6           0       -6.464631    2.165457   -0.619856
     28          6           0       -8.033873    2.439081   -0.540624
     29          6           0       -8.593800    0.922563   -0.269535
     30          6           0       -7.310220    0.128792    0.063280
     31          6           0       -8.476497    3.518638    0.548459
     32          6           0       -9.349257    0.302770   -1.497176
     33          6           0      -10.591803    1.024747   -2.101334
     34          7           0       -4.976147   -1.549864    0.466956
     35          6           0       -6.275641   -2.020146    0.681039
     36          6           0       -6.251785   -3.456396    1.010617
     37          6           0       -4.927824   -3.825117    0.884874
     38          6           0       -4.209343   -2.634031    0.522793
     39          6           0       -7.497991   -4.257267    1.342037
     40          6           0       -3.993449   -4.893292    1.139503
     41          8           0       -4.304479   -6.055600    1.576747
     42          6           0       -2.557503   -4.342600    0.881281
     43          6           0       -1.745635   -4.663460    2.039629
     44          8           0       -2.086880   -4.567753    3.209442
     45          8           0       -0.549322   -5.164891    1.592451
     46          6           0        0.469426   -5.568673    2.589167
     47          6           0        4.942896   -3.527202   -3.025283
     48          6           0        6.284687   -3.121508   -2.454070
     49          6           0        7.440307   -2.627025   -2.952642
     50          6           0        7.716818   -2.373969   -4.427298
     51          6           0        8.613160   -2.513567   -2.047990
     52          6           0        9.318489   -1.125404   -1.970073
     53          6           0       10.233543   -0.952480   -0.768666
     54          6           0       10.667146    0.528335   -0.650749
     55          6           0       12.205064    0.604019   -0.726603
     56          6           0       10.251832    1.195886    0.671834
     57          6           0        8.757390    1.418815    0.715347
     58          6           0        8.408534    2.264310    2.012575
     59          6           0        7.050604    3.047916    1.836727
     60          6           0        7.351408    4.362259    1.179257
     61          6           0        6.287362    3.076419    3.173822
     62          6           0        5.021706    3.950280    3.203878
     63          6           0        3.799562    3.164879    3.671825
     64          6           0        2.500235    3.939352    3.338207
     65          6           0        1.446925    3.277681    4.246825
     66          6           0        2.201621    3.709809    1.795623
     67          1           0       -0.080490    2.145361   -0.193357
     68          1           0       -6.003683    4.147129   -1.452092
     69          1           0       -8.315178   -1.599467    0.603625
     70          1           0        0.076598   -2.457178    1.299377
     71          1           0        1.007921   -0.382675   -0.560251
     72          1           0        0.233607    0.475145    2.182378
     73          1           0        1.657589    0.782303    1.252416
     74          1           0        1.385456   -0.857133    2.064125
     75          1           0        0.145411   -2.160782   -1.748383
     76          1           0       -0.233475   -3.794139   -0.912022
     77          1           0        2.003801   -4.099859   -0.334058
     78          1           0        2.196962   -2.348129   -0.204226
     79          1           0       -0.402413    4.404243   -2.296435
     80          1           0        0.084135    4.174119   -0.571136
     81          1           0       -0.638856    5.628993   -0.910343
     82          1           0       -2.263385    7.037021   -1.676962
     83          1           0       -3.109977    7.481550   -3.138813
     84          1           0       -1.976378    6.197217   -3.270524
     85          1           0       -8.326456    2.859474   -1.502299
     86          1           0       -9.196473    0.842513    0.635432
     87          1           0       -8.683930    4.436101   -0.003064
     88          1           0       -7.699781    3.617452    1.307004
     89          1           0       -9.431300    3.262882    1.009574
     90          1           0       -9.578808   -0.696580   -1.129319
     91          1           0       -8.638230    0.266019   -2.322909
     92          1           0      -11.003739    1.724073   -1.373531
     93          1           0      -11.428818    0.370874   -2.342245
     94          1           0      -10.302588    1.592983   -2.984228
     95          1           0       -8.125580   -4.080522    0.469084
     96          1           0       -8.009704   -3.889201    2.231260
     97          1           0       -7.437198   -5.332873    1.510918
     98          1           0       -2.078638   -4.834704    0.034219
     99          1           0        0.393511   -5.047214    3.543475
    100          1           0        1.463808   -5.522901    2.145206
    101          1           0        0.235413   -6.631539    2.647949
    102          1           0        4.620398   -2.809824   -3.779880
    103          1           0        5.104270   -4.532167   -3.413403
    104          1           0        6.370474   -3.288987   -1.380186
    105          1           0        7.640790   -1.312636   -4.666784
    106          1           0        6.945002   -2.815051   -5.058098
    107          1           0        8.612450   -2.944866   -4.669560
    108          1           0        9.278547   -3.300859   -2.402973
    109          1           0        8.385139   -2.670383   -0.994140
    110          1           0        8.574775   -0.363602   -2.204035
    111          1           0        9.996218   -1.207148   -2.819991
    112          1           0       11.188101   -1.475862   -0.821339
    113          1           0        9.809557   -1.331035    0.161630
    114          1           0       10.226836    1.149174   -1.430051
    115          1           0       12.670144    0.002665   -1.507277
    116          1           0       12.522977    0.175878    0.224615
    117          1           0       12.575480    1.615471   -0.888623
    118          1           0       10.884536    2.081585    0.726907
    119          1           0       10.432320    0.499203    1.489883
    120          1           0        8.072697    0.584156    0.865562
    121          1           0        8.301054    1.917056   -0.141045
    122          1           0        9.193014    2.930458    2.371127
    123          1           0        8.162966    1.548269    2.795600
    124          1           0        6.323873    2.618281    1.147529
    125          1           0        6.630778    4.652392    0.414822
    126          1           0        8.348677    4.653606    0.849535
    127          1           0        7.093209    5.074230    1.963124
    128          1           0        6.932941    3.483903    3.951957
    129          1           0        5.973223    2.096459    3.532797
    130          1           0        4.766156    4.423460    2.256173
    131          1           0        5.187668    4.715823    3.962512
    132          1           0        3.848693    3.268548    4.755543
    133          1           0        3.980853    2.119342    3.426081
    134          1           0        2.636341    5.001579    3.540008
    135          1           0        0.462976    3.708475    4.062127
    136          1           0        1.832277    3.326336    5.265690
    137          1           0        1.251730    2.246584    3.955043
    138          1           0        2.116021    4.692273    1.330214
    139          1           0        1.205997    3.280582    1.691457
    140          1           0        2.887314    3.012291    1.314678
 ---------------------------------------------------------------------

 SCF Done:  E(RB-LYP) =  -3007.37914214     A.U. after   22 cycles

 Excitation energies and oscillator strengths:

 Excited State   1:      Singlet-A      1.7696 eV  700.65 nm  f=0.2889  <S**2>=0.000
     245 -> 248       -0.18388
     246 -> 247        0.68275
     246 <- 247       -0.14771
 This state for optimization and/or second-order correction.
 Total Energy, E(TD-HF/TD-DFT) =  -3007.31411160
 Copying the excited state density for this state as the 1-particle RhoCI density.

 Excited State   2:      Singlet-A      1.8484 eV  670.75 nm  f=0.0068  <S**2>=0.000
     244 -> 247        0.68776
     245 -> 247        0.14114

 Excited State   3:      Singlet-A      1.9282 eV  643.01 nm  f=0.0122  <S**2>=0.000
     243 -> 247        0.68292
     245 -> 247       -0.14917

 Excited State   4:      Singlet-A      1.9695 eV  629.53 nm  f=0.0549  <S**2>=0.000
     243 -> 247        0.16553
     244 -> 247       -0.14026
     245 -> 247        0.61392
     246 -> 248        0.23165
     246 -> 249       -0.11350

 Excited State   5:      Singlet-A      2.3657 eV  524.09 nm  f=0.0001  <S**2>=0.000
     242 -> 247        0.70655

 The electronic state is 1-A.
 Alpha  occ. eigenvalues --  -46.26720 -18.82720 -18.82496 -18.76521 -18.76184
 Alpha  occ. eigenvalues --  -18.75987 -18.75406 -14.03988 -14.03470 -14.01381
 Alpha  occ. eigenvalues --  -14.01004 -10.04402 -10.03775 -10.00416  -9.99620
 Alpha  occ. eigenvalues --   -9.98981  -9.98400  -9.97583  -9.97084  -9.97081
 Alpha  occ. eigenvalues --   -9.96551  -9.96299  -9.96020  -9.95392  -9.95054
 Alpha  occ. eigenvalues --   -9.95028  -9.94961  -9.94661  -9.94632  -9.94394
 Alpha  occ. eigenvalues --   -9.94257  -9.94183  -9.94160  -9.94152  -9.94054
 Alpha  occ. eigenvalues --   -9.93645  -9.93436  -9.93425  -9.93003  -9.93000
 Alpha  occ. eigenvalues --   -9.92897  -9.92647  -9.92626  -9.92516  -9.92507
 Alpha  occ. eigenvalues --   -9.92308  -9.92204  -9.92064  -9.91957  -9.91911
 Alpha  occ. eigenvalues --   -9.91868  -9.91744  -9.91676  -9.91614  -9.91552
 Alpha  occ. eigenvalues --   -9.91491  -9.91479  -9.91390  -9.91271  -9.91243
 Alpha  occ. eigenvalues --   -9.91210  -9.91058  -9.91017  -9.90980  -9.90743
 Alpha  occ. eigenvalues --   -9.90573  -2.91459  -1.71884  -1.71341  -1.71173
 Alpha  occ. eigenvalues --   -0.98251  -0.97663  -0.90228  -0.89910  -0.89328
 Alpha  occ. eigenvalues --   -0.88104  -0.86266  -0.84652  -0.84439  -0.83486
 Alpha  occ. eigenvalues --   -0.75121  -0.74183  -0.73595  -0.72989  -0.72786
 Alpha  occ. eigenvalues --   -0.71986  -0.71514  -0.71068  -0.70593  -0.70340
 Alpha  occ. eigenvalues --   -0.69870  -0.69587  -0.68607  -0.67928  -0.67309
 Alpha  occ. eigenvalues --   -0.66400  -0.66118  -0.65679  -0.65056  -0.64702
 Alpha  occ. eigenvalues --   -0.63995  -0.62947  -0.62509  -0.62080  -0.61098
 Alpha  occ. eigenvalues --   -0.60957  -0.60941  -0.59949  -0.59744  -0.58903
 Alpha  occ. eigenvalues --   -0.58314  -0.57520  -0.56813  -0.55827  -0.54531
 Alpha  occ. eigenvalues --   -0.54042  -0.53859  -0.52720  -0.52206  -0.51302
 Alpha  occ. eigenvalues --   -0.51185  -0.50857  -0.50726  -0.50151  -0.50104
 Alpha  occ. eigenvalues --   -0.49974  -0.49679  -0.48777  -0.48606  -0.46463
 Alpha  occ. eigenvalues --   -0.46209  -0.45727  -0.45512  -0.45238  -0.44503
 Alpha  occ. eigenvalues --   -0.44028  -0.43660  -0.43610  -0.42971  -0.42391
 Alpha  occ. eigenvalues --   -0.42198  -0.42161  -0.42053  -0.41664  -0.41442
 Alpha  occ. eigenvalues --   -0.41127  -0.41053  -0.40733  -0.40524  -0.40212
 Alpha  occ. eigenvalues --   -0.40064  -0.39932  -0.39765  -0.39484  -0.39460
 Alpha  occ. eigenvalues --   -0.39354  -0.39018  -0.38814  -0.38678  -0.38607
 Alpha  occ. eigenvalues --   -0.38329  -0.38227  -0.38055  -0.37778  -0.37704
 Alpha  occ. eigenvalues --   -0.37207  -0.37162  -0.36923  -0.36865  -0.36633
 Alpha  occ. eigenvalues --   -0.36334  -0.36037  -0.35887  -0.35713  -0.35549
 Alpha  occ. eigenvalues --   -0.35474  -0.35321  -0.35160  -0.35111  -0.34945
 Alpha  occ. eigenvalues --   -0.34861  -0.34586  -0.34453  -0.34297  -0.34192
 Alpha  occ. eigenvalues --   -0.33995  -0.33741  -0.33478  -0.33297  -0.32937
 Alpha  occ. eigenvalues --   -0.32890  -0.32449  -0.32336  -0.32236  -0.32086
 Alpha  occ. eigenvalues --   -0.31834  -0.31690  -0.31599  -0.31529  -0.31378
 Alpha  occ. eigenvalues --   -0.31281  -0.31110  -0.30898  -0.30869  -0.30639
 Alpha  occ. eigenvalues --   -0.30473  -0.30275  -0.30239  -0.30022  -0.29991
 Alpha  occ. eigenvalues --   -0.29807  -0.29564  -0.29471  -0.29329  -0.29309
 Alpha  occ. eigenvalues --   -0.28999  -0.28898  -0.28558  -0.28552  -0.28005
 Alpha  occ. eigenvalues --   -0.27947  -0.27499  -0.27210  -0.26752  -0.26627
 Alpha  occ. eigenvalues --   -0.26526  -0.26493  -0.26405  -0.25863  -0.25784
 Alpha  occ. eigenvalues --   -0.25179  -0.25030  -0.24780  -0.24078  -0.23677
 Alpha  occ. eigenvalues --   -0.22998  -0.22438  -0.21700  -0.21206  -0.21091
 Alpha  occ. eigenvalues --   -0.20586  -0.20419  -0.18732  -0.18399  -0.17436
 Alpha  occ. eigenvalues --   -0.15916
 Alpha virt. eigenvalues --   -0.11726  -0.07550  -0.06545  -0.05445  -0.02794
 Alpha virt. eigenvalues --   -0.02726  -0.02599  -0.01582  -0.01030  -0.00265
 Alpha virt. eigenvalues --    0.00749   0.00938   0.01569   0.02264   0.02489

 Mulliken charges:
               1
     1  Mg   0.704145
     2  C   -0.025758
     3  C   -0.044630
     4  C   -0.031708
     5  C   -0.091414
     6  N   -0.218619
     7  C   -0.044988
     8  C    0.024476
     9  C   -0.057982
    10  C    0.009898
    11  C    0.145452
    12  C    0.155245
    13  C    0.083729
    14  C    0.081708
    15  O   -0.207335
    16  O   -0.270869
    17  N   -0.354161
    18  C    0.154560
    19  C   -0.150585
    20  C    0.036707
    21  C    0.068806
    22  C    0.153656
    23  C   -0.051713
    24  O   -0.179846
    25  C    0.114280
    26  N   -0.287868
    27  C    0.118892
    28  C   -0.027711
    29  C    0.047918
    30  C    0.026838
    31  C    0.112228
    32  C    0.074477
    33  C    0.077528
    34  N   -0.233951
    35  C    0.138336
    36  C   -0.151357
    37  C    0.096790
    38  C    0.068046
    39  C    0.162141
    40  C   -0.029032
    41  O   -0.182880
    42  C    0.118061
    43  C    0.084313
    44  O   -0.166069
    45  O   -0.295487
    46  C    0.208539
    47  C    0.361025
    48  C   -0.146048
    49  C   -0.159933
    50  C    0.154632
    51  C    0.122037
    52  C    0.048509
    53  C    0.146929
    54  C   -0.076617
    55  C    0.102045
    56  C    0.125983
    57  C    0.056104
    58  C    0.106939
    59  C   -0.080597
    60  C    0.123245
    61  C    0.112725
    62  C    0.058555
    63  C    0.046426
    64  C   -0.090217
    65  C    0.132730
    66  C    0.078986
    67  H   -0.071720
    68  H   -0.043738
    69  H   -0.065300
    70  H   -0.030318
    71  H   -0.011795
    72  H    0.007916
    73  H   -0.003861
    74  H   -0.007329
    75  H   -0.004954
    76  H   -0.006358
    77  H    0.009859
    78  H   -0.007515
    79  H    0.023743
    80  H   -0.012039
    81  H   -0.000801
    82  H    0.012255
    83  H   -0.016764
    84  H    0.001400
    85  H   -0.011727
    86  H   -0.035314
    87  H   -0.001397
    88  H    0.004320
    89  H   -0.008767
    90  H   -0.023607
    91  H   -0.014922
    92  H   -0.017062
    93  H   -0.004795
    94  H    0.001582
    95  H    0.002221
    96  H    0.000964
    97  H    0.006648
    98  H    0.007243
    99  H    0.035537
   100  H    0.016467
   101  H    0.021336
   102  H    0.016902
   103  H    0.013059
   104  H   -0.033896
   105  H    0.009905
   106  H   -0.030313
   107  H   -0.001386
   108  H   -0.019350
   109  H   -0.039411
   110  H   -0.011626
   111  H   -0.030239
   112  H   -0.047136
   113  H   -0.041179
   114  H   -0.039599
   115  H   -0.023042
   116  H   -0.018572
   117  H   -0.015191
   118  H   -0.027650
   119  H   -0.032171
   120  H   -0.029613
   121  H   -0.035534
   122  H   -0.025038
   123  H   -0.044334
   124  H   -0.049580
   125  H   -0.026851
   126  H   -0.010081
   127  H   -0.035284
   128  H   -0.043816
   129  H   -0.034643
   130  H   -0.036949
   131  H   -0.035631
   132  H   -0.046063
   133  H   -0.020449
   134  H   -0.027282
   135  H   -0.024573
   136  H   -0.008734
   137  H   -0.021530
   138  H   -0.005048
   139  H   -0.017550
   140  H    0.011806
 Sum of Mulliken charges =  -0.00000

 Dipole moment (field-independent basis, Debye):
    X=              4.8153    Y=              2.2388    Z=             -0.1631  Tot=              5.3128
 Quadrupole moment (field-independent basis, Debye-Ang):
   XX=           -365.0626   YY=           -435.1914   ZZ=           -420.0190
   XY=            -10.6593   XZ=             -1.6991   YZ=             18.3107

 Normal termination of Gaussian 16 at Wed Apr 27 00:07:07 2022.
