 Gaussian 16, Revision A.03,
 Gaussian 16:  ES64L-G16RevA.03 25-Dec-2016

 -----------------------------------
 #p cam-b3lyp/Def2SVP td=(nstates=5)
 -----------------------------------

 -------------------------------------------------------
 step_101_chromophore_12 TDDFT with cam-b3lyp functional
 -------------------------------------------------------
 Symbolic Z-matrix:
 Charge =  0 Multiplicity = 1

                         Standard orientation:
 ---------------------------------------------------------------------
 Center     Atomic      Atomic             Coordinates (Angstroms)
 Number     Number       Type             X           Y           Z
 ---------------------------------------------------------------------
      1         12           0       -4.225991    0.306222   -0.309072
      2          6           0       -2.770298   -2.848474    0.568505
      3          6           0       -1.029906    1.634379   -0.361131
      4          6           0       -5.621710    3.196230   -1.076698
      5          6           0       -7.312586   -1.188417    0.473622
      6          7           0       -2.163439   -0.543454    0.064754
      7          6           0       -1.776863   -1.809692    0.358635
      8          6           0       -0.243162   -2.039395    0.344377
      9          6           0        0.343496   -0.523912    0.292583
     10          6           0       -0.992236    0.273762   -0.027828
     11          6           0        0.960493   -0.007997    1.528878
     12          6           0        0.287089   -2.837153   -0.905133
     13          6           0        1.842717   -3.152408   -0.848886
     14          6           0        2.741310   -3.186275   -2.052572
     15          8           0        2.276316   -3.065331   -3.185555
     16          8           0        4.029554   -3.555950   -1.852056
     17          7           0       -3.458292    2.115176   -0.775786
     18          6           0       -2.096596    2.479097   -0.783152
     19          6           0       -2.023285    3.892259   -1.189505
     20          6           0       -3.331561    4.310020   -1.619818
     21          6           0       -4.224243    3.232836   -1.144033
     22          6           0       -0.654516    4.594660   -1.252926
     23          6           0       -3.789997    5.577861   -2.327746
     24          8           0       -4.924626    5.875511   -2.762735
     25          6           0       -2.705111    6.632803   -2.587411
     26          7           0       -6.192582    0.812561   -0.344974
     27          6           0       -6.464631    2.165457   -0.619856
     28          6           0       -8.033873    2.439081   -0.540624
     29          6           0       -8.593800    0.922563   -0.269535
     30          6           0       -7.310220    0.128792    0.063280
     31          6           0       -8.476497    3.518638    0.548459
     32          6           0       -9.349257    0.302770   -1.497176
     33          6           0      -10.591803    1.024747   -2.101334
     34          7           0       -4.976147   -1.549864    0.466956
     35          6           0       -6.275641   -2.020146    0.681039
     36          6           0       -6.251785   -3.456396    1.010617
     37          6           0       -4.927824   -3.825117    0.884874
     38          6           0       -4.209343   -2.634031    0.522793
     39          6           0       -7.497991   -4.257267    1.342037
     40          6           0       -3.993449   -4.893292    1.139503
     41          8           0       -4.304479   -6.055600    1.576747
     42          6           0       -2.557503   -4.342600    0.881281
     43          6           0       -1.745635   -4.663460    2.039629
     44          8           0       -2.086880   -4.567753    3.209442
     45          8           0       -0.549322   -5.164891    1.592451
     46          6           0        0.469426   -5.568673    2.589167
     47          6           0        4.942896   -3.527202   -3.025283
     48          6           0        6.284687   -3.121508   -2.454070
     49          6           0        7.440307   -2.627025   -2.952642
     50          6           0        7.716818   -2.373969   -4.427298
     51          6           0        8.613160   -2.513567   -2.047990
     52          6           0        9.318489   -1.125404   -1.970073
     53          6           0       10.233543   -0.952480   -0.768666
     54          6           0       10.667146    0.528335   -0.650749
     55          6           0       12.205064    0.604019   -0.726603
     56          6           0       10.251832    1.195886    0.671834
     57          6           0        8.757390    1.418815    0.715347
     58          6           0        8.408534    2.264310    2.012575
     59          6           0        7.050604    3.047916    1.836727
     60          6           0        7.351408    4.362259    1.179257
     61          6           0        6.287362    3.076419    3.173822
     62          6           0        5.021706    3.950280    3.203878
     63          6           0        3.799562    3.164879    3.671825
     64          6           0        2.500235    3.939352    3.338207
     65          6           0        1.446925    3.277681    4.246825
     66          6           0        2.201621    3.709809    1.795623
     67          1           0       -0.080490    2.145361   -0.193357
     68          1           0       -6.003683    4.147129   -1.452092
     69          1           0       -8.315178   -1.599467    0.603625
     70          1           0        0.076598   -2.457178    1.299377
     71          1           0        1.007921   -0.382675   -0.560251
     72          1           0        0.233607    0.475145    2.182378
     73          1           0        1.657589    0.782303    1.252416
     74          1           0        1.385456   -0.857133    2.064125
     75          1           0        0.145411   -2.160782   -1.748383
     76          1           0       -0.233475   -3.794139   -0.912022
     77          1           0        2.003801   -4.099859   -0.334058
     78          1           0        2.196962   -2.348129   -0.204226
     79          1           0       -0.402413    4.404243   -2.296435
     80          1           0        0.084135    4.174119   -0.571136
     81          1           0       -0.638856    5.628993   -0.910343
     82          1           0       -2.263385    7.037021   -1.676962
     83          1           0       -3.109977    7.481550   -3.138813
     84          1           0       -1.976378    6.197217   -3.270524
     85          1           0       -8.326456    2.859474   -1.502299
     86          1           0       -9.196473    0.842513    0.635432
     87          1           0       -8.683930    4.436101   -0.003064
     88          1           0       -7.699781    3.617452    1.307004
     89          1           0       -9.431300    3.262882    1.009574
     90          1           0       -9.578808   -0.696580   -1.129319
     91          1           0       -8.638230    0.266019   -2.322909
     92          1           0      -11.003739    1.724073   -1.373531
     93          1           0      -11.428818    0.370874   -2.342245
     94          1           0      -10.302588    1.592983   -2.984228
     95          1           0       -8.125580   -4.080522    0.469084
     96          1           0       -8.009704   -3.889201    2.231260
     97          1           0       -7.437198   -5.332873    1.510918
     98          1           0       -2.078638   -4.834704    0.034219
     99          1           0        0.393511   -5.047214    3.543475
    100          1           0        1.463808   -5.522901    2.145206
    101          1           0        0.235413   -6.631539    2.647949
    102          1           0        4.620398   -2.809824   -3.779880
    103          1           0        5.104270   -4.532167   -3.413403
    104          1           0        6.370474   -3.288987   -1.380186
    105          1           0        7.640790   -1.312636   -4.666784
    106          1           0        6.945002   -2.815051   -5.058098
    107          1           0        8.612450   -2.944866   -4.669560
    108          1           0        9.278547   -3.300859   -2.402973
    109          1           0        8.385139   -2.670383   -0.994140
    110          1           0        8.574775   -0.363602   -2.204035
    111          1           0        9.996218   -1.207148   -2.819991
    112          1           0       11.188101   -1.475862   -0.821339
    113          1           0        9.809557   -1.331035    0.161630
    114          1           0       10.226836    1.149174   -1.430051
    115          1           0       12.670144    0.002665   -1.507277
    116          1           0       12.522977    0.175878    0.224615
    117          1           0       12.575480    1.615471   -0.888623
    118          1           0       10.884536    2.081585    0.726907
    119          1           0       10.432320    0.499203    1.489883
    120          1           0        8.072697    0.584156    0.865562
    121          1           0        8.301054    1.917056   -0.141045
    122          1           0        9.193014    2.930458    2.371127
    123          1           0        8.162966    1.548269    2.795600
    124          1           0        6.323873    2.618281    1.147529
    125          1           0        6.630778    4.652392    0.414822
    126          1           0        8.348677    4.653606    0.849535
    127          1           0        7.093209    5.074230    1.963124
    128          1           0        6.932941    3.483903    3.951957
    129          1           0        5.973223    2.096459    3.532797
    130          1           0        4.766156    4.423460    2.256173
    131          1           0        5.187668    4.715823    3.962512
    132          1           0        3.848693    3.268548    4.755543
    133          1           0        3.980853    2.119342    3.426081
    134          1           0        2.636341    5.001579    3.540008
    135          1           0        0.462976    3.708475    4.062127
    136          1           0        1.832277    3.326336    5.265690
    137          1           0        1.251730    2.246584    3.955043
    138          1           0        2.116021    4.692273    1.330214
    139          1           0        1.205997    3.280582    1.691457
    140          1           0        2.887314    3.012291    1.314678
 ---------------------------------------------------------------------

 SCF Done:  E(RCAM-B3LYP) =  -3007.15894932     A.U. after   19 cycles

 Excitation energies and oscillator strengths:

 Excited State   1:      Singlet-A      1.6738 eV  740.74 nm  f=0.3711  <S**2>=0.000
     245 -> 248       -0.17922
     246 -> 247        0.68472
     245 <- 248       -0.10721
 This state for optimization and/or second-order correction.
 Total Energy, E(TD-HF/TD-DFT) =  -3007.09743905
 Copying the excited state density for this state as the 1-particle RhoCI density.

 Excited State   2:      Singlet-A      2.1945 eV  564.97 nm  f=0.0754  <S**2>=0.000
     245 -> 247        0.62301
     246 -> 248        0.32286

 Excited State   3:      Singlet-A      3.2757 eV  378.50 nm  f=0.0069  <S**2>=0.000
     239 -> 247        0.14311
     239 -> 249       -0.10579
     240 -> 247        0.49439
     240 -> 249       -0.31603
     240 -> 250        0.20099
     242 -> 247        0.15587

 Excited State   4:      Singlet-A      3.3799 eV  366.82 nm  f=0.6044  <S**2>=0.000
     242 -> 247       -0.18191
     245 -> 247       -0.29278
     246 -> 248        0.59329
     245 <- 247        0.10587

 Excited State   5:      Singlet-A      3.4505 eV  359.32 nm  f=0.0025  <S**2>=0.000
     241 -> 247        0.10109
     242 -> 247       -0.16696
     244 -> 247        0.64481

 The electronic state is 1-A.
 Alpha  occ. eigenvalues --  -46.88199 -19.25659 -19.25583 -19.19760 -19.19147
 Alpha  occ. eigenvalues --  -19.19012 -19.18941 -14.42889 -14.42411 -14.39761
 Alpha  occ. eigenvalues --  -14.39588 -10.39665 -10.39331 -10.35549 -10.35329
 Alpha  occ. eigenvalues --  -10.33086 -10.32548 -10.32377 -10.31432 -10.31426
 Alpha  occ. eigenvalues --  -10.31206 -10.30317 -10.30176 -10.29992 -10.29715
 Alpha  occ. eigenvalues --  -10.29301 -10.29276 -10.29107 -10.29004 -10.28695
 Alpha  occ. eigenvalues --  -10.28689 -10.28413 -10.28270 -10.28205 -10.28091
 Alpha  occ. eigenvalues --  -10.27755 -10.27444 -10.27173 -10.27012 -10.26776
 Alpha  occ. eigenvalues --  -10.26750 -10.26507 -10.26499 -10.26486 -10.26319
 Alpha  occ. eigenvalues --  -10.26281 -10.25825 -10.25717 -10.25705 -10.25621
 Alpha  occ. eigenvalues --  -10.25616 -10.25616 -10.25527 -10.25450 -10.25431
 Alpha  occ. eigenvalues --  -10.25371 -10.25210 -10.25148 -10.25014 -10.24930
 Alpha  occ. eigenvalues --  -10.24870 -10.24745 -10.24685 -10.24577 -10.24413
 Alpha  occ. eigenvalues --  -10.24127  -3.16849  -1.91750  -1.91309  -1.91159
 Alpha  occ. eigenvalues --   -1.16716  -1.16341  -1.08394  -1.08058  -1.07191
 Alpha  occ. eigenvalues --   -1.06615  -1.04167  -1.02239  -1.02001  -1.00773
 Alpha  occ. eigenvalues --   -0.92438  -0.91080  -0.90440  -0.89764  -0.89544
 Alpha  occ. eigenvalues --   -0.88699  -0.88127  -0.87645  -0.87180  -0.87031
 Alpha  occ. eigenvalues --   -0.86375  -0.85943  -0.84873  -0.84137  -0.83410
 Alpha  occ. eigenvalues --   -0.82461  -0.82086  -0.81546  -0.81011  -0.80538
 Alpha  occ. eigenvalues --   -0.79864  -0.78681  -0.78203  -0.77662  -0.76588
 Alpha  occ. eigenvalues --   -0.76369  -0.76314  -0.75265  -0.75003  -0.74118
 Alpha  occ. eigenvalues --   -0.73360  -0.72591  -0.71670  -0.70633  -0.69165
 Alpha  occ. eigenvalues --   -0.68717  -0.68454  -0.67106  -0.66476  -0.65436
 Alpha  occ. eigenvalues --   -0.65356  -0.65024  -0.64656  -0.64156  -0.64058
 Alpha  occ. eigenvalues --   -0.63965  -0.63489  -0.62634  -0.62443  -0.60169
 Alpha  occ. eigenvalues --   -0.59627  -0.59224  -0.59010  -0.58635  -0.58285
 Alpha  occ. eigenvalues --   -0.57291  -0.57088  -0.56876  -0.56087  -0.55732
 Alpha  occ. eigenvalues --   -0.55373  -0.55050  -0.54987  -0.54487  -0.54345
 Alpha  occ. eigenvalues --   -0.54205  -0.53714  -0.53310  -0.53212  -0.53080
 Alpha  occ. eigenvalues --   -0.52964  -0.52545  -0.52384  -0.52210  -0.51935
 Alpha  occ. eigenvalues --   -0.51824  -0.51501  -0.51493  -0.51309  -0.50966
 Alpha  occ. eigenvalues --   -0.50890  -0.50511  -0.50315  -0.50216  -0.49964
 Alpha  occ. eigenvalues --   -0.49915  -0.49251  -0.49164  -0.49024  -0.48911
 Alpha  occ. eigenvalues --   -0.48599  -0.48400  -0.48141  -0.48062  -0.47815
 Alpha  occ. eigenvalues --   -0.47593  -0.47468  -0.47194  -0.47092  -0.46833
 Alpha  occ. eigenvalues --   -0.46696  -0.46576  -0.46443  -0.46203  -0.45883
 Alpha  occ. eigenvalues --   -0.45793  -0.45567  -0.45330  -0.45116  -0.44798
 Alpha  occ. eigenvalues --   -0.44422  -0.44360  -0.44162  -0.43746  -0.43626
 Alpha  occ. eigenvalues --   -0.43417  -0.43307  -0.43216  -0.42936  -0.42825
 Alpha  occ. eigenvalues --   -0.42808  -0.42771  -0.42499  -0.42276  -0.42122
 Alpha  occ. eigenvalues --   -0.41894  -0.41846  -0.41473  -0.41451  -0.41233
 Alpha  occ. eigenvalues --   -0.41112  -0.40937  -0.40689  -0.40572  -0.40333
 Alpha  occ. eigenvalues --   -0.40223  -0.39933  -0.39527  -0.39515  -0.38975
 Alpha  occ. eigenvalues --   -0.38801  -0.38344  -0.38132  -0.37775  -0.37533
 Alpha  occ. eigenvalues --   -0.37387  -0.37342  -0.37182  -0.36688  -0.36534
 Alpha  occ. eigenvalues --   -0.36422  -0.36359  -0.35324  -0.34781  -0.34520
 Alpha  occ. eigenvalues --   -0.33566  -0.33440  -0.33263  -0.31309  -0.31005
 Alpha  occ. eigenvalues --   -0.30904  -0.30540  -0.30021  -0.29697  -0.24288
 Alpha  occ. eigenvalues --   -0.21130
 Alpha virt. eigenvalues --   -0.08762  -0.02409  -0.00200   0.01437   0.03195
 Alpha virt. eigenvalues --    0.04895   0.05092   0.05324   0.05888   0.06038
 Alpha virt. eigenvalues --    0.07263   0.07494   0.08422   0.08652   0.08838

 Mulliken charges:
               1
     1  Mg   0.838004
     2  C   -0.056337
     3  C   -0.057541
     4  C   -0.047591
     5  C   -0.104553
     6  N   -0.286223
     7  C    0.001831
     8  C   -0.022997
     9  C   -0.103362
    10  C    0.024201
    11  C    0.090046
    12  C    0.107181
    13  C    0.015004
    14  C    0.166666
    15  O   -0.249162
    16  O   -0.336591
    17  N   -0.439221
    18  C    0.159199
    19  C   -0.157936
    20  C   -0.033997
    21  C    0.091847
    22  C    0.102122
    23  C    0.026739
    24  O   -0.222248
    25  C    0.033936
    26  N   -0.360112
    27  C    0.128238
    28  C   -0.079340
    29  C   -0.005582
    30  C    0.051402
    31  C    0.058636
    32  C    0.023043
    33  C    0.015165
    34  N   -0.318234
    35  C    0.141104
    36  C   -0.139451
    37  C    0.015451
    38  C    0.110224
    39  C    0.109525
    40  C    0.073296
    41  O   -0.218437
    42  C    0.033170
    43  C    0.177379
    44  O   -0.204001
    45  O   -0.360837
    46  C    0.169312
    47  C    0.330960
    48  C   -0.169009
    49  C   -0.180202
    50  C    0.093451
    51  C    0.067614
    52  C   -0.009689
    53  C    0.090310
    54  C   -0.132537
    55  C    0.042703
    56  C    0.068987
    57  C    0.007948
    58  C    0.053387
    59  C   -0.131829
    60  C    0.057147
    61  C    0.059156
    62  C    0.008372
    63  C   -0.009099
    64  C   -0.146383
    65  C    0.073177
    66  C    0.022092
    67  H   -0.040991
    68  H   -0.003201
    69  H   -0.028473
    70  H    0.002537
    71  H    0.021512
    72  H    0.032055
    73  H    0.016331
    74  H    0.015244
    75  H    0.028000
    76  H    0.021164
    77  H    0.038969
    78  H    0.021367
    79  H    0.048359
    80  H    0.009701
    81  H    0.023583
    82  H    0.038126
    83  H    0.018447
    84  H    0.028256
    85  H    0.021241
    86  H   -0.000714
    87  H    0.021716
    88  H    0.028488
    89  H    0.013403
    90  H    0.002386
    91  H    0.013153
    92  H    0.005499
    93  H    0.020091
    94  H    0.024014
    95  H    0.026290
    96  H    0.028337
    97  H    0.037782
    98  H    0.051684
    99  H    0.060887
   100  H    0.037221
   101  H    0.045258
   102  H    0.047271
   103  H    0.040502
   104  H    0.000597
   105  H    0.034566
   106  H   -0.004292
   107  H    0.022664
   108  H    0.008171
   109  H   -0.010337
   110  H    0.014645
   111  H   -0.002860
   112  H   -0.015104
   113  H   -0.012785
   114  H   -0.007390
   115  H    0.002646
   116  H    0.004495
   117  H    0.009832
   118  H    0.001677
   119  H   -0.005055
   120  H   -0.002007
   121  H   -0.009055
   122  H    0.002159
   123  H   -0.014845
   124  H   -0.018665
   125  H   -0.001187
   126  H    0.015960
   127  H   -0.009892
   128  H   -0.013763
   129  H   -0.006433
   130  H   -0.010034
   131  H   -0.006349
   132  H   -0.016408
   133  H    0.006052
   134  H    0.005253
   135  H    0.002554
   136  H    0.015513
   137  H   -0.001061
   138  H    0.017938
   139  H    0.000642
   140  H    0.031141
 Sum of Mulliken charges =  -0.00000

 Dipole moment (field-independent basis, Debye):
    X=              4.8291    Y=              2.0450    Z=             -0.0229  Tot=              5.2443
 Quadrupole moment (field-independent basis, Debye-Ang):
   XX=           -361.7594   YY=           -432.3834   ZZ=           -420.4567
   XY=             -8.9826   XZ=             -2.1525   YZ=             17.5736

 Normal termination of Gaussian 16 at Tue Apr 26 23:06:38 2022.
