 Gaussian 16, Revision A.03,
 Gaussian 16:  ES64L-G16RevA.03 25-Dec-2016

 ---------------------------------
 #p PBE1PBE/Def2SVP td=(nstates=5)
 ---------------------------------

 -----------------------------------------------------
 step_101_chromophore_12 TDDFT with PBE1PBE functional
 -----------------------------------------------------
 Symbolic Z-matrix:
 Charge =  0 Multiplicity = 1

                         Standard orientation:
 ---------------------------------------------------------------------
 Center     Atomic      Atomic             Coordinates (Angstroms)
 Number     Number       Type             X           Y           Z
 ---------------------------------------------------------------------
      1         12           0       -4.225991    0.306222   -0.309072
      2          6           0       -2.770298   -2.848474    0.568505
      3          6           0       -1.029906    1.634379   -0.361131
      4          6           0       -5.621710    3.196230   -1.076698
      5          6           0       -7.312586   -1.188417    0.473622
      6          7           0       -2.163439   -0.543454    0.064754
      7          6           0       -1.776863   -1.809692    0.358635
      8          6           0       -0.243162   -2.039395    0.344377
      9          6           0        0.343496   -0.523912    0.292583
     10          6           0       -0.992236    0.273762   -0.027828
     11          6           0        0.960493   -0.007997    1.528878
     12          6           0        0.287089   -2.837153   -0.905133
     13          6           0        1.842717   -3.152408   -0.848886
     14          6           0        2.741310   -3.186275   -2.052572
     15          8           0        2.276316   -3.065331   -3.185555
     16          8           0        4.029554   -3.555950   -1.852056
     17          7           0       -3.458292    2.115176   -0.775786
     18          6           0       -2.096596    2.479097   -0.783152
     19          6           0       -2.023285    3.892259   -1.189505
     20          6           0       -3.331561    4.310020   -1.619818
     21          6           0       -4.224243    3.232836   -1.144033
     22          6           0       -0.654516    4.594660   -1.252926
     23          6           0       -3.789997    5.577861   -2.327746
     24          8           0       -4.924626    5.875511   -2.762735
     25          6           0       -2.705111    6.632803   -2.587411
     26          7           0       -6.192582    0.812561   -0.344974
     27          6           0       -6.464631    2.165457   -0.619856
     28          6           0       -8.033873    2.439081   -0.540624
     29          6           0       -8.593800    0.922563   -0.269535
     30          6           0       -7.310220    0.128792    0.063280
     31          6           0       -8.476497    3.518638    0.548459
     32          6           0       -9.349257    0.302770   -1.497176
     33          6           0      -10.591803    1.024747   -2.101334
     34          7           0       -4.976147   -1.549864    0.466956
     35          6           0       -6.275641   -2.020146    0.681039
     36          6           0       -6.251785   -3.456396    1.010617
     37          6           0       -4.927824   -3.825117    0.884874
     38          6           0       -4.209343   -2.634031    0.522793
     39          6           0       -7.497991   -4.257267    1.342037
     40          6           0       -3.993449   -4.893292    1.139503
     41          8           0       -4.304479   -6.055600    1.576747
     42          6           0       -2.557503   -4.342600    0.881281
     43          6           0       -1.745635   -4.663460    2.039629
     44          8           0       -2.086880   -4.567753    3.209442
     45          8           0       -0.549322   -5.164891    1.592451
     46          6           0        0.469426   -5.568673    2.589167
     47          6           0        4.942896   -3.527202   -3.025283
     48          6           0        6.284687   -3.121508   -2.454070
     49          6           0        7.440307   -2.627025   -2.952642
     50          6           0        7.716818   -2.373969   -4.427298
     51          6           0        8.613160   -2.513567   -2.047990
     52          6           0        9.318489   -1.125404   -1.970073
     53          6           0       10.233543   -0.952480   -0.768666
     54          6           0       10.667146    0.528335   -0.650749
     55          6           0       12.205064    0.604019   -0.726603
     56          6           0       10.251832    1.195886    0.671834
     57          6           0        8.757390    1.418815    0.715347
     58          6           0        8.408534    2.264310    2.012575
     59          6           0        7.050604    3.047916    1.836727
     60          6           0        7.351408    4.362259    1.179257
     61          6           0        6.287362    3.076419    3.173822
     62          6           0        5.021706    3.950280    3.203878
     63          6           0        3.799562    3.164879    3.671825
     64          6           0        2.500235    3.939352    3.338207
     65          6           0        1.446925    3.277681    4.246825
     66          6           0        2.201621    3.709809    1.795623
     67          1           0       -0.080490    2.145361   -0.193357
     68          1           0       -6.003683    4.147129   -1.452092
     69          1           0       -8.315178   -1.599467    0.603625
     70          1           0        0.076598   -2.457178    1.299377
     71          1           0        1.007921   -0.382675   -0.560251
     72          1           0        0.233607    0.475145    2.182378
     73          1           0        1.657589    0.782303    1.252416
     74          1           0        1.385456   -0.857133    2.064125
     75          1           0        0.145411   -2.160782   -1.748383
     76          1           0       -0.233475   -3.794139   -0.912022
     77          1           0        2.003801   -4.099859   -0.334058
     78          1           0        2.196962   -2.348129   -0.204226
     79          1           0       -0.402413    4.404243   -2.296435
     80          1           0        0.084135    4.174119   -0.571136
     81          1           0       -0.638856    5.628993   -0.910343
     82          1           0       -2.263385    7.037021   -1.676962
     83          1           0       -3.109977    7.481550   -3.138813
     84          1           0       -1.976378    6.197217   -3.270524
     85          1           0       -8.326456    2.859474   -1.502299
     86          1           0       -9.196473    0.842513    0.635432
     87          1           0       -8.683930    4.436101   -0.003064
     88          1           0       -7.699781    3.617452    1.307004
     89          1           0       -9.431300    3.262882    1.009574
     90          1           0       -9.578808   -0.696580   -1.129319
     91          1           0       -8.638230    0.266019   -2.322909
     92          1           0      -11.003739    1.724073   -1.373531
     93          1           0      -11.428818    0.370874   -2.342245
     94          1           0      -10.302588    1.592983   -2.984228
     95          1           0       -8.125580   -4.080522    0.469084
     96          1           0       -8.009704   -3.889201    2.231260
     97          1           0       -7.437198   -5.332873    1.510918
     98          1           0       -2.078638   -4.834704    0.034219
     99          1           0        0.393511   -5.047214    3.543475
    100          1           0        1.463808   -5.522901    2.145206
    101          1           0        0.235413   -6.631539    2.647949
    102          1           0        4.620398   -2.809824   -3.779880
    103          1           0        5.104270   -4.532167   -3.413403
    104          1           0        6.370474   -3.288987   -1.380186
    105          1           0        7.640790   -1.312636   -4.666784
    106          1           0        6.945002   -2.815051   -5.058098
    107          1           0        8.612450   -2.944866   -4.669560
    108          1           0        9.278547   -3.300859   -2.402973
    109          1           0        8.385139   -2.670383   -0.994140
    110          1           0        8.574775   -0.363602   -2.204035
    111          1           0        9.996218   -1.207148   -2.819991
    112          1           0       11.188101   -1.475862   -0.821339
    113          1           0        9.809557   -1.331035    0.161630
    114          1           0       10.226836    1.149174   -1.430051
    115          1           0       12.670144    0.002665   -1.507277
    116          1           0       12.522977    0.175878    0.224615
    117          1           0       12.575480    1.615471   -0.888623
    118          1           0       10.884536    2.081585    0.726907
    119          1           0       10.432320    0.499203    1.489883
    120          1           0        8.072697    0.584156    0.865562
    121          1           0        8.301054    1.917056   -0.141045
    122          1           0        9.193014    2.930458    2.371127
    123          1           0        8.162966    1.548269    2.795600
    124          1           0        6.323873    2.618281    1.147529
    125          1           0        6.630778    4.652392    0.414822
    126          1           0        8.348677    4.653606    0.849535
    127          1           0        7.093209    5.074230    1.963124
    128          1           0        6.932941    3.483903    3.951957
    129          1           0        5.973223    2.096459    3.532797
    130          1           0        4.766156    4.423460    2.256173
    131          1           0        5.187668    4.715823    3.962512
    132          1           0        3.848693    3.268548    4.755543
    133          1           0        3.980853    2.119342    3.426081
    134          1           0        2.636341    5.001579    3.540008
    135          1           0        0.462976    3.708475    4.062127
    136          1           0        1.832277    3.326336    5.265690
    137          1           0        1.251730    2.246584    3.955043
    138          1           0        2.116021    4.692273    1.330214
    139          1           0        1.205997    3.280582    1.691457
    140          1           0        2.887314    3.012291    1.314678
 ---------------------------------------------------------------------

 SCF Done:  E(RPBE1PBE) =  -3005.34695417     A.U. after   16 cycles

 Excitation energies and oscillator strengths:

 Excited State   1:      Singlet-A      1.8222 eV  680.40 nm  f=0.3632  <S**2>=0.000
     245 -> 248       -0.17101
     246 -> 247        0.69203
     246 <- 247       -0.10610
 This state for optimization and/or second-order correction.
 Total Energy, E(TD-HF/TD-DFT) =  -3005.27998890
 Copying the excited state density for this state as the 1-particle RhoCI density.

 Excited State   2:      Singlet-A      2.1944 eV  564.99 nm  f=0.0789  <S**2>=0.000
     245 -> 247        0.64014
     246 -> 248        0.28430

 Excited State   3:      Singlet-A      2.8756 eV  431.15 nm  f=0.0003  <S**2>=0.000
     241 -> 247       -0.14857
     242 -> 247        0.62680
     242 -> 249       -0.19246
     242 -> 250        0.11987
     243 -> 247       -0.12775

 Excited State   4:      Singlet-A      3.0295 eV  409.26 nm  f=0.0036  <S**2>=0.000
     241 -> 247        0.11812
     242 -> 247        0.15398
     243 -> 247        0.60261
     244 -> 247        0.23048

 Excited State   5:      Singlet-A      3.1460 eV  394.10 nm  f=0.0239  <S**2>=0.000
     241 -> 247        0.62629
     242 -> 247        0.11625
     243 -> 247       -0.15403
     246 -> 248       -0.15747

 The electronic state is 1-A.
 Alpha  occ. eigenvalues --  -46.91630 -19.26345 -19.26188 -19.19905 -19.19443
 Alpha  occ. eigenvalues --  -19.19392 -19.19030 -14.42471 -14.41940 -14.39559
 Alpha  occ. eigenvalues --  -14.39163 -10.36693 -10.36247 -10.32833 -10.32350
 Alpha  occ. eigenvalues --  -10.30491 -10.30002 -10.29726 -10.29394 -10.29370
 Alpha  occ. eigenvalues --  -10.28798 -10.28314 -10.28093 -10.27469 -10.27263
 Alpha  occ. eigenvalues --  -10.27217 -10.27092 -10.26885 -10.26557 -10.26526
 Alpha  occ. eigenvalues --  -10.26207 -10.26169 -10.26023 -10.25918 -10.25720
 Alpha  occ. eigenvalues --  -10.25698 -10.25193 -10.24766 -10.24673 -10.24492
 Alpha  occ. eigenvalues --  -10.24373 -10.24203 -10.23971 -10.23779 -10.23773
 Alpha  occ. eigenvalues --  -10.23692 -10.23351 -10.23319 -10.23210 -10.23175
 Alpha  occ. eigenvalues --  -10.23118 -10.23110 -10.23084 -10.23074 -10.22997
 Alpha  occ. eigenvalues --  -10.22831 -10.22782 -10.22684 -10.22568 -10.22533
 Alpha  occ. eigenvalues --  -10.22332 -10.22319 -10.22308 -10.22001 -10.21985
 Alpha  occ. eigenvalues --  -10.21521  -3.13858  -1.86701  -1.86239  -1.86092
 Alpha  occ. eigenvalues --   -1.11541  -1.11036  -1.03249  -1.02771  -1.02055
 Alpha  occ. eigenvalues --   -1.01176  -0.98706  -0.96848  -0.96605  -0.95540
 Alpha  occ. eigenvalues --   -0.86681  -0.85204  -0.84566  -0.83971  -0.83712
 Alpha  occ. eigenvalues --   -0.83029  -0.82266  -0.81962  -0.81420  -0.81257
 Alpha  occ. eigenvalues --   -0.80724  -0.80259  -0.79102  -0.78416  -0.77619
 Alpha  occ. eigenvalues --   -0.76722  -0.76318  -0.75829  -0.75304  -0.74720
 Alpha  occ. eigenvalues --   -0.74147  -0.72919  -0.72530  -0.71965  -0.70871
 Alpha  occ. eigenvalues --   -0.70549  -0.70456  -0.69405  -0.69363  -0.68320
 Alpha  occ. eigenvalues --   -0.67703  -0.66981  -0.66150  -0.64979  -0.63518
 Alpha  occ. eigenvalues --   -0.63125  -0.62695  -0.61625  -0.60758  -0.59872
 Alpha  occ. eigenvalues --   -0.59596  -0.59532  -0.59127  -0.58640  -0.58335
 Alpha  occ. eigenvalues --   -0.58171  -0.57959  -0.56941  -0.56862  -0.54560
 Alpha  occ. eigenvalues --   -0.54302  -0.53719  -0.53612  -0.53218  -0.52634
 Alpha  occ. eigenvalues --   -0.51716  -0.51626  -0.51278  -0.50680  -0.50269
 Alpha  occ. eigenvalues --   -0.49740  -0.49464  -0.49355  -0.49070  -0.48886
 Alpha  occ. eigenvalues --   -0.48748  -0.48171  -0.47867  -0.47800  -0.47642
 Alpha  occ. eigenvalues --   -0.47588  -0.47071  -0.46871  -0.46751  -0.46554
 Alpha  occ. eigenvalues --   -0.46402  -0.46200  -0.45941  -0.45858  -0.45476
 Alpha  occ. eigenvalues --   -0.45413  -0.45100  -0.44921  -0.44753  -0.44536
 Alpha  occ. eigenvalues --   -0.44476  -0.43851  -0.43781  -0.43676  -0.43545
 Alpha  occ. eigenvalues --   -0.43290  -0.43072  -0.42760  -0.42709  -0.42445
 Alpha  occ. eigenvalues --   -0.42230  -0.42140  -0.41879  -0.41772  -0.41577
 Alpha  occ. eigenvalues --   -0.41347  -0.41236  -0.41113  -0.40850  -0.40645
 Alpha  occ. eigenvalues --   -0.40525  -0.40424  -0.40133  -0.39726  -0.39509
 Alpha  occ. eigenvalues --   -0.39134  -0.39070  -0.38918  -0.38515  -0.38462
 Alpha  occ. eigenvalues --   -0.38224  -0.38164  -0.37940  -0.37781  -0.37726
 Alpha  occ. eigenvalues --   -0.37595  -0.37564  -0.37353  -0.37007  -0.36969
 Alpha  occ. eigenvalues --   -0.36751  -0.36614  -0.36347  -0.36163  -0.36002
 Alpha  occ. eigenvalues --   -0.35971  -0.35762  -0.35531  -0.35377  -0.35219
 Alpha  occ. eigenvalues --   -0.35114  -0.34737  -0.34400  -0.34333  -0.33962
 Alpha  occ. eigenvalues --   -0.33565  -0.33193  -0.33161  -0.32809  -0.32424
 Alpha  occ. eigenvalues --   -0.32389  -0.32264  -0.32033  -0.31729  -0.31428
 Alpha  occ. eigenvalues --   -0.31368  -0.31316  -0.30219  -0.29863  -0.29483
 Alpha  occ. eigenvalues --   -0.28945  -0.28311  -0.28296  -0.26926  -0.26201
 Alpha  occ. eigenvalues --   -0.25858  -0.25612  -0.25346  -0.25330  -0.21181
 Alpha  occ. eigenvalues --   -0.18816
 Alpha virt. eigenvalues --   -0.11293  -0.05916  -0.04384  -0.02969  -0.00028
 Alpha virt. eigenvalues --    0.00296   0.00506   0.01364   0.01504   0.02544
 Alpha virt. eigenvalues --    0.03448   0.03914   0.04402   0.05163   0.05507

 Mulliken charges:
               1
     1  Mg   0.993762
     2  C   -0.059219
     3  C   -0.063076
     4  C   -0.041738
     5  C   -0.104681
     6  N   -0.384249
     7  C    0.071562
     8  C   -0.089258
     9  C   -0.178885
    10  C    0.058796
    11  C    0.029145
    12  C    0.052000
    13  C   -0.064319
    14  C    0.236887
    15  O   -0.281362
    16  O   -0.369805
    17  N   -0.552557
    18  C    0.190329
    19  C   -0.188603
    20  C   -0.072618
    21  C    0.124153
    22  C    0.037990
    23  C    0.073565
    24  O   -0.258299
    25  C   -0.040214
    26  N   -0.463041
    27  C    0.154010
    28  C   -0.150182
    29  C   -0.079310
    30  C    0.093450
    31  C    0.000536
    32  C   -0.038883
    33  C   -0.056214
    34  N   -0.435123
    35  C    0.153051
    36  C   -0.155519
    37  C   -0.039272
    38  C    0.163184
    39  C    0.058718
    40  C    0.170891
    41  O   -0.262906
    42  C   -0.087197
    43  C    0.274839
    44  O   -0.240739
    45  O   -0.393719
    46  C    0.114575
    47  C    0.289746
    48  C   -0.178833
    49  C   -0.225759
    50  C    0.033932
    51  C    0.004223
    52  C   -0.077746
    53  C    0.042836
    54  C   -0.220660
    55  C   -0.021951
    56  C    0.009360
    57  C   -0.047025
    58  C   -0.005191
    59  C   -0.216125
    60  C   -0.000023
    61  C    0.001843
    62  C   -0.049597
    63  C   -0.069268
    64  C   -0.238152
    65  C    0.005328
    66  C   -0.041072
    67  H   -0.006134
    68  H    0.028148
    69  H    0.002309
    70  H    0.042215
    71  H    0.057283
    72  H    0.059660
    73  H    0.047906
    74  H    0.043026
    75  H    0.059529
    76  H    0.057906
    77  H    0.071842
    78  H    0.055481
    79  H    0.077741
    80  H    0.040811
    81  H    0.051111
    82  H    0.064263
    83  H    0.047161
    84  H    0.055706
    85  H    0.057485
    86  H    0.036233
    87  H    0.048546
    88  H    0.056099
    89  H    0.041336
    90  H    0.036239
    91  H    0.046529
    92  H    0.033783
    93  H    0.047960
    94  H    0.050332
    95  H    0.052515
    96  H    0.054751
    97  H    0.063968
    98  H    0.088539
    99  H    0.080544
   100  H    0.058308
   101  H    0.067666
   102  H    0.072217
   103  H    0.067353
   104  H    0.030762
   105  H    0.061376
   106  H    0.024410
   107  H    0.049092
   108  H    0.041652
   109  H    0.021921
   110  H    0.046072
   111  H    0.032354
   112  H    0.017854
   113  H    0.017625
   114  H    0.030578
   115  H    0.031453
   116  H    0.033293
   117  H    0.038123
   118  H    0.033710
   119  H    0.028206
   120  H    0.030413
   121  H    0.023275
   122  H    0.033125
   123  H    0.019864
   124  H    0.019813
   125  H    0.026250
   126  H    0.042990
   127  H    0.019869
   128  H    0.020048
   129  H    0.025392
   130  H    0.023838
   131  H    0.027260
   132  H    0.019523
   133  H    0.036793
   134  H    0.041299
   135  H    0.031482
   136  H    0.043614
   137  H    0.030543
   138  H    0.045491
   139  H    0.030862
   140  H    0.057087
 Sum of Mulliken charges =  -0.00000

 Dipole moment (field-independent basis, Debye):
    X=              4.9458    Y=              2.4642    Z=             -0.0896  Tot=              5.5264
 Quadrupole moment (field-independent basis, Debye-Ang):
   XX=           -356.6501   YY=           -429.9118   ZZ=           -417.8568
   XY=            -10.7629   XZ=             -1.5247   YZ=             17.5372

 Normal termination of Gaussian 16 at Tue Apr 26 23:28:28 2022.
