 Gaussian 16, Revision A.03,
 Gaussian 16:  ES64L-G16RevA.03 25-Dec-2016

 --------------------------------
 #p wB97XD/Def2SVP td=(nstates=5)
 --------------------------------

 ----------------------------------------------------
 step_101_chromophore_12 TDDFT with wB97XD functional
 ----------------------------------------------------
 Symbolic Z-matrix:
 Charge =  0 Multiplicity = 1

                         Standard orientation:
 ---------------------------------------------------------------------
 Center     Atomic      Atomic             Coordinates (Angstroms)
 Number     Number       Type             X           Y           Z
 ---------------------------------------------------------------------
      1         12           0       -4.225991    0.306222   -0.309072
      2          6           0       -2.770298   -2.848474    0.568505
      3          6           0       -1.029906    1.634379   -0.361131
      4          6           0       -5.621710    3.196230   -1.076698
      5          6           0       -7.312586   -1.188417    0.473622
      6          7           0       -2.163439   -0.543454    0.064754
      7          6           0       -1.776863   -1.809692    0.358635
      8          6           0       -0.243162   -2.039395    0.344377
      9          6           0        0.343496   -0.523912    0.292583
     10          6           0       -0.992236    0.273762   -0.027828
     11          6           0        0.960493   -0.007997    1.528878
     12          6           0        0.287089   -2.837153   -0.905133
     13          6           0        1.842717   -3.152408   -0.848886
     14          6           0        2.741310   -3.186275   -2.052572
     15          8           0        2.276316   -3.065331   -3.185555
     16          8           0        4.029554   -3.555950   -1.852056
     17          7           0       -3.458292    2.115176   -0.775786
     18          6           0       -2.096596    2.479097   -0.783152
     19          6           0       -2.023285    3.892259   -1.189505
     20          6           0       -3.331561    4.310020   -1.619818
     21          6           0       -4.224243    3.232836   -1.144033
     22          6           0       -0.654516    4.594660   -1.252926
     23          6           0       -3.789997    5.577861   -2.327746
     24          8           0       -4.924626    5.875511   -2.762735
     25          6           0       -2.705111    6.632803   -2.587411
     26          7           0       -6.192582    0.812561   -0.344974
     27          6           0       -6.464631    2.165457   -0.619856
     28          6           0       -8.033873    2.439081   -0.540624
     29          6           0       -8.593800    0.922563   -0.269535
     30          6           0       -7.310220    0.128792    0.063280
     31          6           0       -8.476497    3.518638    0.548459
     32          6           0       -9.349257    0.302770   -1.497176
     33          6           0      -10.591803    1.024747   -2.101334
     34          7           0       -4.976147   -1.549864    0.466956
     35          6           0       -6.275641   -2.020146    0.681039
     36          6           0       -6.251785   -3.456396    1.010617
     37          6           0       -4.927824   -3.825117    0.884874
     38          6           0       -4.209343   -2.634031    0.522793
     39          6           0       -7.497991   -4.257267    1.342037
     40          6           0       -3.993449   -4.893292    1.139503
     41          8           0       -4.304479   -6.055600    1.576747
     42          6           0       -2.557503   -4.342600    0.881281
     43          6           0       -1.745635   -4.663460    2.039629
     44          8           0       -2.086880   -4.567753    3.209442
     45          8           0       -0.549322   -5.164891    1.592451
     46          6           0        0.469426   -5.568673    2.589167
     47          6           0        4.942896   -3.527202   -3.025283
     48          6           0        6.284687   -3.121508   -2.454070
     49          6           0        7.440307   -2.627025   -2.952642
     50          6           0        7.716818   -2.373969   -4.427298
     51          6           0        8.613160   -2.513567   -2.047990
     52          6           0        9.318489   -1.125404   -1.970073
     53          6           0       10.233543   -0.952480   -0.768666
     54          6           0       10.667146    0.528335   -0.650749
     55          6           0       12.205064    0.604019   -0.726603
     56          6           0       10.251832    1.195886    0.671834
     57          6           0        8.757390    1.418815    0.715347
     58          6           0        8.408534    2.264310    2.012575
     59          6           0        7.050604    3.047916    1.836727
     60          6           0        7.351408    4.362259    1.179257
     61          6           0        6.287362    3.076419    3.173822
     62          6           0        5.021706    3.950280    3.203878
     63          6           0        3.799562    3.164879    3.671825
     64          6           0        2.500235    3.939352    3.338207
     65          6           0        1.446925    3.277681    4.246825
     66          6           0        2.201621    3.709809    1.795623
     67          1           0       -0.080490    2.145361   -0.193357
     68          1           0       -6.003683    4.147129   -1.452092
     69          1           0       -8.315178   -1.599467    0.603625
     70          1           0        0.076598   -2.457178    1.299377
     71          1           0        1.007921   -0.382675   -0.560251
     72          1           0        0.233607    0.475145    2.182378
     73          1           0        1.657589    0.782303    1.252416
     74          1           0        1.385456   -0.857133    2.064125
     75          1           0        0.145411   -2.160782   -1.748383
     76          1           0       -0.233475   -3.794139   -0.912022
     77          1           0        2.003801   -4.099859   -0.334058
     78          1           0        2.196962   -2.348129   -0.204226
     79          1           0       -0.402413    4.404243   -2.296435
     80          1           0        0.084135    4.174119   -0.571136
     81          1           0       -0.638856    5.628993   -0.910343
     82          1           0       -2.263385    7.037021   -1.676962
     83          1           0       -3.109977    7.481550   -3.138813
     84          1           0       -1.976378    6.197217   -3.270524
     85          1           0       -8.326456    2.859474   -1.502299
     86          1           0       -9.196473    0.842513    0.635432
     87          1           0       -8.683930    4.436101   -0.003064
     88          1           0       -7.699781    3.617452    1.307004
     89          1           0       -9.431300    3.262882    1.009574
     90          1           0       -9.578808   -0.696580   -1.129319
     91          1           0       -8.638230    0.266019   -2.322909
     92          1           0      -11.003739    1.724073   -1.373531
     93          1           0      -11.428818    0.370874   -2.342245
     94          1           0      -10.302588    1.592983   -2.984228
     95          1           0       -8.125580   -4.080522    0.469084
     96          1           0       -8.009704   -3.889201    2.231260
     97          1           0       -7.437198   -5.332873    1.510918
     98          1           0       -2.078638   -4.834704    0.034219
     99          1           0        0.393511   -5.047214    3.543475
    100          1           0        1.463808   -5.522901    2.145206
    101          1           0        0.235413   -6.631539    2.647949
    102          1           0        4.620398   -2.809824   -3.779880
    103          1           0        5.104270   -4.532167   -3.413403
    104          1           0        6.370474   -3.288987   -1.380186
    105          1           0        7.640790   -1.312636   -4.666784
    106          1           0        6.945002   -2.815051   -5.058098
    107          1           0        8.612450   -2.944866   -4.669560
    108          1           0        9.278547   -3.300859   -2.402973
    109          1           0        8.385139   -2.670383   -0.994140
    110          1           0        8.574775   -0.363602   -2.204035
    111          1           0        9.996218   -1.207148   -2.819991
    112          1           0       11.188101   -1.475862   -0.821339
    113          1           0        9.809557   -1.331035    0.161630
    114          1           0       10.226836    1.149174   -1.430051
    115          1           0       12.670144    0.002665   -1.507277
    116          1           0       12.522977    0.175878    0.224615
    117          1           0       12.575480    1.615471   -0.888623
    118          1           0       10.884536    2.081585    0.726907
    119          1           0       10.432320    0.499203    1.489883
    120          1           0        8.072697    0.584156    0.865562
    121          1           0        8.301054    1.917056   -0.141045
    122          1           0        9.193014    2.930458    2.371127
    123          1           0        8.162966    1.548269    2.795600
    124          1           0        6.323873    2.618281    1.147529
    125          1           0        6.630778    4.652392    0.414822
    126          1           0        8.348677    4.653606    0.849535
    127          1           0        7.093209    5.074230    1.963124
    128          1           0        6.932941    3.483903    3.951957
    129          1           0        5.973223    2.096459    3.532797
    130          1           0        4.766156    4.423460    2.256173
    131          1           0        5.187668    4.715823    3.962512
    132          1           0        3.848693    3.268548    4.755543
    133          1           0        3.980853    2.119342    3.426081
    134          1           0        2.636341    5.001579    3.540008
    135          1           0        0.462976    3.708475    4.062127
    136          1           0        1.832277    3.326336    5.265690
    137          1           0        1.251730    2.246584    3.955043
    138          1           0        2.116021    4.692273    1.330214
    139          1           0        1.205997    3.280582    1.691457
    140          1           0        2.887314    3.012291    1.314678
 ---------------------------------------------------------------------

 SCF Done:  E(RwB97XD) =  -3007.85849145     A.U. after   19 cycles

 Excitation energies and oscillator strengths:

 Excited State   1:      Singlet-A      1.6197 eV  765.47 nm  f=0.3691  <S**2>=0.000
     245 -> 248       -0.18463
     246 -> 247        0.68243
     245 <- 248       -0.11666
 This state for optimization and/or second-order correction.
 Total Energy, E(TD-HF/TD-DFT) =  -3007.79896836
 Copying the excited state density for this state as the 1-particle RhoCI density.

 Excited State   2:      Singlet-A      2.1376 eV  580.00 nm  f=0.0736  <S**2>=0.000
     245 -> 247        0.62176
     246 -> 248        0.32436

 Excited State   3:      Singlet-A      3.2856 eV  377.35 nm  f=0.0076  <S**2>=0.000
     240 -> 247        0.46611
     240 -> 249       -0.32670
     240 -> 250        0.19363
     241 -> 247       -0.17953
     241 -> 249        0.11320
     242 -> 247        0.17256

 Excited State   4:      Singlet-A      3.3910 eV  365.63 nm  f=0.6045  <S**2>=0.000
     240 -> 247        0.15481
     241 -> 247        0.13146
     242 -> 247       -0.14759
     245 -> 247       -0.28701
     246 -> 248        0.58286
     245 <- 247        0.11053

 Excited State   5:      Singlet-A      3.4804 eV  356.23 nm  f=0.0127  <S**2>=0.000
     240 -> 247        0.13822
     241 -> 247        0.11164
     242 -> 247       -0.17535
     244 -> 247        0.61674
     244 -> 249        0.10394
     246 -> 248       -0.10976

 The electronic state is 1-A.
 Alpha  occ. eigenvalues --  -46.94550 -19.30917 -19.30847 -19.24741 -19.24115
 Alpha  occ. eigenvalues --  -19.24099 -19.24015 -14.47517 -14.47043 -14.44379
 Alpha  occ. eigenvalues --  -14.44238 -10.43473 -10.43201 -10.39504 -10.39452
 Alpha  occ. eigenvalues --  -10.36986 -10.36474 -10.36313 -10.35470 -10.35456
 Alpha  occ. eigenvalues --  -10.35266 -10.34314 -10.34165 -10.34089 -10.33808
 Alpha  occ. eigenvalues --  -10.33404 -10.33383 -10.33331 -10.33208 -10.32774
 Alpha  occ. eigenvalues --  -10.32751 -10.32350 -10.32327 -10.32277 -10.32110
 Alpha  occ. eigenvalues --  -10.31810 -10.31482 -10.31081 -10.31020 -10.30732
 Alpha  occ. eigenvalues --  -10.30717 -10.30536 -10.30515 -10.30451 -10.30148
 Alpha  occ. eigenvalues --  -10.30134 -10.29841 -10.29665 -10.29579 -10.29565
 Alpha  occ. eigenvalues --  -10.29536 -10.29483 -10.29460 -10.29369 -10.29349
 Alpha  occ. eigenvalues --  -10.29285 -10.29153 -10.29065 -10.28941 -10.28871
 Alpha  occ. eigenvalues --  -10.28691 -10.28671 -10.28624 -10.28423 -10.28331
 Alpha  occ. eigenvalues --  -10.27937  -3.20627  -1.94222  -1.93760  -1.93608
 Alpha  occ. eigenvalues --   -1.18919  -1.18548  -1.10575  -1.10288  -1.09396
 Alpha  occ. eigenvalues --   -1.08918  -1.06270  -1.04245  -1.04009  -1.02784
 Alpha  occ. eigenvalues --   -0.94474  -0.92868  -0.92205  -0.91606  -0.91356
 Alpha  occ. eigenvalues --   -0.90643  -0.89897  -0.89573  -0.89121  -0.88943
 Alpha  occ. eigenvalues --   -0.88298  -0.87851  -0.86749  -0.86058  -0.85263
 Alpha  occ. eigenvalues --   -0.84336  -0.84015  -0.83445  -0.82912  -0.82365
 Alpha  occ. eigenvalues --   -0.81799  -0.80618  -0.80151  -0.79596  -0.78544
 Alpha  occ. eigenvalues --   -0.78225  -0.78106  -0.77062  -0.76951  -0.75959
 Alpha  occ. eigenvalues --   -0.75302  -0.74598  -0.73652  -0.72582  -0.71128
 Alpha  occ. eigenvalues --   -0.70701  -0.70319  -0.69093  -0.68365  -0.67360
 Alpha  occ. eigenvalues --   -0.67223  -0.67038  -0.66616  -0.66102  -0.65960
 Alpha  occ. eigenvalues --   -0.65803  -0.65459  -0.64473  -0.64455  -0.62114
 Alpha  occ. eigenvalues --   -0.61638  -0.61196  -0.61034  -0.60616  -0.60277
 Alpha  occ. eigenvalues --   -0.59200  -0.59078  -0.58757  -0.58070  -0.57715
 Alpha  occ. eigenvalues --   -0.57266  -0.56921  -0.56823  -0.56420  -0.56281
 Alpha  occ. eigenvalues --   -0.56150  -0.55568  -0.55220  -0.55190  -0.55021
 Alpha  occ. eigenvalues --   -0.54903  -0.54430  -0.54263  -0.54165  -0.53876
 Alpha  occ. eigenvalues --   -0.53717  -0.53452  -0.53443  -0.53213  -0.52835
 Alpha  occ. eigenvalues --   -0.52822  -0.52399  -0.52221  -0.52148  -0.51880
 Alpha  occ. eigenvalues --   -0.51793  -0.51133  -0.51060  -0.50983  -0.50805
 Alpha  occ. eigenvalues --   -0.50529  -0.50341  -0.50101  -0.50004  -0.49735
 Alpha  occ. eigenvalues --   -0.49501  -0.49381  -0.49129  -0.48978  -0.48798
 Alpha  occ. eigenvalues --   -0.48568  -0.48503  -0.48424  -0.48066  -0.47828
 Alpha  occ. eigenvalues --   -0.47682  -0.47483  -0.47257  -0.47066  -0.46670
 Alpha  occ. eigenvalues --   -0.46349  -0.46292  -0.46117  -0.45652  -0.45582
 Alpha  occ. eigenvalues --   -0.45382  -0.45244  -0.45077  -0.44885  -0.44769
 Alpha  occ. eigenvalues --   -0.44682  -0.44657  -0.44419  -0.44134  -0.44090
 Alpha  occ. eigenvalues --   -0.43804  -0.43714  -0.43496  -0.43293  -0.43112
 Alpha  occ. eigenvalues --   -0.43096  -0.42917  -0.42582  -0.42413  -0.42198
 Alpha  occ. eigenvalues --   -0.42121  -0.41786  -0.41404  -0.41363  -0.40903
 Alpha  occ. eigenvalues --   -0.40625  -0.40191  -0.40089  -0.39752  -0.39446
 Alpha  occ. eigenvalues --   -0.39410  -0.39270  -0.39023  -0.38700  -0.38428
 Alpha  occ. eigenvalues --   -0.38385  -0.38280  -0.37156  -0.36784  -0.36523
 Alpha  occ. eigenvalues --   -0.35702  -0.35459  -0.35090  -0.33510  -0.33055
 Alpha  occ. eigenvalues --   -0.32934  -0.32678  -0.32063  -0.31823  -0.26230
 Alpha  occ. eigenvalues --   -0.22943
 Alpha virt. eigenvalues --   -0.07118  -0.00498   0.01812   0.03524   0.06163
 Alpha virt. eigenvalues --    0.06987   0.07374   0.07733   0.08231   0.08890
 Alpha virt. eigenvalues --    0.09987   0.10626   0.11208   0.11964   0.12291

 Mulliken charges:
               1
     1  Mg   0.980881
     2  C   -0.069092
     3  C   -0.065304
     4  C   -0.054111
     5  C   -0.118149
     6  N   -0.354013
     7  C    0.043589
     8  C   -0.063849
     9  C   -0.151104
    10  C    0.045360
    11  C    0.045036
    12  C    0.068039
    13  C   -0.046842
    14  C    0.227567
    15  O   -0.279287
    16  O   -0.368578
    17  N   -0.521926
    18  C    0.176185
    19  C   -0.177277
    20  C   -0.073353
    21  C    0.114402
    22  C    0.056996
    23  C    0.070733
    24  O   -0.253621
    25  C   -0.027547
    26  N   -0.433499
    27  C    0.139891
    28  C   -0.127010
    29  C   -0.053977
    30  C    0.079969
    31  C    0.011394
    32  C   -0.023356
    33  C   -0.040854
    34  N   -0.400334
    35  C    0.150305
    36  C   -0.148657
    37  C   -0.031642
    38  C    0.147283
    39  C    0.066584
    40  C    0.150005
    41  O   -0.251035
    42  C   -0.042295
    43  C    0.248430
    44  O   -0.234856
    45  O   -0.390934
    46  C    0.128273
    47  C    0.302438
    48  C   -0.186562
    49  C   -0.212914
    50  C    0.044193
    51  C    0.026085
    52  C   -0.057282
    53  C    0.051566
    54  C   -0.190414
    55  C   -0.005957
    56  C    0.027865
    57  C   -0.033825
    58  C    0.011779
    59  C   -0.185525
    60  C    0.006773
    61  C    0.019862
    62  C   -0.035091
    63  C   -0.048298
    64  C   -0.208082
    65  C    0.022851
    66  C   -0.025617
    67  H   -0.022527
    68  H    0.023005
    69  H   -0.003140
    70  H    0.026820
    71  H    0.046740
    72  H    0.052083
    73  H    0.036194
    74  H    0.036554
    75  H    0.051996
    76  H    0.045942
    77  H    0.066242
    78  H    0.045518
    79  H    0.071160
    80  H    0.030695
    81  H    0.045180
    82  H    0.058781
    83  H    0.044953
    84  H    0.049423
    85  H    0.047432
    86  H    0.026357
    87  H    0.043339
    88  H    0.050307
    89  H    0.034488
    90  H    0.026308
    91  H    0.037848
    92  H    0.026524
    93  H    0.043198
    94  H    0.045122
    95  H    0.047133
    96  H    0.051271
    97  H    0.063098
    98  H    0.081828
    99  H    0.078051
   100  H    0.055278
   101  H    0.063839
   102  H    0.068227
   103  H    0.063339
   104  H    0.026061
   105  H    0.056914
   106  H    0.018986
   107  H    0.043826
   108  H    0.033193
   109  H    0.011508
   110  H    0.037047
   111  H    0.021318
   112  H    0.009581
   113  H    0.008555
   114  H    0.017869
   115  H    0.024947
   116  H    0.024573
   117  H    0.032726
   118  H    0.025277
   119  H    0.017641
   120  H    0.021819
   121  H    0.012725
   122  H    0.024672
   123  H    0.009709
   124  H    0.006547
   125  H    0.021547
   126  H    0.038423
   127  H    0.010760
   128  H    0.011042
   129  H    0.015112
   130  H    0.010363
   131  H    0.019103
   132  H    0.007629
   133  H    0.026789
   134  H    0.032727
   135  H    0.026360
   136  H    0.036910
   137  H    0.019712
   138  H    0.040719
   139  H    0.016419
   140  H    0.050017
 Sum of Mulliken charges =  -0.00000

 Dipole moment (field-independent basis, Debye):
    X=              4.8311    Y=              1.9755    Z=              0.0101  Tot=              5.2194
 Quadrupole moment (field-independent basis, Debye-Ang):
   XX=           -355.7542   YY=           -428.4428   ZZ=           -417.6288
   XY=             -8.5914   XZ=             -2.2833   YZ=             17.2831

 Normal termination of Gaussian 16 at Tue Apr 26 23:54:49 2022.
