 Gaussian 16, Revision A.03,
 Gaussian 16:  ES64L-G16RevA.03 25-Dec-2016

 --------------------
 #p ZINDO=(nstates=5)
 --------------------

 -----------------------------
 step_101_chromophore_12 ZINDO
 -----------------------------
 Symbolic Z-matrix:
 Charge =  0 Multiplicity = 1

                         Standard orientation:
 ---------------------------------------------------------------------
 Center     Atomic      Atomic             Coordinates (Angstroms)
 Number     Number       Type             X           Y           Z
 ---------------------------------------------------------------------
      1         12           0       -4.225991    0.306222   -0.309072
      2          6           0       -2.770298   -2.848474    0.568505
      3          6           0       -1.029906    1.634379   -0.361131
      4          6           0       -5.621710    3.196230   -1.076698
      5          6           0       -7.312586   -1.188417    0.473622
      6          7           0       -2.163439   -0.543454    0.064754
      7          6           0       -1.776863   -1.809692    0.358635
      8          6           0       -0.243162   -2.039395    0.344377
      9          6           0        0.343496   -0.523912    0.292583
     10          6           0       -0.992236    0.273762   -0.027828
     11          6           0        0.960493   -0.007997    1.528878
     12          6           0        0.287089   -2.837153   -0.905133
     13          6           0        1.842717   -3.152408   -0.848886
     14          6           0        2.741310   -3.186275   -2.052572
     15          8           0        2.276316   -3.065331   -3.185555
     16          8           0        4.029554   -3.555950   -1.852056
     17          7           0       -3.458292    2.115176   -0.775786
     18          6           0       -2.096596    2.479097   -0.783152
     19          6           0       -2.023285    3.892259   -1.189505
     20          6           0       -3.331561    4.310020   -1.619818
     21          6           0       -4.224243    3.232836   -1.144033
     22          6           0       -0.654516    4.594660   -1.252926
     23          6           0       -3.789997    5.577861   -2.327746
     24          8           0       -4.924626    5.875511   -2.762735
     25          6           0       -2.705111    6.632803   -2.587411
     26          7           0       -6.192582    0.812561   -0.344974
     27          6           0       -6.464631    2.165457   -0.619856
     28          6           0       -8.033873    2.439081   -0.540624
     29          6           0       -8.593800    0.922563   -0.269535
     30          6           0       -7.310220    0.128792    0.063280
     31          6           0       -8.476497    3.518638    0.548459
     32          6           0       -9.349257    0.302770   -1.497176
     33          6           0      -10.591803    1.024747   -2.101334
     34          7           0       -4.976147   -1.549864    0.466956
     35          6           0       -6.275641   -2.020146    0.681039
     36          6           0       -6.251785   -3.456396    1.010617
     37          6           0       -4.927824   -3.825117    0.884874
     38          6           0       -4.209343   -2.634031    0.522793
     39          6           0       -7.497991   -4.257267    1.342037
     40          6           0       -3.993449   -4.893292    1.139503
     41          8           0       -4.304479   -6.055600    1.576747
     42          6           0       -2.557503   -4.342600    0.881281
     43          6           0       -1.745635   -4.663460    2.039629
     44          8           0       -2.086880   -4.567753    3.209442
     45          8           0       -0.549322   -5.164891    1.592451
     46          6           0        0.469426   -5.568673    2.589167
     47          6           0        4.942896   -3.527202   -3.025283
     48          6           0        6.284687   -3.121508   -2.454070
     49          6           0        7.440307   -2.627025   -2.952642
     50          6           0        7.716818   -2.373969   -4.427298
     51          6           0        8.613160   -2.513567   -2.047990
     52          6           0        9.318489   -1.125404   -1.970073
     53          6           0       10.233543   -0.952480   -0.768666
     54          6           0       10.667146    0.528335   -0.650749
     55          6           0       12.205064    0.604019   -0.726603
     56          6           0       10.251832    1.195886    0.671834
     57          6           0        8.757390    1.418815    0.715347
     58          6           0        8.408534    2.264310    2.012575
     59          6           0        7.050604    3.047916    1.836727
     60          6           0        7.351408    4.362259    1.179257
     61          6           0        6.287362    3.076419    3.173822
     62          6           0        5.021706    3.950280    3.203878
     63          6           0        3.799562    3.164879    3.671825
     64          6           0        2.500235    3.939352    3.338207
     65          6           0        1.446925    3.277681    4.246825
     66          6           0        2.201621    3.709809    1.795623
     67          1           0       -0.080490    2.145361   -0.193357
     68          1           0       -6.003683    4.147129   -1.452092
     69          1           0       -8.315178   -1.599467    0.603625
     70          1           0        0.076598   -2.457178    1.299377
     71          1           0        1.007921   -0.382675   -0.560251
     72          1           0        0.233607    0.475145    2.182378
     73          1           0        1.657589    0.782303    1.252416
     74          1           0        1.385456   -0.857133    2.064125
     75          1           0        0.145411   -2.160782   -1.748383
     76          1           0       -0.233475   -3.794139   -0.912022
     77          1           0        2.003801   -4.099859   -0.334058
     78          1           0        2.196962   -2.348129   -0.204226
     79          1           0       -0.402413    4.404243   -2.296435
     80          1           0        0.084135    4.174119   -0.571136
     81          1           0       -0.638856    5.628993   -0.910343
     82          1           0       -2.263385    7.037021   -1.676962
     83          1           0       -3.109977    7.481550   -3.138813
     84          1           0       -1.976378    6.197217   -3.270524
     85          1           0       -8.326456    2.859474   -1.502299
     86          1           0       -9.196473    0.842513    0.635432
     87          1           0       -8.683930    4.436101   -0.003064
     88          1           0       -7.699781    3.617452    1.307004
     89          1           0       -9.431300    3.262882    1.009574
     90          1           0       -9.578808   -0.696580   -1.129319
     91          1           0       -8.638230    0.266019   -2.322909
     92          1           0      -11.003739    1.724073   -1.373531
     93          1           0      -11.428818    0.370874   -2.342245
     94          1           0      -10.302588    1.592983   -2.984228
     95          1           0       -8.125580   -4.080522    0.469084
     96          1           0       -8.009704   -3.889201    2.231260
     97          1           0       -7.437198   -5.332873    1.510918
     98          1           0       -2.078638   -4.834704    0.034219
     99          1           0        0.393511   -5.047214    3.543475
    100          1           0        1.463808   -5.522901    2.145206
    101          1           0        0.235413   -6.631539    2.647949
    102          1           0        4.620398   -2.809824   -3.779880
    103          1           0        5.104270   -4.532167   -3.413403
    104          1           0        6.370474   -3.288987   -1.380186
    105          1           0        7.640790   -1.312636   -4.666784
    106          1           0        6.945002   -2.815051   -5.058098
    107          1           0        8.612450   -2.944866   -4.669560
    108          1           0        9.278547   -3.300859   -2.402973
    109          1           0        8.385139   -2.670383   -0.994140
    110          1           0        8.574775   -0.363602   -2.204035
    111          1           0        9.996218   -1.207148   -2.819991
    112          1           0       11.188101   -1.475862   -0.821339
    113          1           0        9.809557   -1.331035    0.161630
    114          1           0       10.226836    1.149174   -1.430051
    115          1           0       12.670144    0.002665   -1.507277
    116          1           0       12.522977    0.175878    0.224615
    117          1           0       12.575480    1.615471   -0.888623
    118          1           0       10.884536    2.081585    0.726907
    119          1           0       10.432320    0.499203    1.489883
    120          1           0        8.072697    0.584156    0.865562
    121          1           0        8.301054    1.917056   -0.141045
    122          1           0        9.193014    2.930458    2.371127
    123          1           0        8.162966    1.548269    2.795600
    124          1           0        6.323873    2.618281    1.147529
    125          1           0        6.630778    4.652392    0.414822
    126          1           0        8.348677    4.653606    0.849535
    127          1           0        7.093209    5.074230    1.963124
    128          1           0        6.932941    3.483903    3.951957
    129          1           0        5.973223    2.096459    3.532797
    130          1           0        4.766156    4.423460    2.256173
    131          1           0        5.187668    4.715823    3.962512
    132          1           0        3.848693    3.268548    4.755543
    133          1           0        3.980853    2.119342    3.426081
    134          1           0        2.636341    5.001579    3.540008
    135          1           0        0.462976    3.708475    4.062127
    136          1           0        1.832277    3.326336    5.265690
    137          1           0        1.251730    2.246584    3.955043
    138          1           0        2.116021    4.692273    1.330214
    139          1           0        1.205997    3.280582    1.691457
    140          1           0        2.887314    3.012291    1.314678
 ---------------------------------------------------------------------

 SCF Done:  E(RZINDO/S) =  -473.881298028     A.U. after   19 cycles

 Excitation energies and oscillator strengths:

 Excited State   1:      Singlet-A      1.2375 eV 1001.86 nm  f=0.5807  <S**2>=0.000
     175 ->178         0.18449
     176 ->177         0.66537
 This state for optimization and/or second-order correction.
 Total Energy, E(CIS/TDA) =  -473.835819121
 Copying the excited state density for this state as the 1-particle RhoCI density.

 Excited State   2:      Singlet-A      1.8962 eV  653.85 nm  f=0.0139  <S**2>=0.000
     175 ->177         0.51789
     176 ->178        -0.45851

 Excited State   3:      Singlet-A      2.8576 eV  433.87 nm  f=0.0051  <S**2>=0.000
     168 ->177         0.36743
     168 ->179        -0.45989
     168 ->180         0.20640
     168 ->185         0.16996

 Excited State   4:      Singlet-A      2.9161 eV  425.17 nm  f=0.7264  <S**2>=0.000
     175 ->177         0.34640
     176 ->178         0.41178
     176 ->179        -0.29933
     176 ->180        -0.27731

 Excited State   5:      Singlet-A      2.9481 eV  420.55 nm  f=0.3591  <S**2>=0.000
     175 ->177         0.23043
     176 ->178         0.26222
     176 ->179         0.55362
     176 ->180         0.11855

 The electronic state is 1-A.
 Alpha  occ. eigenvalues --   -1.83706  -1.76983  -1.76444  -1.72929  -1.72283
 Alpha  occ. eigenvalues --   -1.67709  -1.66645  -1.63451  -1.57088  -1.56366
 Alpha  occ. eigenvalues --   -1.55314  -1.53269  -1.49350  -1.45567  -1.45173
 Alpha  occ. eigenvalues --   -1.44396  -1.42495  -1.39559  -1.39515  -1.37775
 Alpha  occ. eigenvalues --   -1.35154  -1.33997  -1.33560  -1.30370  -1.28285
 Alpha  occ. eigenvalues --   -1.28050  -1.24694  -1.22377  -1.20089  -1.19932
 Alpha  occ. eigenvalues --   -1.16992  -1.16199  -1.15736  -1.14950  -1.14497
 Alpha  occ. eigenvalues --   -1.13619  -1.10727  -1.09944  -1.04779  -1.04423
 Alpha  occ. eigenvalues --   -1.03259  -1.00620  -0.97853  -0.97153  -0.96650
 Alpha  occ. eigenvalues --   -0.95081  -0.94662  -0.93230  -0.92377  -0.91633
 Alpha  occ. eigenvalues --   -0.90846  -0.90152  -0.88538  -0.86988  -0.85914
 Alpha  occ. eigenvalues --   -0.85393  -0.84008  -0.82975  -0.82111  -0.80701
 Alpha  occ. eigenvalues --   -0.80098  -0.79480  -0.77424  -0.76789  -0.76520
 Alpha  occ. eigenvalues --   -0.76241  -0.75561  -0.74980  -0.74291  -0.73771
 Alpha  occ. eigenvalues --   -0.73060  -0.72826  -0.71869  -0.70811  -0.70703
 Alpha  occ. eigenvalues --   -0.70161  -0.69512  -0.69007  -0.68585  -0.68054
 Alpha  occ. eigenvalues --   -0.67841  -0.67185  -0.66876  -0.66351  -0.65961
 Alpha  occ. eigenvalues --   -0.65331  -0.64853  -0.64521  -0.64253  -0.63921
 Alpha  occ. eigenvalues --   -0.63734  -0.63421  -0.63020  -0.62581  -0.61732
 Alpha  occ. eigenvalues --   -0.61603  -0.61177  -0.61161  -0.60578  -0.60270
 Alpha  occ. eigenvalues --   -0.59719  -0.59563  -0.59123  -0.58972  -0.58396
 Alpha  occ. eigenvalues --   -0.58191  -0.57962  -0.57611  -0.57248  -0.56921
 Alpha  occ. eigenvalues --   -0.56379  -0.55425  -0.55339  -0.55104  -0.54876
 Alpha  occ. eigenvalues --   -0.54176  -0.54141  -0.53774  -0.53320  -0.52804
 Alpha  occ. eigenvalues --   -0.52383  -0.52305  -0.52100  -0.52017  -0.51552
 Alpha  occ. eigenvalues --   -0.51135  -0.50768  -0.50537  -0.50228  -0.50009
 Alpha  occ. eigenvalues --   -0.49832  -0.49722  -0.49377  -0.49355  -0.48797
 Alpha  occ. eigenvalues --   -0.48763  -0.48733  -0.48498  -0.48410  -0.48235
 Alpha  occ. eigenvalues --   -0.47820  -0.47414  -0.47278  -0.47240  -0.46976
 Alpha  occ. eigenvalues --   -0.46525  -0.46443  -0.46091  -0.45557  -0.45347
 Alpha  occ. eigenvalues --   -0.45177  -0.44548  -0.44509  -0.44437  -0.44251
 Alpha  occ. eigenvalues --   -0.43801  -0.43681  -0.42913  -0.42848  -0.42324
 Alpha  occ. eigenvalues --   -0.41991  -0.41763  -0.40735  -0.39516  -0.38662
 Alpha  occ. eigenvalues --   -0.38588  -0.37866  -0.35911  -0.35206  -0.35014
 Alpha  occ. eigenvalues --   -0.34094  -0.32401  -0.32375  -0.31953  -0.26972
 Alpha  occ. eigenvalues --   -0.21648
 Alpha virt. eigenvalues --   -0.08498  -0.02444  -0.01057   0.00862   0.01482
 Alpha virt. eigenvalues --    0.01943   0.02290   0.03188   0.04416   0.04737
 Alpha virt. eigenvalues --    0.05925   0.06307   0.07200   0.07351   0.07572

 Mulliken charges:
               1
     1  Mg   0.431679
     2  C   -0.087694
     3  C   -0.064414
     4  C   -0.045555
     5  C   -0.045004
     6  N   -0.290617
     7  C    0.157326
     8  C   -0.001606
     9  C   -0.001141
    10  C    0.082906
    11  C   -0.043588
    12  C   -0.018517
    13  C    0.000872
    14  C    0.470030
    15  O   -0.533510
    16  O   -0.266460
    17  N   -0.327640
    18  C    0.078126
    19  C   -0.001873
    20  C   -0.053140
    21  C    0.115695
    22  C   -0.050337
    23  C    0.327154
    24  O   -0.532272
    25  C   -0.034437
    26  N   -0.261321
    27  C    0.097314
    28  C   -0.015414
    29  C    0.001486
    30  C    0.147387
    31  C   -0.053524
    32  C   -0.026182
    33  C   -0.056292
    34  N   -0.327818
    35  C    0.120169
    36  C    0.067555
    37  C   -0.035373
    38  C    0.139545
    39  C   -0.035225
    40  C    0.335694
    41  O   -0.530202
    42  C    0.066660
    43  C    0.497826
    44  O   -0.512514
    45  O   -0.285642
    46  C    0.069430
    47  C    0.115180
    48  C   -0.096779
    49  C   -0.011720
    50  C   -0.047588
    51  C   -0.026061
    52  C   -0.033442
    53  C   -0.027839
    54  C   -0.019977
    55  C   -0.060107
    56  C   -0.025290
    57  C   -0.040179
    58  C   -0.048200
    59  C   -0.007078
    60  C   -0.060580
    61  C   -0.035175
    62  C   -0.046529
    63  C   -0.044886
    64  C   -0.013873
    65  C   -0.057011
    66  C   -0.063669
    67  H    0.022644
    68  H    0.050605
    69  H    0.017974
    70  H    0.036664
    71  H    0.032712
    72  H    0.025144
    73  H    0.022918
    74  H    0.019521
    75  H    0.045506
    76  H    0.032022
    77  H    0.042010
    78  H    0.035290
    79  H    0.039495
    80  H    0.022595
    81  H    0.027864
    82  H    0.036965
    83  H    0.029116
    84  H    0.033993
    85  H    0.037597
    86  H    0.030137
    87  H    0.024872
    88  H    0.030905
    89  H    0.018313
    90  H    0.019882
    91  H    0.024412
    92  H    0.015062
    93  H    0.023113
    94  H    0.025100
    95  H    0.027331
    96  H    0.032854
    97  H    0.041118
    98  H    0.054598
    99  H    0.059902
   100  H    0.032835
   101  H    0.041524
   102  H    0.063396
   103  H    0.056211
   104  H    0.020481
   105  H    0.038211
   106  H    0.011245
   107  H    0.033367
   108  H    0.027238
   109  H    0.016791
   110  H    0.034574
   111  H    0.010952
   112  H    0.022392
   113  H    0.019165
   114  H    0.020080
   115  H    0.012000
   116  H    0.017904
   117  H    0.015421
   118  H    0.028851
   119  H    0.021344
   120  H    0.023898
   121  H    0.018821
   122  H    0.029547
   123  H    0.009313
   124  H    0.017644
   125  H    0.012124
   126  H    0.026906
   127  H    0.006489
   128  H    0.011659
   129  H    0.019336
   130  H    0.021606
   131  H    0.014108
   132  H    0.003713
   133  H    0.035854
   134  H    0.033858
   135  H    0.012856
   136  H    0.025450
   137  H    0.016736
   138  H    0.018638
   139  H    0.012604
   140  H    0.027889
 Sum of Mulliken charges =  -0.00000

 Dipole moment (field-independent basis, Debye):
    X=              5.6990    Y=              1.1838    Z=              0.5996  Tot=              5.8515
 N-N= 4.511607154021D+03 E-N= 0.000000000000D+00  KE=-9.696730431345D+03
 Leave Link  601 at Wed Apr 27 00:07:13 2022, MaxMem=  6710886400 cpu:               0.8 elap:               0.1
 (Enter /sw/apps/gaussian-16.0/g16/l9999.exe)
 1\1\GINC-BP1-COMPUTE140\SP\RZINDO CIS\STO-3G\C55H74Mg1N4O6\OF15641\27-
 Apr-2022\0\\#p ZINDO=(nstates=5)\\step_101_chromophore_12 ZINDO\\0,1\M
 g,0,48.146,15.453,27.556\C,0,45.802,15.57,30.264\C,0,50.228,17.492,29.
 424\C,0,50.251,15.344,25.017\C,0,45.548,13.968,25.707\N,0,47.996,16.39
 9,29.605\C,0,47.023,16.305,30.545\C,0,47.379,16.943,31.913\C,0,48.72,1
 7.796,31.57\C,0,49.045,17.222,30.125\C,0,48.578,19.263,31.515\C,0,47.7
 08,15.907,33.052\C,0,47.967,16.576,34.469\C,0,48.954,16.061,35.478\O,0

 Normal termination of Gaussian 16 at Wed Apr 27 00:07:14 2022.
