 Gaussian 16, Revision A.03,
 Gaussian 16:  ES64L-G16RevA.03 25-Dec-2016

 ------------------------------
 #p blyp/Def2SVP td=(nstates=5)
 ------------------------------

 --------------------------------------------------
 step_1051_chromophore_1 TDDFT with blyp functional
 --------------------------------------------------
 Symbolic Z-matrix:
 Charge =  0 Multiplicity = 1

                         Standard orientation:
 ---------------------------------------------------------------------
 Center     Atomic      Atomic             Coordinates (Angstroms)
 Number     Number       Type             X           Y           Z
 ---------------------------------------------------------------------
      1         12           0        5.964936    0.451704    0.004455
      2          6           0        3.758670   -2.139203   -0.854562
      3          6           0        3.859742    2.629133   -1.357169
      4          6           0        8.371624    2.751381    0.336281
      5          6           0        8.329308   -1.968754    0.979306
      6          7           0        4.029956    0.261972   -1.058441
      7          6           0        3.254543   -0.875028   -1.275576
      8          6           0        1.883050   -0.482575   -1.818715
      9          6           0        2.096240    1.045860   -2.214323
     10          6           0        3.349100    1.351909   -1.425819
     11          6           0        2.372370    1.236922   -3.807461
     12          6           0        0.644447   -0.602803   -0.734855
     13          6           0       -0.623498   -1.434859   -1.152485
     14          6           0       -1.608068   -1.718687    0.026717
     15          8           0       -1.469225   -1.414047    1.176723
     16          8           0       -2.801269   -2.166518   -0.495592
     17          7           0        6.058544    2.446517   -0.296449
     18          6           0        5.060133    3.165820   -0.928497
     19          6           0        5.431580    4.575865   -0.931130
     20          6           0        6.657006    4.623594   -0.182669
     21          6           0        7.085495    3.195502   -0.056536
     22          6           0        4.627741    5.668559   -1.549073
     23          6           0        7.466098    5.824873    0.319029
     24          8           0        8.617294    5.740812    0.853707
     25          6           0        6.891886    7.205928    0.228970
     26          7           0        8.037019    0.421725    0.631723
     27          6           0        8.861933    1.490380    0.600441
     28          6           0       10.317676    1.133683    0.779300
     29          6           0       10.217165   -0.328756    1.225723
     30          6           0        8.714591   -0.638612    0.938084
     31          6           0       11.204278    1.494247   -0.473963
     32          6           0       10.799243   -0.451026    2.606865
     33          6           0        9.756314   -0.413834    3.732636
     34          7           0        6.088616   -1.605364    0.108410
     35          6           0        7.113252   -2.507775    0.565062
     36          6           0        6.664036   -3.863192    0.486690
     37          6           0        5.353199   -3.726116   -0.073565
     38          6           0        5.056133   -2.367189   -0.266841
     39          6           0        7.415669   -5.103709    0.820329
     40          6           0        4.207991   -4.473341   -0.440274
     41          8           0        3.980153   -5.708123   -0.380339
     42          6           0        3.091090   -3.500977   -1.135703
     43          6           0        1.834379   -3.705017   -0.361404
     44          8           0        1.566153   -3.428301    0.777243
     45          8           0        0.907536   -4.385723   -1.134901
     46          6           0       -0.162561   -5.126498   -0.409018
     47          6           0       -3.879749   -2.421235    0.387919
     48          6           0       -5.209686   -1.834537   -0.181879
     49          6           0       -6.444754   -2.405610   -0.250584
     50          6           0       -6.825135   -3.767514    0.210568
     51          6           0       -7.575010   -1.583591   -0.868812
     52          6           0       -8.532693   -0.862659    0.065063
     53          6           0       -8.204884    0.673848    0.276364
     54          6           0       -9.414228    1.597524    0.674050
     55          6           0       -9.084711    2.994209    0.068274
     56          6           0       -9.600058    1.546376    2.194421
     57          6           0      -10.977738    2.111150    2.495577
     58          6           0      -11.912873    0.963114    2.788166
     59          6           0      -13.309314    1.510282    2.718857
     60          6           0      -14.023860    1.086385    4.086095
     61          6           0      -14.074343    0.951436    1.449182
     62          6           0      -13.731737    1.702852    0.140170
     63          6           0      -13.080993    0.824059   -0.952055
     64          6           0      -13.656935    1.215338   -2.322174
     65          6           0      -14.941912    0.425203   -2.667925
     66          6           0      -12.613218    0.995145   -3.456181
     67          1           0        3.110069    3.416155   -1.462905
     68          1           0        9.133868    3.518653    0.485470
     69          1           0        9.150743   -2.582102    1.354004
     70          1           0        1.521131   -1.098375   -2.641354
     71          1           0        1.274091    1.655753   -1.839373
     72          1           0        3.152741    1.993683   -3.885859
     73          1           0        1.482722    1.658092   -4.275045
     74          1           0        2.848394    0.391885   -4.304459
     75          1           0        0.234826    0.371598   -0.468511
     76          1           0        1.068204   -0.988547    0.192573
     77          1           0       -0.362529   -2.381687   -1.624768
     78          1           0       -1.179505   -0.835897   -1.873158
     79          1           0        4.006821    5.133681   -2.268253
     80          1           0        5.216130    6.359777   -2.152734
     81          1           0        4.166196    6.363697   -0.847960
     82          1           0        6.851892    7.511202   -0.816161
     83          1           0        7.448810    8.013681    0.703861
     84          1           0        5.898167    7.141506    0.672840
     85          1           0       10.676936    1.783214    1.577685
     86          1           0       10.834171   -0.886365    0.521373
     87          1           0       11.671259    0.624314   -0.934418
     88          1           0       12.046970    2.055505   -0.070240
     89          1           0       10.669230    2.020403   -1.264336
     90          1           0       11.625975    0.200223    2.893524
     91          1           0       11.293531   -1.415016    2.492007
     92          1           0        8.773889   -0.217276    3.303337
     93          1           0       10.027554    0.329804    4.482422
     94          1           0        9.718368   -1.375657    4.243976
     95          1           0        7.891035   -5.479837   -0.085933
     96          1           0        6.680174   -5.758069    1.288601
     97          1           0        8.162352   -4.796718    1.552828
     98          1           0        2.999146   -3.744967   -2.193926
     99          1           0       -1.070526   -4.551595   -0.591603
    100          1           0        0.011445   -5.325668    0.648794
    101          1           0       -0.397131   -6.098360   -0.841380
    102          1           0       -3.745887   -2.114357    1.425311
    103          1           0       -3.958432   -3.506559    0.320763
    104          1           0       -5.203682   -0.878524   -0.705135
    105          1           0       -7.078725   -4.280024   -0.717832
    106          1           0       -7.708398   -3.748579    0.848430
    107          1           0       -5.878445   -4.199220    0.534746
    108          1           0       -8.144327   -2.380991   -1.346750
    109          1           0       -7.189661   -0.908432   -1.632032
    110          1           0       -8.513138   -1.455592    0.979431
    111          1           0       -9.557982   -1.005142   -0.276409
    112          1           0       -7.591952    0.994964   -0.566309
    113          1           0       -7.522570    0.773985    1.119608
    114          1           0      -10.277817    1.226114    0.122682
    115          1           0       -9.362292    2.930445   -0.984357
    116          1           0       -8.013702    3.081278   -0.114462
    117          1           0       -9.383022    3.755276    0.789621
    118          1           0       -8.768074    2.143459    2.569440
    119          1           0       -9.472580    0.505406    2.489069
    120          1           0      -11.350581    2.737990    1.685237
    121          1           0      -10.867554    2.714413    3.396904
    122          1           0      -11.697543    0.582097    3.786086
    123          1           0      -11.651786    0.266419    1.991212
    124          1           0      -13.289852    2.600527    2.720639
    125          1           0      -14.265285    0.030919    4.211855
    126          1           0      -14.952107    1.658874    4.085773
    127          1           0      -13.392046    1.464510    4.889749
    128          1           0      -15.124011    1.176987    1.639335
    129          1           0      -14.019076   -0.131837    1.344052
    130          1           0      -13.088235    2.547113    0.385328
    131          1           0      -14.618594    2.216481   -0.230757
    132          1           0      -13.115054   -0.253277   -0.788571
    133          1           0      -12.021043    1.058164   -0.857758
    134          1           0      -13.882940    2.273250   -2.187087
    135          1           0      -15.184969    0.420781   -3.730583
    136          1           0      -15.700802    1.068323   -2.220096
    137          1           0      -14.981270   -0.597931   -2.296124
    138          1           0      -12.892698    0.324109   -4.268111
    139          1           0      -11.703995    0.538690   -3.065997
    140          1           0      -12.498453    2.039137   -3.748072
 ---------------------------------------------------------------------

 SCF Done:  E(RB-LYP) =  -3007.35821953     A.U. after   21 cycles

 Excitation energies and oscillator strengths:

 Excited State   1:      Singlet-A      1.7622 eV  703.57 nm  f=0.0700  <S**2>=0.000
     244 -> 247        0.60296
     246 -> 247        0.34973
 This state for optimization and/or second-order correction.
 Total Energy, E(TD-HF/TD-DFT) =  -3007.29345893
 Copying the excited state density for this state as the 1-particle RhoCI density.

 Excited State   2:      Singlet-A      1.7762 eV  698.04 nm  f=0.0446  <S**2>=0.000
     243 -> 247        0.52289
     244 -> 247       -0.26339
     245 -> 247        0.25593
     246 -> 247        0.29304

 Excited State   3:      Singlet-A      1.8055 eV  686.71 nm  f=0.1910  <S**2>=0.000
     243 -> 247       -0.37505
     244 -> 247       -0.25218
     245 -> 247       -0.11013
     245 -> 248        0.13620
     246 -> 247        0.51965
     246 <- 247       -0.11578

 Excited State   4:      Singlet-A      2.0304 eV  610.65 nm  f=0.0989  <S**2>=0.000
     243 -> 247       -0.26472
     245 -> 247        0.59391
     246 -> 248       -0.21124
     246 -> 249        0.13050

 Excited State   5:      Singlet-A      2.1611 eV  573.70 nm  f=0.0001  <S**2>=0.000
     242 -> 247        0.70707

 The electronic state is 1-A.
 Alpha  occ. eigenvalues --  -46.27039 -18.81508 -18.80849 -18.76711 -18.76095
 Alpha  occ. eigenvalues --  -18.75384 -18.75163 -14.03549 -14.02889 -14.01346
 Alpha  occ. eigenvalues --  -14.01049 -10.03814 -10.03259 -10.00217  -9.99422
 Alpha  occ. eigenvalues --   -9.97761  -9.97072  -9.97039  -9.96298  -9.96060
 Alpha  occ. eigenvalues --   -9.95970  -9.95936  -9.95761  -9.95644  -9.94964
 Alpha  occ. eigenvalues --   -9.94875  -9.94863  -9.94534  -9.94300  -9.94263
 Alpha  occ. eigenvalues --   -9.93807  -9.93537  -9.93384  -9.93383  -9.93175
 Alpha  occ. eigenvalues --   -9.93126  -9.92894  -9.92689  -9.92533  -9.92494
 Alpha  occ. eigenvalues --   -9.92445  -9.92440  -9.92344  -9.92236  -9.92186
 Alpha  occ. eigenvalues --   -9.92175  -9.91911  -9.91675  -9.91674  -9.91573
 Alpha  occ. eigenvalues --   -9.91520  -9.91472  -9.91449  -9.91397  -9.91229
 Alpha  occ. eigenvalues --   -9.91047  -9.91035  -9.90986  -9.90949  -9.90906
 Alpha  occ. eigenvalues --   -9.90798  -9.90783  -9.90703  -9.90548  -9.90466
 Alpha  occ. eigenvalues --   -9.90200  -2.91778  -1.72208  -1.71654  -1.71496
 Alpha  occ. eigenvalues --   -0.98332  -0.96997  -0.90714  -0.89122  -0.89007
 Alpha  occ. eigenvalues --   -0.88815  -0.88170  -0.87170  -0.86313  -0.85087
 Alpha  occ. eigenvalues --   -0.74776  -0.73936  -0.73191  -0.72985  -0.72470
 Alpha  occ. eigenvalues --   -0.72138  -0.71371  -0.71172  -0.70827  -0.70753
 Alpha  occ. eigenvalues --   -0.70230  -0.68716  -0.67639  -0.67488  -0.67023
 Alpha  occ. eigenvalues --   -0.66241  -0.66000  -0.65329  -0.64878  -0.64452
 Alpha  occ. eigenvalues --   -0.64129  -0.62812  -0.62181  -0.61554  -0.60906
 Alpha  occ. eigenvalues --   -0.60395  -0.60146  -0.59943  -0.59297  -0.59134
 Alpha  occ. eigenvalues --   -0.58373  -0.58041  -0.57098  -0.55489  -0.55089
 Alpha  occ. eigenvalues --   -0.53944  -0.53295  -0.52886  -0.51998  -0.51682
 Alpha  occ. eigenvalues --   -0.51350  -0.51025  -0.50859  -0.50106  -0.49897
 Alpha  occ. eigenvalues --   -0.49593  -0.48865  -0.48614  -0.47927  -0.46966
 Alpha  occ. eigenvalues --   -0.46165  -0.45560  -0.45332  -0.44811  -0.44227
 Alpha  occ. eigenvalues --   -0.43995  -0.43524  -0.43091  -0.42818  -0.42731
 Alpha  occ. eigenvalues --   -0.42146  -0.41948  -0.41743  -0.41403  -0.41281
 Alpha  occ. eigenvalues --   -0.40951  -0.40392  -0.40299  -0.40135  -0.39985
 Alpha  occ. eigenvalues --   -0.39636  -0.39559  -0.39259  -0.39108  -0.39011
 Alpha  occ. eigenvalues --   -0.38838  -0.38656  -0.38298  -0.38204  -0.38139
 Alpha  occ. eigenvalues --   -0.38046  -0.37786  -0.37420  -0.37332  -0.37221
 Alpha  occ. eigenvalues --   -0.37067  -0.36744  -0.36561  -0.36285  -0.36109
 Alpha  occ. eigenvalues --   -0.36064  -0.35926  -0.35788  -0.35610  -0.35459
 Alpha  occ. eigenvalues --   -0.35311  -0.35146  -0.35023  -0.34738  -0.34680
 Alpha  occ. eigenvalues --   -0.34622  -0.34527  -0.34460  -0.34315  -0.33993
 Alpha  occ. eigenvalues --   -0.33848  -0.33665  -0.33387  -0.33136  -0.32979
 Alpha  occ. eigenvalues --   -0.32726  -0.32623  -0.32589  -0.32314  -0.32261
 Alpha  occ. eigenvalues --   -0.32173  -0.31811  -0.31777  -0.31580  -0.31503
 Alpha  occ. eigenvalues --   -0.31397  -0.31241  -0.31065  -0.30988  -0.30648
 Alpha  occ. eigenvalues --   -0.30411  -0.30296  -0.30009  -0.29922  -0.29794
 Alpha  occ. eigenvalues --   -0.29557  -0.29437  -0.29326  -0.29146  -0.29046
 Alpha  occ. eigenvalues --   -0.28734  -0.28640  -0.28536  -0.28166  -0.27824
 Alpha  occ. eigenvalues --   -0.27473  -0.27065  -0.26828  -0.26664  -0.26561
 Alpha  occ. eigenvalues --   -0.26359  -0.25635  -0.25312  -0.25076  -0.24580
 Alpha  occ. eigenvalues --   -0.24318  -0.24229  -0.24067  -0.23808  -0.23663
 Alpha  occ. eigenvalues --   -0.23332  -0.22132  -0.22077  -0.21464  -0.20933
 Alpha  occ. eigenvalues --   -0.20508  -0.19749  -0.18317  -0.18204  -0.17514
 Alpha  occ. eigenvalues --   -0.16024
 Alpha virt. eigenvalues --   -0.11807  -0.07021  -0.06597  -0.04839  -0.02544
 Alpha virt. eigenvalues --   -0.02225  -0.01948  -0.01479  -0.00964  -0.00079
 Alpha virt. eigenvalues --    0.00904   0.01197   0.02145   0.02214   0.02867

 Mulliken charges:
               1
     1  Mg   0.710302
     2  C   -0.034522
     3  C   -0.102780
     4  C   -0.050582
     5  C   -0.090967
     6  N   -0.213939
     7  C   -0.032217
     8  C    0.036316
     9  C    0.005718
    10  C    0.011200
    11  C    0.135328
    12  C    0.073679
    13  C    0.068888
    14  C    0.086962
    15  O   -0.151691
    16  O   -0.276084
    17  N   -0.270965
    18  C    0.158003
    19  C   -0.129000
    20  C    0.004044
    21  C    0.104871
    22  C    0.170489
    23  C   -0.041743
    24  O   -0.206784
    25  C    0.131334
    26  N   -0.146544
    27  C   -0.038534
    28  C    0.038923
    29  C    0.031976
    30  C   -0.020277
    31  C    0.129149
    32  C    0.078721
    33  C    0.073181
    34  N   -0.297394
    35  C    0.176938
    36  C   -0.180714
    37  C    0.124394
    38  C    0.114764
    39  C    0.194076
    40  C   -0.088335
    41  O   -0.179962
    42  C    0.081133
    43  C    0.106414
    44  O   -0.153133
    45  O   -0.295534
    46  C    0.207178
    47  C    0.317007
    48  C   -0.069568
    49  C   -0.228794
    50  C    0.190023
    51  C    0.136669
    52  C    0.099378
    53  C    0.085888
    54  C   -0.137845
    55  C    0.139071
    56  C    0.132182
    57  C    0.053049
    58  C    0.144426
    59  C   -0.080667
    60  C    0.080278
    61  C    0.124757
    62  C    0.062510
    63  C    0.103040
    64  C   -0.125966
    65  C    0.116455
    66  C    0.112130
    67  H   -0.041138
    68  H   -0.050733
    69  H   -0.070453
    70  H   -0.027650
    71  H   -0.023505
    72  H   -0.021396
    73  H    0.003613
    74  H    0.000536
    75  H   -0.022729
    76  H    0.018105
    77  H    0.011327
    78  H    0.000022
    79  H   -0.004286
    80  H   -0.012327
    81  H    0.007486
    82  H    0.005032
    83  H   -0.007177
    84  H    0.006301
    85  H   -0.019803
    86  H   -0.038820
    87  H   -0.018612
    88  H   -0.005588
    89  H    0.006130
    90  H   -0.019797
    91  H   -0.032910
    92  H    0.011487
    93  H   -0.008353
    94  H   -0.009033
    95  H    0.020429
    96  H    0.020546
    97  H   -0.013533
    98  H    0.004186
    99  H    0.005128
   100  H    0.034696
   101  H    0.006420
   102  H    0.020409
   103  H   -0.016971
   104  H   -0.050198
   105  H   -0.006973
   106  H    0.010059
   107  H   -0.023761
   108  H   -0.056794
   109  H   -0.031031
   110  H   -0.040110
   111  H   -0.033136
   112  H   -0.042470
   113  H   -0.036666
   114  H   -0.025359
   115  H   -0.021194
   116  H   -0.031788
   117  H   -0.008313
   118  H   -0.043791
   119  H   -0.027026
   120  H   -0.016649
   121  H   -0.042085
   122  H   -0.033856
   123  H   -0.037345
   124  H   -0.033405
   125  H   -0.005568
   126  H   -0.025355
   127  H   -0.014153
   128  H   -0.051574
   129  H   -0.030829
   130  H   -0.042903
   131  H   -0.032217
   132  H   -0.029064
   133  H   -0.032875
   134  H   -0.029259
   135  H   -0.016800
   136  H   -0.025229
   137  H   -0.007227
   138  H   -0.018624
   139  H   -0.022030
   140  H   -0.007736
 Sum of Mulliken charges =  -0.00000

 Dipole moment (field-independent basis, Debye):
    X=             -1.2070    Y=              2.6966    Z=             -3.0039  Tot=              4.2133
 Quadrupole moment (field-independent basis, Debye-Ang):
   XX=           -370.8969   YY=           -415.2812   ZZ=           -405.4918
   XY=             -3.1150   XZ=             -1.9075   YZ=             -8.2587

 Normal termination of Gaussian 16 at Tue May  3 21:55:01 2022.
