 Gaussian 16, Revision A.03,
 Gaussian 16:  ES64L-G16RevA.03 25-Dec-2016

 -----------------------------------
 #p cam-b3lyp/Def2SVP td=(nstates=5)
 -----------------------------------

 -------------------------------------------------------
 step_1051_chromophore_1 TDDFT with cam-b3lyp functional
 -------------------------------------------------------
 Symbolic Z-matrix:
 Charge =  0 Multiplicity = 1

                         Standard orientation:
 ---------------------------------------------------------------------
 Center     Atomic      Atomic             Coordinates (Angstroms)
 Number     Number       Type             X           Y           Z
 ---------------------------------------------------------------------
      1         12           0        5.964936    0.451704    0.004455
      2          6           0        3.758670   -2.139203   -0.854562
      3          6           0        3.859742    2.629133   -1.357169
      4          6           0        8.371624    2.751381    0.336281
      5          6           0        8.329308   -1.968754    0.979306
      6          7           0        4.029956    0.261972   -1.058441
      7          6           0        3.254543   -0.875028   -1.275576
      8          6           0        1.883050   -0.482575   -1.818715
      9          6           0        2.096240    1.045860   -2.214323
     10          6           0        3.349100    1.351909   -1.425819
     11          6           0        2.372370    1.236922   -3.807461
     12          6           0        0.644447   -0.602803   -0.734855
     13          6           0       -0.623498   -1.434859   -1.152485
     14          6           0       -1.608068   -1.718687    0.026717
     15          8           0       -1.469225   -1.414047    1.176723
     16          8           0       -2.801269   -2.166518   -0.495592
     17          7           0        6.058544    2.446517   -0.296449
     18          6           0        5.060133    3.165820   -0.928497
     19          6           0        5.431580    4.575865   -0.931130
     20          6           0        6.657006    4.623594   -0.182669
     21          6           0        7.085495    3.195502   -0.056536
     22          6           0        4.627741    5.668559   -1.549073
     23          6           0        7.466098    5.824873    0.319029
     24          8           0        8.617294    5.740812    0.853707
     25          6           0        6.891886    7.205928    0.228970
     26          7           0        8.037019    0.421725    0.631723
     27          6           0        8.861933    1.490380    0.600441
     28          6           0       10.317676    1.133683    0.779300
     29          6           0       10.217165   -0.328756    1.225723
     30          6           0        8.714591   -0.638612    0.938084
     31          6           0       11.204278    1.494247   -0.473963
     32          6           0       10.799243   -0.451026    2.606865
     33          6           0        9.756314   -0.413834    3.732636
     34          7           0        6.088616   -1.605364    0.108410
     35          6           0        7.113252   -2.507775    0.565062
     36          6           0        6.664036   -3.863192    0.486690
     37          6           0        5.353199   -3.726116   -0.073565
     38          6           0        5.056133   -2.367189   -0.266841
     39          6           0        7.415669   -5.103709    0.820329
     40          6           0        4.207991   -4.473341   -0.440274
     41          8           0        3.980153   -5.708123   -0.380339
     42          6           0        3.091090   -3.500977   -1.135703
     43          6           0        1.834379   -3.705017   -0.361404
     44          8           0        1.566153   -3.428301    0.777243
     45          8           0        0.907536   -4.385723   -1.134901
     46          6           0       -0.162561   -5.126498   -0.409018
     47          6           0       -3.879749   -2.421235    0.387919
     48          6           0       -5.209686   -1.834537   -0.181879
     49          6           0       -6.444754   -2.405610   -0.250584
     50          6           0       -6.825135   -3.767514    0.210568
     51          6           0       -7.575010   -1.583591   -0.868812
     52          6           0       -8.532693   -0.862659    0.065063
     53          6           0       -8.204884    0.673848    0.276364
     54          6           0       -9.414228    1.597524    0.674050
     55          6           0       -9.084711    2.994209    0.068274
     56          6           0       -9.600058    1.546376    2.194421
     57          6           0      -10.977738    2.111150    2.495577
     58          6           0      -11.912873    0.963114    2.788166
     59          6           0      -13.309314    1.510282    2.718857
     60          6           0      -14.023860    1.086385    4.086095
     61          6           0      -14.074343    0.951436    1.449182
     62          6           0      -13.731737    1.702852    0.140170
     63          6           0      -13.080993    0.824059   -0.952055
     64          6           0      -13.656935    1.215338   -2.322174
     65          6           0      -14.941912    0.425203   -2.667925
     66          6           0      -12.613218    0.995145   -3.456181
     67          1           0        3.110069    3.416155   -1.462905
     68          1           0        9.133868    3.518653    0.485470
     69          1           0        9.150743   -2.582102    1.354004
     70          1           0        1.521131   -1.098375   -2.641354
     71          1           0        1.274091    1.655753   -1.839373
     72          1           0        3.152741    1.993683   -3.885859
     73          1           0        1.482722    1.658092   -4.275045
     74          1           0        2.848394    0.391885   -4.304459
     75          1           0        0.234826    0.371598   -0.468511
     76          1           0        1.068204   -0.988547    0.192573
     77          1           0       -0.362529   -2.381687   -1.624768
     78          1           0       -1.179505   -0.835897   -1.873158
     79          1           0        4.006821    5.133681   -2.268253
     80          1           0        5.216130    6.359777   -2.152734
     81          1           0        4.166196    6.363697   -0.847960
     82          1           0        6.851892    7.511202   -0.816161
     83          1           0        7.448810    8.013681    0.703861
     84          1           0        5.898167    7.141506    0.672840
     85          1           0       10.676936    1.783214    1.577685
     86          1           0       10.834171   -0.886365    0.521373
     87          1           0       11.671259    0.624314   -0.934418
     88          1           0       12.046970    2.055505   -0.070240
     89          1           0       10.669230    2.020403   -1.264336
     90          1           0       11.625975    0.200223    2.893524
     91          1           0       11.293531   -1.415016    2.492007
     92          1           0        8.773889   -0.217276    3.303337
     93          1           0       10.027554    0.329804    4.482422
     94          1           0        9.718368   -1.375657    4.243976
     95          1           0        7.891035   -5.479837   -0.085933
     96          1           0        6.680174   -5.758069    1.288601
     97          1           0        8.162352   -4.796718    1.552828
     98          1           0        2.999146   -3.744967   -2.193926
     99          1           0       -1.070526   -4.551595   -0.591603
    100          1           0        0.011445   -5.325668    0.648794
    101          1           0       -0.397131   -6.098360   -0.841380
    102          1           0       -3.745887   -2.114357    1.425311
    103          1           0       -3.958432   -3.506559    0.320763
    104          1           0       -5.203682   -0.878524   -0.705135
    105          1           0       -7.078725   -4.280024   -0.717832
    106          1           0       -7.708398   -3.748579    0.848430
    107          1           0       -5.878445   -4.199220    0.534746
    108          1           0       -8.144327   -2.380991   -1.346750
    109          1           0       -7.189661   -0.908432   -1.632032
    110          1           0       -8.513138   -1.455592    0.979431
    111          1           0       -9.557982   -1.005142   -0.276409
    112          1           0       -7.591952    0.994964   -0.566309
    113          1           0       -7.522570    0.773985    1.119608
    114          1           0      -10.277817    1.226114    0.122682
    115          1           0       -9.362292    2.930445   -0.984357
    116          1           0       -8.013702    3.081278   -0.114462
    117          1           0       -9.383022    3.755276    0.789621
    118          1           0       -8.768074    2.143459    2.569440
    119          1           0       -9.472580    0.505406    2.489069
    120          1           0      -11.350581    2.737990    1.685237
    121          1           0      -10.867554    2.714413    3.396904
    122          1           0      -11.697543    0.582097    3.786086
    123          1           0      -11.651786    0.266419    1.991212
    124          1           0      -13.289852    2.600527    2.720639
    125          1           0      -14.265285    0.030919    4.211855
    126          1           0      -14.952107    1.658874    4.085773
    127          1           0      -13.392046    1.464510    4.889749
    128          1           0      -15.124011    1.176987    1.639335
    129          1           0      -14.019076   -0.131837    1.344052
    130          1           0      -13.088235    2.547113    0.385328
    131          1           0      -14.618594    2.216481   -0.230757
    132          1           0      -13.115054   -0.253277   -0.788571
    133          1           0      -12.021043    1.058164   -0.857758
    134          1           0      -13.882940    2.273250   -2.187087
    135          1           0      -15.184969    0.420781   -3.730583
    136          1           0      -15.700802    1.068323   -2.220096
    137          1           0      -14.981270   -0.597931   -2.296124
    138          1           0      -12.892698    0.324109   -4.268111
    139          1           0      -11.703995    0.538690   -3.065997
    140          1           0      -12.498453    2.039137   -3.748072
 ---------------------------------------------------------------------

 SCF Done:  E(RCAM-B3LYP) =  -3007.15529541     A.U. after   17 cycles

 Excitation energies and oscillator strengths:

 Excited State   1:      Singlet-A      1.7001 eV  729.29 nm  f=0.3761  <S**2>=0.000
     245 -> 248        0.17744
     246 -> 247        0.68623
     245 <- 248        0.10758
 This state for optimization and/or second-order correction.
 Total Energy, E(TD-HF/TD-DFT) =  -3007.09281913
 Copying the excited state density for this state as the 1-particle RhoCI density.

 Excited State   2:      Singlet-A      2.2469 eV  551.80 nm  f=0.1247  <S**2>=0.000
     245 -> 247        0.63704
     246 -> 248       -0.29415

 Excited State   3:      Singlet-A      3.3273 eV  372.63 nm  f=0.0013  <S**2>=0.000
     242 -> 247        0.55442
     242 -> 249       -0.26098
     242 -> 250       -0.25760
     243 -> 247        0.18654

 Excited State   4:      Singlet-A      3.3447 eV  370.69 nm  f=0.0118  <S**2>=0.000
     239 -> 247       -0.17414
     239 -> 249       -0.15543
     240 -> 247       -0.31001
     240 -> 249       -0.24896
     240 -> 250        0.13089
     241 -> 247        0.41013
     241 -> 249        0.17022
     243 -> 247       -0.13387

 Excited State   5:      Singlet-A      3.4171 eV  362.84 nm  f=0.0011  <S**2>=0.000
     240 -> 247       -0.20948
     242 -> 247       -0.16122
     243 -> 247        0.62020

 The electronic state is 1-A.
 Alpha  occ. eigenvalues --  -46.88527 -19.24309 -19.23769 -19.19696 -19.19285
 Alpha  occ. eigenvalues --  -19.18830 -19.18035 -14.42535 -14.41596 -14.39908
 Alpha  occ. eigenvalues --  -14.39314 -10.39099 -10.38742 -10.35766 -10.34667
 Alpha  occ. eigenvalues --  -10.31762 -10.31526 -10.31068 -10.30912 -10.30681
 Alpha  occ. eigenvalues --  -10.30611 -10.30250 -10.30047 -10.29596 -10.29529
 Alpha  occ. eigenvalues --  -10.29113 -10.29011 -10.29002 -10.28658 -10.28625
 Alpha  occ. eigenvalues --  -10.28125 -10.27964 -10.27681 -10.27435 -10.27000
 Alpha  occ. eigenvalues --  -10.26969 -10.26727 -10.26674 -10.26666 -10.26592
 Alpha  occ. eigenvalues --  -10.26443 -10.26312 -10.26020 -10.25989 -10.25874
 Alpha  occ. eigenvalues --  -10.25752 -10.25624 -10.25518 -10.25495 -10.25434
 Alpha  occ. eigenvalues --  -10.25430 -10.25281 -10.25176 -10.25001 -10.24874
 Alpha  occ. eigenvalues --  -10.24784 -10.24729 -10.24675 -10.24575 -10.24564
 Alpha  occ. eigenvalues --  -10.24429 -10.24363 -10.24342 -10.24163 -10.24036
 Alpha  occ. eigenvalues --  -10.23792  -3.17177  -1.92081  -1.91619  -1.91499
 Alpha  occ. eigenvalues --   -1.16805  -1.15619  -1.08599  -1.07515  -1.07186
 Alpha  occ. eigenvalues --   -1.06736  -1.05921  -1.04983  -1.04055  -1.02429
 Alpha  occ. eigenvalues --   -0.91791  -0.90840  -0.90056  -0.89684  -0.89303
 Alpha  occ. eigenvalues --   -0.88855  -0.87960  -0.87824  -0.87516  -0.87421
 Alpha  occ. eigenvalues --   -0.86674  -0.85045  -0.83903  -0.83601  -0.83207
 Alpha  occ. eigenvalues --   -0.82318  -0.82280  -0.81316  -0.80678  -0.80301
 Alpha  occ. eigenvalues --   -0.79903  -0.78783  -0.77744  -0.76954  -0.76298
 Alpha  occ. eigenvalues --   -0.75688  -0.75481  -0.75279  -0.74547  -0.74402
 Alpha  occ. eigenvalues --   -0.73431  -0.73059  -0.72034  -0.70167  -0.69817
 Alpha  occ. eigenvalues --   -0.68555  -0.67821  -0.67430  -0.66348  -0.65795
 Alpha  occ. eigenvalues --   -0.65477  -0.65258  -0.64960  -0.64024  -0.63939
 Alpha  occ. eigenvalues --   -0.63606  -0.62600  -0.62509  -0.61547  -0.60742
 Alpha  occ. eigenvalues --   -0.59799  -0.59048  -0.58811  -0.58109  -0.57764
 Alpha  occ. eigenvalues --   -0.57372  -0.56966  -0.56146  -0.56060  -0.55770
 Alpha  occ. eigenvalues --   -0.55222  -0.55075  -0.54752  -0.54331  -0.54132
 Alpha  occ. eigenvalues --   -0.53942  -0.53242  -0.53125  -0.52983  -0.52816
 Alpha  occ. eigenvalues --   -0.52656  -0.52470  -0.52114  -0.51867  -0.51540
 Alpha  occ. eigenvalues --   -0.51159  -0.51093  -0.50720  -0.50611  -0.50500
 Alpha  occ. eigenvalues --   -0.50462  -0.50299  -0.50068  -0.49675  -0.49567
 Alpha  occ. eigenvalues --   -0.49409  -0.49170  -0.48881  -0.48635  -0.48386
 Alpha  occ. eigenvalues --   -0.48112  -0.48063  -0.47877  -0.47660  -0.47619
 Alpha  occ. eigenvalues --   -0.47349  -0.47120  -0.47014  -0.46925  -0.46685
 Alpha  occ. eigenvalues --   -0.46517  -0.46410  -0.46207  -0.46137  -0.45907
 Alpha  occ. eigenvalues --   -0.45755  -0.45371  -0.45278  -0.44713  -0.44652
 Alpha  occ. eigenvalues --   -0.44441  -0.44274  -0.44252  -0.43966  -0.43888
 Alpha  occ. eigenvalues --   -0.43776  -0.43327  -0.43290  -0.43214  -0.43004
 Alpha  occ. eigenvalues --   -0.42856  -0.42726  -0.42609  -0.42365  -0.42270
 Alpha  occ. eigenvalues --   -0.41929  -0.41756  -0.41429  -0.41387  -0.41133
 Alpha  occ. eigenvalues --   -0.41047  -0.40931  -0.40661  -0.40433  -0.40367
 Alpha  occ. eigenvalues --   -0.39734  -0.39725  -0.39505  -0.39155  -0.38866
 Alpha  occ. eigenvalues --   -0.38329  -0.38290  -0.37817  -0.37752  -0.37535
 Alpha  occ. eigenvalues --   -0.36971  -0.36282  -0.36060  -0.35827  -0.35525
 Alpha  occ. eigenvalues --   -0.35329  -0.34819  -0.34792  -0.34525  -0.34137
 Alpha  occ. eigenvalues --   -0.33969  -0.33743  -0.33366  -0.31440  -0.30883
 Alpha  occ. eigenvalues --   -0.30333  -0.29994  -0.29565  -0.29383  -0.24304
 Alpha  occ. eigenvalues --   -0.21284
 Alpha virt. eigenvalues --   -0.08920  -0.01803  -0.00322   0.02082   0.03061
 Alpha virt. eigenvalues --    0.04916   0.05203   0.05734   0.06455   0.06756
 Alpha virt. eigenvalues --    0.07710   0.08328   0.08337   0.08791   0.08982

 Mulliken charges:
               1
     1  Mg   0.845084
     2  C   -0.057734
     3  C   -0.118790
     4  C   -0.070767
     5  C   -0.089741
     6  N   -0.281777
     7  C    0.009395
     8  C   -0.012382
     9  C   -0.048839
    10  C    0.032385
    11  C    0.078170
    12  C    0.024383
    13  C    0.002226
    14  C    0.165715
    15  O   -0.191308
    16  O   -0.338973
    17  N   -0.363284
    18  C    0.166373
    19  C   -0.136121
    20  C   -0.056627
    21  C    0.130877
    22  C    0.112208
    23  C    0.035656
    24  O   -0.246114
    25  C    0.050648
    26  N   -0.220844
    27  C   -0.014368
    28  C   -0.015441
    29  C   -0.021383
    30  C   -0.013130
    31  C    0.070378
    32  C    0.021107
    33  C    0.012044
    34  N   -0.386292
    35  C    0.171028
    36  C   -0.172309
    37  C    0.036217
    38  C    0.148200
    39  C    0.146033
    40  C    0.010276
    41  O   -0.221973
    42  C    0.003253
    43  C    0.194801
    44  O   -0.187510
    45  O   -0.359655
    46  C    0.174585
    47  C    0.283844
    48  C   -0.094258
    49  C   -0.243545
    50  C    0.125832
    51  C    0.072364
    52  C    0.050843
    53  C    0.034766
    54  C   -0.182875
    55  C    0.076603
    56  C    0.074319
    57  C   -0.000443
    58  C    0.092609
    59  C   -0.140490
    60  C    0.026236
    61  C    0.069176
    62  C    0.010431
    63  C    0.050565
    64  C   -0.180886
    65  C    0.057455
    66  C    0.051081
    67  H   -0.007418
    68  H   -0.008514
    69  H   -0.035233
    70  H    0.008037
    71  H    0.011548
    72  H    0.004218
    73  H    0.028180
    74  H    0.026272
    75  H    0.006382
    76  H    0.049777
    77  H    0.040535
    78  H    0.031856
    79  H    0.023430
    80  H    0.017005
    81  H    0.035835
    82  H    0.032070
    83  H    0.029641
    84  H    0.032163
    85  H    0.015013
    86  H   -0.001693
    87  H    0.006352
    88  H    0.018112
    89  H    0.031529
    90  H    0.009933
    91  H   -0.004257
    92  H    0.033391
    93  H    0.015429
    94  H    0.015069
    95  H    0.045308
    96  H    0.046128
    97  H    0.009323
    98  H    0.047875
    99  H    0.021106
   100  H    0.059438
   101  H    0.030201
   102  H    0.052706
   103  H    0.009004
   104  H   -0.017184
   105  H    0.018384
   106  H    0.033217
   107  H    0.000278
   108  H   -0.024371
   109  H   -0.000368
   110  H   -0.014808
   111  H   -0.006343
   112  H   -0.014691
   113  H   -0.007607
   114  H   -0.004926
   115  H    0.004723
   116  H   -0.006106
   117  H    0.015805
   118  H   -0.012660
   119  H    0.002063
   120  H    0.005759
   121  H   -0.011912
   122  H   -0.002728
   123  H   -0.012045
   124  H   -0.000547
   125  H    0.017693
   126  H   -0.000862
   127  H    0.008780
   128  H   -0.020237
   129  H   -0.002311
   130  H   -0.014738
   131  H   -0.003957
   132  H   -0.002600
   133  H   -0.007041
   134  H    0.001848
   135  H    0.008008
   136  H   -0.001928
   137  H    0.015793
   138  H    0.006387
   139  H    0.001016
   140  H    0.015163
 Sum of Mulliken charges =  -0.00000

 Dipole moment (field-independent basis, Debye):
    X=             -1.2988    Y=              3.7255    Z=             -3.2890  Tot=              5.1365
 Quadrupole moment (field-independent basis, Debye-Ang):
   XX=           -371.0237   YY=           -409.9772   ZZ=           -405.4861
   XY=              2.8838   XZ=             -2.6463   YZ=             -9.1387

 Normal termination of Gaussian 16 at Tue May  3 20:57:06 2022.
