 Gaussian 16, Revision A.03,
 Gaussian 16:  ES64L-G16RevA.03 25-Dec-2016

 ---------------------------------
 #p PBE1PBE/Def2SVP td=(nstates=5)
 ---------------------------------

 -----------------------------------------------------
 step_1051_chromophore_1 TDDFT with PBE1PBE functional
 -----------------------------------------------------
 Symbolic Z-matrix:
 Charge =  0 Multiplicity = 1

                         Standard orientation:
 ---------------------------------------------------------------------
 Center     Atomic      Atomic             Coordinates (Angstroms)
 Number     Number       Type             X           Y           Z
 ---------------------------------------------------------------------
      1         12           0        5.964936    0.451704    0.004455
      2          6           0        3.758670   -2.139203   -0.854562
      3          6           0        3.859742    2.629133   -1.357169
      4          6           0        8.371624    2.751381    0.336281
      5          6           0        8.329308   -1.968754    0.979306
      6          7           0        4.029956    0.261972   -1.058441
      7          6           0        3.254543   -0.875028   -1.275576
      8          6           0        1.883050   -0.482575   -1.818715
      9          6           0        2.096240    1.045860   -2.214323
     10          6           0        3.349100    1.351909   -1.425819
     11          6           0        2.372370    1.236922   -3.807461
     12          6           0        0.644447   -0.602803   -0.734855
     13          6           0       -0.623498   -1.434859   -1.152485
     14          6           0       -1.608068   -1.718687    0.026717
     15          8           0       -1.469225   -1.414047    1.176723
     16          8           0       -2.801269   -2.166518   -0.495592
     17          7           0        6.058544    2.446517   -0.296449
     18          6           0        5.060133    3.165820   -0.928497
     19          6           0        5.431580    4.575865   -0.931130
     20          6           0        6.657006    4.623594   -0.182669
     21          6           0        7.085495    3.195502   -0.056536
     22          6           0        4.627741    5.668559   -1.549073
     23          6           0        7.466098    5.824873    0.319029
     24          8           0        8.617294    5.740812    0.853707
     25          6           0        6.891886    7.205928    0.228970
     26          7           0        8.037019    0.421725    0.631723
     27          6           0        8.861933    1.490380    0.600441
     28          6           0       10.317676    1.133683    0.779300
     29          6           0       10.217165   -0.328756    1.225723
     30          6           0        8.714591   -0.638612    0.938084
     31          6           0       11.204278    1.494247   -0.473963
     32          6           0       10.799243   -0.451026    2.606865
     33          6           0        9.756314   -0.413834    3.732636
     34          7           0        6.088616   -1.605364    0.108410
     35          6           0        7.113252   -2.507775    0.565062
     36          6           0        6.664036   -3.863192    0.486690
     37          6           0        5.353199   -3.726116   -0.073565
     38          6           0        5.056133   -2.367189   -0.266841
     39          6           0        7.415669   -5.103709    0.820329
     40          6           0        4.207991   -4.473341   -0.440274
     41          8           0        3.980153   -5.708123   -0.380339
     42          6           0        3.091090   -3.500977   -1.135703
     43          6           0        1.834379   -3.705017   -0.361404
     44          8           0        1.566153   -3.428301    0.777243
     45          8           0        0.907536   -4.385723   -1.134901
     46          6           0       -0.162561   -5.126498   -0.409018
     47          6           0       -3.879749   -2.421235    0.387919
     48          6           0       -5.209686   -1.834537   -0.181879
     49          6           0       -6.444754   -2.405610   -0.250584
     50          6           0       -6.825135   -3.767514    0.210568
     51          6           0       -7.575010   -1.583591   -0.868812
     52          6           0       -8.532693   -0.862659    0.065063
     53          6           0       -8.204884    0.673848    0.276364
     54          6           0       -9.414228    1.597524    0.674050
     55          6           0       -9.084711    2.994209    0.068274
     56          6           0       -9.600058    1.546376    2.194421
     57          6           0      -10.977738    2.111150    2.495577
     58          6           0      -11.912873    0.963114    2.788166
     59          6           0      -13.309314    1.510282    2.718857
     60          6           0      -14.023860    1.086385    4.086095
     61          6           0      -14.074343    0.951436    1.449182
     62          6           0      -13.731737    1.702852    0.140170
     63          6           0      -13.080993    0.824059   -0.952055
     64          6           0      -13.656935    1.215338   -2.322174
     65          6           0      -14.941912    0.425203   -2.667925
     66          6           0      -12.613218    0.995145   -3.456181
     67          1           0        3.110069    3.416155   -1.462905
     68          1           0        9.133868    3.518653    0.485470
     69          1           0        9.150743   -2.582102    1.354004
     70          1           0        1.521131   -1.098375   -2.641354
     71          1           0        1.274091    1.655753   -1.839373
     72          1           0        3.152741    1.993683   -3.885859
     73          1           0        1.482722    1.658092   -4.275045
     74          1           0        2.848394    0.391885   -4.304459
     75          1           0        0.234826    0.371598   -0.468511
     76          1           0        1.068204   -0.988547    0.192573
     77          1           0       -0.362529   -2.381687   -1.624768
     78          1           0       -1.179505   -0.835897   -1.873158
     79          1           0        4.006821    5.133681   -2.268253
     80          1           0        5.216130    6.359777   -2.152734
     81          1           0        4.166196    6.363697   -0.847960
     82          1           0        6.851892    7.511202   -0.816161
     83          1           0        7.448810    8.013681    0.703861
     84          1           0        5.898167    7.141506    0.672840
     85          1           0       10.676936    1.783214    1.577685
     86          1           0       10.834171   -0.886365    0.521373
     87          1           0       11.671259    0.624314   -0.934418
     88          1           0       12.046970    2.055505   -0.070240
     89          1           0       10.669230    2.020403   -1.264336
     90          1           0       11.625975    0.200223    2.893524
     91          1           0       11.293531   -1.415016    2.492007
     92          1           0        8.773889   -0.217276    3.303337
     93          1           0       10.027554    0.329804    4.482422
     94          1           0        9.718368   -1.375657    4.243976
     95          1           0        7.891035   -5.479837   -0.085933
     96          1           0        6.680174   -5.758069    1.288601
     97          1           0        8.162352   -4.796718    1.552828
     98          1           0        2.999146   -3.744967   -2.193926
     99          1           0       -1.070526   -4.551595   -0.591603
    100          1           0        0.011445   -5.325668    0.648794
    101          1           0       -0.397131   -6.098360   -0.841380
    102          1           0       -3.745887   -2.114357    1.425311
    103          1           0       -3.958432   -3.506559    0.320763
    104          1           0       -5.203682   -0.878524   -0.705135
    105          1           0       -7.078725   -4.280024   -0.717832
    106          1           0       -7.708398   -3.748579    0.848430
    107          1           0       -5.878445   -4.199220    0.534746
    108          1           0       -8.144327   -2.380991   -1.346750
    109          1           0       -7.189661   -0.908432   -1.632032
    110          1           0       -8.513138   -1.455592    0.979431
    111          1           0       -9.557982   -1.005142   -0.276409
    112          1           0       -7.591952    0.994964   -0.566309
    113          1           0       -7.522570    0.773985    1.119608
    114          1           0      -10.277817    1.226114    0.122682
    115          1           0       -9.362292    2.930445   -0.984357
    116          1           0       -8.013702    3.081278   -0.114462
    117          1           0       -9.383022    3.755276    0.789621
    118          1           0       -8.768074    2.143459    2.569440
    119          1           0       -9.472580    0.505406    2.489069
    120          1           0      -11.350581    2.737990    1.685237
    121          1           0      -10.867554    2.714413    3.396904
    122          1           0      -11.697543    0.582097    3.786086
    123          1           0      -11.651786    0.266419    1.991212
    124          1           0      -13.289852    2.600527    2.720639
    125          1           0      -14.265285    0.030919    4.211855
    126          1           0      -14.952107    1.658874    4.085773
    127          1           0      -13.392046    1.464510    4.889749
    128          1           0      -15.124011    1.176987    1.639335
    129          1           0      -14.019076   -0.131837    1.344052
    130          1           0      -13.088235    2.547113    0.385328
    131          1           0      -14.618594    2.216481   -0.230757
    132          1           0      -13.115054   -0.253277   -0.788571
    133          1           0      -12.021043    1.058164   -0.857758
    134          1           0      -13.882940    2.273250   -2.187087
    135          1           0      -15.184969    0.420781   -3.730583
    136          1           0      -15.700802    1.068323   -2.220096
    137          1           0      -14.981270   -0.597931   -2.296124
    138          1           0      -12.892698    0.324109   -4.268111
    139          1           0      -11.703995    0.538690   -3.065997
    140          1           0      -12.498453    2.039137   -3.748072
 ---------------------------------------------------------------------

 SCF Done:  E(RPBE1PBE) =  -3005.34428111     A.U. after   16 cycles

 Excitation energies and oscillator strengths:

 Excited State   1:      Singlet-A      1.8459 eV  671.66 nm  f=0.3593  <S**2>=0.000
     245 -> 248        0.17017
     246 -> 247        0.69395
     246 <- 247       -0.10935
 This state for optimization and/or second-order correction.
 Total Energy, E(TD-HF/TD-DFT) =  -3005.27644460
 Copying the excited state density for this state as the 1-particle RhoCI density.

 Excited State   2:      Singlet-A      2.2419 eV  553.02 nm  f=0.1292  <S**2>=0.000
     245 -> 247        0.65119
     246 -> 248       -0.26007

 Excited State   3:      Singlet-A      2.7983 eV  443.08 nm  f=0.0003  <S**2>=0.000
     243 -> 247        0.67608
     243 -> 249       -0.15521
     243 -> 250       -0.12129

 Excited State   4:      Singlet-A      2.8759 eV  431.11 nm  f=0.0025  <S**2>=0.000
     240 -> 247        0.12618
     241 -> 247       -0.29669
     242 -> 247        0.57975
     242 -> 249        0.14974

 Excited State   5:      Singlet-A      3.0601 eV  405.16 nm  f=0.0023  <S**2>=0.000
     240 -> 247       -0.13547
     241 -> 247        0.59644
     242 -> 247        0.33848

 The electronic state is 1-A.
 Alpha  occ. eigenvalues --  -46.91942 -19.25038 -19.24424 -19.19957 -19.19437
 Alpha  occ. eigenvalues --  -19.18926 -19.18462 -14.41996 -14.41128 -14.39451
 Alpha  occ. eigenvalues --  -14.39107 -10.36149 -10.35723 -10.32759 -10.31963
 Alpha  occ. eigenvalues --  -10.29354 -10.29191 -10.28460 -10.28302 -10.28174
 Alpha  occ. eigenvalues --  -10.28097 -10.27909 -10.27875 -10.27535 -10.26971
 Alpha  occ. eigenvalues --  -10.26933 -10.26863 -10.26793 -10.26476 -10.26324
 Alpha  occ. eigenvalues --  -10.25847 -10.25672 -10.24963 -10.24956 -10.24793
 Alpha  occ. eigenvalues --  -10.24555 -10.24463 -10.24359 -10.24256 -10.24254
 Alpha  occ. eigenvalues --  -10.24041 -10.23578 -10.23571 -10.23492 -10.23420
 Alpha  occ. eigenvalues --  -10.23302 -10.23278 -10.23173 -10.23145 -10.23142
 Alpha  occ. eigenvalues --  -10.23112 -10.22928 -10.22842 -10.22749 -10.22391
 Alpha  occ. eigenvalues --  -10.22325 -10.22274 -10.22239 -10.22140 -10.21981
 Alpha  occ. eigenvalues --  -10.21898 -10.21850 -10.21750 -10.21700 -10.21432
 Alpha  occ. eigenvalues --  -10.21315  -3.14169  -1.87014  -1.86529  -1.86414
 Alpha  occ. eigenvalues --   -1.11657  -1.10340  -1.03499  -1.02061  -1.02043
 Alpha  occ. eigenvalues --   -1.01545  -1.00579  -0.99578  -0.98644  -0.97240
 Alpha  occ. eigenvalues --   -0.86189  -0.84925  -0.84193  -0.83978  -0.83577
 Alpha  occ. eigenvalues --   -0.82959  -0.82299  -0.82068  -0.81750  -0.81537
 Alpha  occ. eigenvalues --   -0.81083  -0.79268  -0.78095  -0.77935  -0.77444
 Alpha  occ. eigenvalues --   -0.76506  -0.76383  -0.75576  -0.74957  -0.74575
 Alpha  occ. eigenvalues --   -0.74100  -0.72941  -0.72052  -0.71276  -0.70599
 Alpha  occ. eigenvalues --   -0.70015  -0.69672  -0.69358  -0.68726  -0.68547
 Alpha  occ. eigenvalues --   -0.67846  -0.67427  -0.66455  -0.64507  -0.64185
 Alpha  occ. eigenvalues --   -0.63005  -0.62098  -0.61805  -0.60622  -0.60257
 Alpha  occ. eigenvalues --   -0.59962  -0.59509  -0.59433  -0.58613  -0.58057
 Alpha  occ. eigenvalues --   -0.57726  -0.57130  -0.56715  -0.56146  -0.55215
 Alpha  occ. eigenvalues --   -0.54315  -0.53646  -0.53170  -0.52749  -0.52261
 Alpha  occ. eigenvalues --   -0.51974  -0.51362  -0.50676  -0.50518  -0.50277
 Alpha  occ. eigenvalues --   -0.49668  -0.49603  -0.49127  -0.48892  -0.48611
 Alpha  occ. eigenvalues --   -0.48473  -0.47865  -0.47552  -0.47444  -0.47245
 Alpha  occ. eigenvalues --   -0.47185  -0.46889  -0.46738  -0.46443  -0.46129
 Alpha  occ. eigenvalues --   -0.45741  -0.45659  -0.45290  -0.45126  -0.45012
 Alpha  occ. eigenvalues --   -0.44959  -0.44820  -0.44577  -0.44264  -0.44136
 Alpha  occ. eigenvalues --   -0.43987  -0.43772  -0.43444  -0.43222  -0.42977
 Alpha  occ. eigenvalues --   -0.42789  -0.42632  -0.42550  -0.42363  -0.42239
 Alpha  occ. eigenvalues --   -0.41989  -0.41791  -0.41555  -0.41496  -0.41369
 Alpha  occ. eigenvalues --   -0.41163  -0.41127  -0.40934  -0.40801  -0.40613
 Alpha  occ. eigenvalues --   -0.40462  -0.40087  -0.40006  -0.39469  -0.39380
 Alpha  occ. eigenvalues --   -0.39255  -0.39065  -0.38956  -0.38762  -0.38668
 Alpha  occ. eigenvalues --   -0.38421  -0.38241  -0.38046  -0.37991  -0.37798
 Alpha  occ. eigenvalues --   -0.37597  -0.37529  -0.37433  -0.37157  -0.37039
 Alpha  occ. eigenvalues --   -0.36764  -0.36615  -0.36226  -0.36220  -0.35997
 Alpha  occ. eigenvalues --   -0.35847  -0.35709  -0.35406  -0.35238  -0.35197
 Alpha  occ. eigenvalues --   -0.34681  -0.34470  -0.34288  -0.33872  -0.33847
 Alpha  occ. eigenvalues --   -0.33310  -0.33153  -0.32773  -0.32626  -0.32340
 Alpha  occ. eigenvalues --   -0.32031  -0.31133  -0.31108  -0.30782  -0.30427
 Alpha  occ. eigenvalues --   -0.30279  -0.30019  -0.29730  -0.29470  -0.29063
 Alpha  occ. eigenvalues --   -0.28929  -0.28677  -0.28634  -0.26961  -0.26078
 Alpha  occ. eigenvalues --   -0.25408  -0.25327  -0.24984  -0.24705  -0.21234
 Alpha  occ. eigenvalues --   -0.18952
 Alpha virt. eigenvalues --   -0.11401  -0.05319  -0.04453  -0.02315   0.00159
 Alpha virt. eigenvalues --    0.00570   0.01006   0.01267   0.02212   0.02798
 Alpha virt. eigenvalues --    0.03557   0.04354   0.05026   0.05067   0.05720

 Mulliken charges:
               1
     1  Mg   0.994835
     2  C   -0.062708
     3  C   -0.115261
     4  C   -0.059653
     5  C   -0.071466
     6  N   -0.383006
     7  C    0.092981
     8  C   -0.083437
     9  C   -0.124364
    10  C    0.070884
    11  C    0.020864
    12  C   -0.017725
    13  C   -0.078061
    14  C    0.234295
    15  O   -0.225698
    16  O   -0.370012
    17  N   -0.484517
    18  C    0.186872
    19  C   -0.168624
    20  C   -0.095285
    21  C    0.160691
    22  C    0.056078
    23  C    0.078602
    24  O   -0.282643
    25  C   -0.020709
    26  N   -0.332139
    27  C    0.020132
    28  C   -0.086805
    29  C   -0.093994
    30  C    0.017321
    31  C    0.013419
    32  C   -0.039667
    33  C   -0.060466
    34  N   -0.512203
    35  C    0.184744
    36  C   -0.180310
    37  C   -0.019927
    38  C    0.197700
    39  C    0.090133
    40  C    0.104492
    41  O   -0.262119
    42  C   -0.114480
    43  C    0.292304
    44  O   -0.224953
    45  O   -0.392540
    46  C    0.117606
    47  C    0.242893
    48  C   -0.104647
    49  C   -0.281556
    50  C    0.055742
    51  C    0.004235
    52  C   -0.010924
    53  C   -0.013323
    54  C   -0.291487
    55  C    0.016949
    56  C    0.016533
    57  C   -0.070936
    58  C    0.044083
    59  C   -0.231159
    60  C   -0.037238
    61  C    0.014703
    62  C   -0.045966
    63  C   -0.021381
    64  C   -0.274441
    65  C   -0.001143
    66  C   -0.009541
    67  H    0.023289
    68  H    0.023561
    69  H   -0.003071
    70  H    0.045246
    71  H    0.045994
    72  H    0.034238
    73  H    0.055555
    74  H    0.052690
    75  H    0.038925
    76  H    0.081337
    77  H    0.073586
    78  H    0.064659
    79  H    0.048920
    80  H    0.044916
    81  H    0.061815
    82  H    0.058259
    83  H    0.056099
    84  H    0.058518
    85  H    0.052489
    86  H    0.036646
    87  H    0.033409
    88  H    0.045111
    89  H    0.059054
    90  H    0.041956
    91  H    0.027909
    92  H    0.064851
    93  H    0.043509
    94  H    0.042740
    95  H    0.073512
    96  H    0.073907
    97  H    0.038082
    98  H    0.082189
    99  H    0.045772
   100  H    0.079580
   101  H    0.052368
   102  H    0.078458
   103  H    0.036975
   104  H    0.013217
   105  H    0.047606
   106  H    0.059833
   107  H    0.029855
   108  H    0.010370
   109  H    0.030980
   110  H    0.018265
   111  H    0.025335
   112  H    0.016257
   113  H    0.026662
   114  H    0.052678
   115  H    0.032971
   116  H    0.022518
   117  H    0.042642
   118  H    0.020660
   119  H    0.036475
   120  H    0.039900
   121  H    0.023038
   122  H    0.030024
   123  H    0.022808
   124  H    0.036772
   125  H    0.045012
   126  H    0.028149
   127  H    0.037453
   128  H    0.014100
   129  H    0.028713
   130  H    0.018738
   131  H    0.027711
   132  H    0.027684
   133  H    0.041347
   134  H    0.039133
   135  H    0.035972
   136  H    0.026257
   137  H    0.042057
   138  H    0.033160
   139  H    0.027651
   140  H    0.042369
 Sum of Mulliken charges =  -0.00000

 Dipole moment (field-independent basis, Debye):
    X=             -1.2152    Y=              3.3154    Z=             -3.2307  Tot=              4.7860
 Quadrupole moment (field-independent basis, Debye-Ang):
   XX=           -364.4946   YY=           -407.6806   ZZ=           -402.7119
   XY=             -0.0629   XZ=             -1.6221   YZ=             -9.3821

 Normal termination of Gaussian 16 at Tue May  3 21:13:44 2022.
