 Gaussian 16, Revision A.03,
 Gaussian 16:  ES64L-G16RevA.03 25-Dec-2016

 --------------------------------
 #p wB97XD/Def2SVP td=(nstates=5)
 --------------------------------

 ----------------------------------------------------
 step_1051_chromophore_1 TDDFT with wB97XD functional
 ----------------------------------------------------
 Symbolic Z-matrix:
 Charge =  0 Multiplicity = 1

                         Standard orientation:
 ---------------------------------------------------------------------
 Center     Atomic      Atomic             Coordinates (Angstroms)
 Number     Number       Type             X           Y           Z
 ---------------------------------------------------------------------
      1         12           0        5.964936    0.451704    0.004455
      2          6           0        3.758670   -2.139203   -0.854562
      3          6           0        3.859742    2.629133   -1.357169
      4          6           0        8.371624    2.751381    0.336281
      5          6           0        8.329308   -1.968754    0.979306
      6          7           0        4.029956    0.261972   -1.058441
      7          6           0        3.254543   -0.875028   -1.275576
      8          6           0        1.883050   -0.482575   -1.818715
      9          6           0        2.096240    1.045860   -2.214323
     10          6           0        3.349100    1.351909   -1.425819
     11          6           0        2.372370    1.236922   -3.807461
     12          6           0        0.644447   -0.602803   -0.734855
     13          6           0       -0.623498   -1.434859   -1.152485
     14          6           0       -1.608068   -1.718687    0.026717
     15          8           0       -1.469225   -1.414047    1.176723
     16          8           0       -2.801269   -2.166518   -0.495592
     17          7           0        6.058544    2.446517   -0.296449
     18          6           0        5.060133    3.165820   -0.928497
     19          6           0        5.431580    4.575865   -0.931130
     20          6           0        6.657006    4.623594   -0.182669
     21          6           0        7.085495    3.195502   -0.056536
     22          6           0        4.627741    5.668559   -1.549073
     23          6           0        7.466098    5.824873    0.319029
     24          8           0        8.617294    5.740812    0.853707
     25          6           0        6.891886    7.205928    0.228970
     26          7           0        8.037019    0.421725    0.631723
     27          6           0        8.861933    1.490380    0.600441
     28          6           0       10.317676    1.133683    0.779300
     29          6           0       10.217165   -0.328756    1.225723
     30          6           0        8.714591   -0.638612    0.938084
     31          6           0       11.204278    1.494247   -0.473963
     32          6           0       10.799243   -0.451026    2.606865
     33          6           0        9.756314   -0.413834    3.732636
     34          7           0        6.088616   -1.605364    0.108410
     35          6           0        7.113252   -2.507775    0.565062
     36          6           0        6.664036   -3.863192    0.486690
     37          6           0        5.353199   -3.726116   -0.073565
     38          6           0        5.056133   -2.367189   -0.266841
     39          6           0        7.415669   -5.103709    0.820329
     40          6           0        4.207991   -4.473341   -0.440274
     41          8           0        3.980153   -5.708123   -0.380339
     42          6           0        3.091090   -3.500977   -1.135703
     43          6           0        1.834379   -3.705017   -0.361404
     44          8           0        1.566153   -3.428301    0.777243
     45          8           0        0.907536   -4.385723   -1.134901
     46          6           0       -0.162561   -5.126498   -0.409018
     47          6           0       -3.879749   -2.421235    0.387919
     48          6           0       -5.209686   -1.834537   -0.181879
     49          6           0       -6.444754   -2.405610   -0.250584
     50          6           0       -6.825135   -3.767514    0.210568
     51          6           0       -7.575010   -1.583591   -0.868812
     52          6           0       -8.532693   -0.862659    0.065063
     53          6           0       -8.204884    0.673848    0.276364
     54          6           0       -9.414228    1.597524    0.674050
     55          6           0       -9.084711    2.994209    0.068274
     56          6           0       -9.600058    1.546376    2.194421
     57          6           0      -10.977738    2.111150    2.495577
     58          6           0      -11.912873    0.963114    2.788166
     59          6           0      -13.309314    1.510282    2.718857
     60          6           0      -14.023860    1.086385    4.086095
     61          6           0      -14.074343    0.951436    1.449182
     62          6           0      -13.731737    1.702852    0.140170
     63          6           0      -13.080993    0.824059   -0.952055
     64          6           0      -13.656935    1.215338   -2.322174
     65          6           0      -14.941912    0.425203   -2.667925
     66          6           0      -12.613218    0.995145   -3.456181
     67          1           0        3.110069    3.416155   -1.462905
     68          1           0        9.133868    3.518653    0.485470
     69          1           0        9.150743   -2.582102    1.354004
     70          1           0        1.521131   -1.098375   -2.641354
     71          1           0        1.274091    1.655753   -1.839373
     72          1           0        3.152741    1.993683   -3.885859
     73          1           0        1.482722    1.658092   -4.275045
     74          1           0        2.848394    0.391885   -4.304459
     75          1           0        0.234826    0.371598   -0.468511
     76          1           0        1.068204   -0.988547    0.192573
     77          1           0       -0.362529   -2.381687   -1.624768
     78          1           0       -1.179505   -0.835897   -1.873158
     79          1           0        4.006821    5.133681   -2.268253
     80          1           0        5.216130    6.359777   -2.152734
     81          1           0        4.166196    6.363697   -0.847960
     82          1           0        6.851892    7.511202   -0.816161
     83          1           0        7.448810    8.013681    0.703861
     84          1           0        5.898167    7.141506    0.672840
     85          1           0       10.676936    1.783214    1.577685
     86          1           0       10.834171   -0.886365    0.521373
     87          1           0       11.671259    0.624314   -0.934418
     88          1           0       12.046970    2.055505   -0.070240
     89          1           0       10.669230    2.020403   -1.264336
     90          1           0       11.625975    0.200223    2.893524
     91          1           0       11.293531   -1.415016    2.492007
     92          1           0        8.773889   -0.217276    3.303337
     93          1           0       10.027554    0.329804    4.482422
     94          1           0        9.718368   -1.375657    4.243976
     95          1           0        7.891035   -5.479837   -0.085933
     96          1           0        6.680174   -5.758069    1.288601
     97          1           0        8.162352   -4.796718    1.552828
     98          1           0        2.999146   -3.744967   -2.193926
     99          1           0       -1.070526   -4.551595   -0.591603
    100          1           0        0.011445   -5.325668    0.648794
    101          1           0       -0.397131   -6.098360   -0.841380
    102          1           0       -3.745887   -2.114357    1.425311
    103          1           0       -3.958432   -3.506559    0.320763
    104          1           0       -5.203682   -0.878524   -0.705135
    105          1           0       -7.078725   -4.280024   -0.717832
    106          1           0       -7.708398   -3.748579    0.848430
    107          1           0       -5.878445   -4.199220    0.534746
    108          1           0       -8.144327   -2.380991   -1.346750
    109          1           0       -7.189661   -0.908432   -1.632032
    110          1           0       -8.513138   -1.455592    0.979431
    111          1           0       -9.557982   -1.005142   -0.276409
    112          1           0       -7.591952    0.994964   -0.566309
    113          1           0       -7.522570    0.773985    1.119608
    114          1           0      -10.277817    1.226114    0.122682
    115          1           0       -9.362292    2.930445   -0.984357
    116          1           0       -8.013702    3.081278   -0.114462
    117          1           0       -9.383022    3.755276    0.789621
    118          1           0       -8.768074    2.143459    2.569440
    119          1           0       -9.472580    0.505406    2.489069
    120          1           0      -11.350581    2.737990    1.685237
    121          1           0      -10.867554    2.714413    3.396904
    122          1           0      -11.697543    0.582097    3.786086
    123          1           0      -11.651786    0.266419    1.991212
    124          1           0      -13.289852    2.600527    2.720639
    125          1           0      -14.265285    0.030919    4.211855
    126          1           0      -14.952107    1.658874    4.085773
    127          1           0      -13.392046    1.464510    4.889749
    128          1           0      -15.124011    1.176987    1.639335
    129          1           0      -14.019076   -0.131837    1.344052
    130          1           0      -13.088235    2.547113    0.385328
    131          1           0      -14.618594    2.216481   -0.230757
    132          1           0      -13.115054   -0.253277   -0.788571
    133          1           0      -12.021043    1.058164   -0.857758
    134          1           0      -13.882940    2.273250   -2.187087
    135          1           0      -15.184969    0.420781   -3.730583
    136          1           0      -15.700802    1.068323   -2.220096
    137          1           0      -14.981270   -0.597931   -2.296124
    138          1           0      -12.892698    0.324109   -4.268111
    139          1           0      -11.703995    0.538690   -3.065997
    140          1           0      -12.498453    2.039137   -3.748072
 ---------------------------------------------------------------------

 SCF Done:  E(RwB97XD) =  -3007.85619662     A.U. after   20 cycles

 Excitation energies and oscillator strengths:

 Excited State   1:      Singlet-A      1.6483 eV  752.21 nm  f=0.3746  <S**2>=0.000
     245 -> 248        0.18279
     246 -> 247        0.68401
     245 <- 248        0.11659
 This state for optimization and/or second-order correction.
 Total Energy, E(TD-HF/TD-DFT) =  -3007.79562357
 Copying the excited state density for this state as the 1-particle RhoCI density.

 Excited State   2:      Singlet-A      2.1920 eV  565.63 nm  f=0.1208  <S**2>=0.000
     245 -> 247        0.63493
     246 -> 248       -0.29696

 Excited State   3:      Singlet-A      3.3504 eV  370.06 nm  f=0.0096  <S**2>=0.000
     239 -> 247        0.11100
     239 -> 249        0.11684
     240 -> 247        0.23721
     240 -> 249        0.24268
     240 -> 250       -0.12766
     241 -> 247        0.46579
     241 -> 249        0.24542
     243 -> 247        0.13082

 Excited State   4:      Singlet-A      3.3738 eV  367.49 nm  f=0.0023  <S**2>=0.000
     242 -> 247        0.51454
     242 -> 249       -0.27167
     242 -> 250       -0.27327
     243 -> 247        0.23633

 Excited State   5:      Singlet-A      3.4448 eV  359.91 nm  f=0.0011  <S**2>=0.000
     240 -> 247       -0.23695
     242 -> 247       -0.22486
     243 -> 247        0.58095

 The electronic state is 1-A.
 Alpha  occ. eigenvalues --  -46.94860 -19.29559 -19.28972 -19.24602 -19.24165
 Alpha  occ. eigenvalues --  -19.23928 -19.23073 -14.47139 -14.46141 -14.44508
 Alpha  occ. eigenvalues --  -14.43903 -10.42914 -10.42558 -10.39796 -10.38673
 Alpha  occ. eigenvalues --  -10.35658 -10.35547 -10.34945 -10.34813 -10.34740
 Alpha  occ. eigenvalues --  -10.34713 -10.34279 -10.33974 -10.33743 -10.33568
 Alpha  occ. eigenvalues --  -10.33102 -10.33085 -10.33066 -10.32769 -10.32682
 Alpha  occ. eigenvalues --  -10.32300 -10.32026 -10.31667 -10.31383 -10.30999
 Alpha  occ. eigenvalues --  -10.30900 -10.30789 -10.30684 -10.30682 -10.30585
 Alpha  occ. eigenvalues --  -10.30332 -10.30284 -10.29850 -10.29845 -10.29716
 Alpha  occ. eigenvalues --  -10.29649 -10.29568 -10.29538 -10.29477 -10.29437
 Alpha  occ. eigenvalues --  -10.29415 -10.29216 -10.29118 -10.28996 -10.28747
 Alpha  occ. eigenvalues --  -10.28656 -10.28650 -10.28605 -10.28502 -10.28409
 Alpha  occ. eigenvalues --  -10.28274 -10.28267 -10.28180 -10.28083 -10.27841
 Alpha  occ. eigenvalues --  -10.27699  -3.20934  -1.94532  -1.94046  -1.93929
 Alpha  occ. eigenvalues --   -1.18990  -1.17732  -1.10798  -1.09762  -1.09382
 Alpha  occ. eigenvalues --   -1.08903  -1.07920  -1.07038  -1.06076  -1.04432
 Alpha  occ. eigenvalues --   -0.93737  -0.92596  -0.91859  -0.91576  -0.91218
 Alpha  occ. eigenvalues --   -0.90618  -0.89856  -0.89711  -0.89495  -0.89200
 Alpha  occ. eigenvalues --   -0.88594  -0.86934  -0.85754  -0.85489  -0.85113
 Alpha  occ. eigenvalues --   -0.84227  -0.84128  -0.83227  -0.82575  -0.82210
 Alpha  occ. eigenvalues --   -0.81757  -0.80775  -0.79654  -0.78839  -0.78223
 Alpha  occ. eigenvalues --   -0.77590  -0.77337  -0.77060  -0.76388  -0.76221
 Alpha  occ. eigenvalues --   -0.75363  -0.74999  -0.74000  -0.72077  -0.71743
 Alpha  occ. eigenvalues --   -0.70534  -0.69705  -0.69431  -0.68235  -0.67750
 Alpha  occ. eigenvalues --   -0.67431  -0.67109  -0.66932  -0.66008  -0.65741
 Alpha  occ. eigenvalues --   -0.65410  -0.64575  -0.64347  -0.63542  -0.62763
 Alpha  occ. eigenvalues --   -0.61748  -0.61032  -0.60700  -0.60077  -0.59688
 Alpha  occ. eigenvalues --   -0.59363  -0.58862  -0.58066  -0.58007  -0.57680
 Alpha  occ. eigenvalues --   -0.57142  -0.57046  -0.56620  -0.56255  -0.56014
 Alpha  occ. eigenvalues --   -0.55868  -0.55175  -0.55076  -0.54897  -0.54662
 Alpha  occ. eigenvalues --   -0.54608  -0.54429  -0.54020  -0.53758  -0.53450
 Alpha  occ. eigenvalues --   -0.53058  -0.52990  -0.52672  -0.52477  -0.52444
 Alpha  occ. eigenvalues --   -0.52351  -0.52170  -0.52031  -0.51591  -0.51490
 Alpha  occ. eigenvalues --   -0.51275  -0.51061  -0.50793  -0.50556  -0.50292
 Alpha  occ. eigenvalues --   -0.50082  -0.49922  -0.49794  -0.49579  -0.49499
 Alpha  occ. eigenvalues --   -0.49249  -0.49050  -0.48888  -0.48854  -0.48609
 Alpha  occ. eigenvalues --   -0.48390  -0.48317  -0.48064  -0.48035  -0.47814
 Alpha  occ. eigenvalues --   -0.47675  -0.47249  -0.47177  -0.46585  -0.46562
 Alpha  occ. eigenvalues --   -0.46323  -0.46185  -0.46150  -0.45898  -0.45796
 Alpha  occ. eigenvalues --   -0.45635  -0.45233  -0.45164  -0.45133  -0.44887
 Alpha  occ. eigenvalues --   -0.44731  -0.44650  -0.44504  -0.44258  -0.44158
 Alpha  occ. eigenvalues --   -0.43868  -0.43731  -0.43304  -0.43273  -0.43133
 Alpha  occ. eigenvalues --   -0.43012  -0.42861  -0.42505  -0.42297  -0.42289
 Alpha  occ. eigenvalues --   -0.41614  -0.41558  -0.41339  -0.40988  -0.40822
 Alpha  occ. eigenvalues --   -0.40236  -0.40176  -0.39721  -0.39652  -0.39387
 Alpha  occ. eigenvalues --   -0.39023  -0.38116  -0.38014  -0.37758  -0.37421
 Alpha  occ. eigenvalues --   -0.37259  -0.36792  -0.36661  -0.36354  -0.36055
 Alpha  occ. eigenvalues --   -0.35882  -0.35580  -0.35568  -0.33607  -0.32970
 Alpha  occ. eigenvalues --   -0.32482  -0.31940  -0.31698  -0.31416  -0.26215
 Alpha  occ. eigenvalues --   -0.23094
 Alpha virt. eigenvalues --   -0.07271   0.00114   0.01723   0.04186   0.06217
 Alpha virt. eigenvalues --    0.07213   0.07577   0.08008   0.09009   0.09181
 Alpha virt. eigenvalues --    0.10138   0.11271   0.11684   0.11818   0.12407

 Mulliken charges:
               1
     1  Mg   0.984783
     2  C   -0.066698
     3  C   -0.131675
     4  C   -0.080040
     5  C   -0.093126
     6  N   -0.349605
     7  C    0.053166
     8  C   -0.059372
     9  C   -0.099237
    10  C    0.058575
    11  C    0.031365
    12  C   -0.008191
    13  C   -0.053575
    14  C    0.219934
    15  O   -0.222627
    16  O   -0.367511
    17  N   -0.451264
    18  C    0.182273
    19  C   -0.155685
    20  C   -0.092684
    21  C    0.154321
    22  C    0.066499
    23  C    0.077413
    24  O   -0.275315
    25  C   -0.009642
    26  N   -0.294880
    27  C    0.010081
    28  C   -0.065272
    29  C   -0.066612
    30  C    0.004874
    31  C    0.023705
    32  C   -0.029413
    33  C   -0.041615
    34  N   -0.475588
    35  C    0.178655
    36  C   -0.181055
    37  C   -0.013841
    38  C    0.180790
    39  C    0.103194
    40  C    0.084018
    41  O   -0.255516
    42  C   -0.070333
    43  C    0.259873
    44  O   -0.215910
    45  O   -0.389254
    46  C    0.136215
    47  C    0.257015
    48  C   -0.115897
    49  C   -0.268986
    50  C    0.072476
    51  C    0.026387
    52  C    0.006112
    53  C    0.002789
    54  C   -0.237119
    55  C    0.027210
    56  C    0.034068
    57  C   -0.044353
    58  C    0.057099
    59  C   -0.198802
    60  C   -0.021892
    61  C    0.027400
    62  C   -0.030599
    63  C    0.005578
    64  C   -0.240201
    65  C    0.008884
    66  C    0.001792
    67  H    0.016647
    68  H    0.018621
    69  H   -0.009093
    70  H    0.034822
    71  H    0.037569
    72  H    0.025195
    73  H    0.051319
    74  H    0.048456
    75  H    0.030632
    76  H    0.072081
    77  H    0.061263
    78  H    0.058804
    79  H    0.044330
    80  H    0.040497
    81  H    0.059025
    82  H    0.053139
    83  H    0.056311
    84  H    0.052376
    85  H    0.041234
    86  H    0.025305
    87  H    0.027913
    88  H    0.039894
    89  H    0.052909
    90  H    0.034764
    91  H    0.020388
    92  H    0.053221
    93  H    0.038293
    94  H    0.037356
    95  H    0.068417
    96  H    0.069409
    97  H    0.030789
    98  H    0.078387
    99  H    0.037854
   100  H    0.076324
   101  H    0.049079
   102  H    0.075287
   103  H    0.030024
   104  H    0.008941
   105  H    0.040813
   106  H    0.055010
   107  H    0.022291
   108  H    0.001498
   109  H    0.022935
   110  H    0.007124
   111  H    0.017185
   112  H    0.005496
   113  H    0.015214
   114  H    0.013806
   115  H    0.027622
   116  H    0.015101
   117  H    0.037745
   118  H    0.012239
   119  H    0.024607
   120  H    0.020729
   121  H    0.014836
   122  H    0.021768
   123  H    0.007020
   124  H    0.024568
   125  H    0.039564
   126  H    0.021469
   127  H    0.030079
   128  H    0.005655
   129  H    0.020518
   130  H    0.008281
   131  H    0.018441
   132  H    0.018537
   133  H    0.019500
   134  H    0.026888
   135  H    0.030048
   136  H    0.019089
   137  H    0.036842
   138  H    0.028091
   139  H    0.021589
   140  H    0.036866
 Sum of Mulliken charges =  -0.00000

 Dipole moment (field-independent basis, Debye):
    X=             -1.3343    Y=              3.8995    Z=             -3.3278  Tot=              5.2972
 Quadrupole moment (field-independent basis, Debye-Ang):
   XX=           -366.0579   YY=           -405.1388   ZZ=           -402.3416
   XY=              3.9332   XZ=             -2.3835   YZ=             -9.5020

 Normal termination of Gaussian 16 at Tue May  3 21:40:59 2022.
