 Gaussian 16, Revision A.03,
 Gaussian 16:  ES64L-G16RevA.03 25-Dec-2016

 --------------------
 #p ZINDO=(nstates=5)
 --------------------

 -----------------------------
 step_1051_chromophore_1 ZINDO
 -----------------------------
 Symbolic Z-matrix:
 Charge =  0 Multiplicity = 1

                         Standard orientation:
 ---------------------------------------------------------------------
 Center     Atomic      Atomic             Coordinates (Angstroms)
 Number     Number       Type             X           Y           Z
 ---------------------------------------------------------------------
      1         12           0        5.964936    0.451704    0.004455
      2          6           0        3.758670   -2.139203   -0.854562
      3          6           0        3.859742    2.629133   -1.357169
      4          6           0        8.371624    2.751381    0.336281
      5          6           0        8.329308   -1.968754    0.979306
      6          7           0        4.029956    0.261972   -1.058441
      7          6           0        3.254543   -0.875028   -1.275576
      8          6           0        1.883050   -0.482575   -1.818715
      9          6           0        2.096240    1.045860   -2.214323
     10          6           0        3.349100    1.351909   -1.425819
     11          6           0        2.372370    1.236922   -3.807461
     12          6           0        0.644447   -0.602803   -0.734855
     13          6           0       -0.623498   -1.434859   -1.152485
     14          6           0       -1.608068   -1.718687    0.026717
     15          8           0       -1.469225   -1.414047    1.176723
     16          8           0       -2.801269   -2.166518   -0.495592
     17          7           0        6.058544    2.446517   -0.296449
     18          6           0        5.060133    3.165820   -0.928497
     19          6           0        5.431580    4.575865   -0.931130
     20          6           0        6.657006    4.623594   -0.182669
     21          6           0        7.085495    3.195502   -0.056536
     22          6           0        4.627741    5.668559   -1.549073
     23          6           0        7.466098    5.824873    0.319029
     24          8           0        8.617294    5.740812    0.853707
     25          6           0        6.891886    7.205928    0.228970
     26          7           0        8.037019    0.421725    0.631723
     27          6           0        8.861933    1.490380    0.600441
     28          6           0       10.317676    1.133683    0.779300
     29          6           0       10.217165   -0.328756    1.225723
     30          6           0        8.714591   -0.638612    0.938084
     31          6           0       11.204278    1.494247   -0.473963
     32          6           0       10.799243   -0.451026    2.606865
     33          6           0        9.756314   -0.413834    3.732636
     34          7           0        6.088616   -1.605364    0.108410
     35          6           0        7.113252   -2.507775    0.565062
     36          6           0        6.664036   -3.863192    0.486690
     37          6           0        5.353199   -3.726116   -0.073565
     38          6           0        5.056133   -2.367189   -0.266841
     39          6           0        7.415669   -5.103709    0.820329
     40          6           0        4.207991   -4.473341   -0.440274
     41          8           0        3.980153   -5.708123   -0.380339
     42          6           0        3.091090   -3.500977   -1.135703
     43          6           0        1.834379   -3.705017   -0.361404
     44          8           0        1.566153   -3.428301    0.777243
     45          8           0        0.907536   -4.385723   -1.134901
     46          6           0       -0.162561   -5.126498   -0.409018
     47          6           0       -3.879749   -2.421235    0.387919
     48          6           0       -5.209686   -1.834537   -0.181879
     49          6           0       -6.444754   -2.405610   -0.250584
     50          6           0       -6.825135   -3.767514    0.210568
     51          6           0       -7.575010   -1.583591   -0.868812
     52          6           0       -8.532693   -0.862659    0.065063
     53          6           0       -8.204884    0.673848    0.276364
     54          6           0       -9.414228    1.597524    0.674050
     55          6           0       -9.084711    2.994209    0.068274
     56          6           0       -9.600058    1.546376    2.194421
     57          6           0      -10.977738    2.111150    2.495577
     58          6           0      -11.912873    0.963114    2.788166
     59          6           0      -13.309314    1.510282    2.718857
     60          6           0      -14.023860    1.086385    4.086095
     61          6           0      -14.074343    0.951436    1.449182
     62          6           0      -13.731737    1.702852    0.140170
     63          6           0      -13.080993    0.824059   -0.952055
     64          6           0      -13.656935    1.215338   -2.322174
     65          6           0      -14.941912    0.425203   -2.667925
     66          6           0      -12.613218    0.995145   -3.456181
     67          1           0        3.110069    3.416155   -1.462905
     68          1           0        9.133868    3.518653    0.485470
     69          1           0        9.150743   -2.582102    1.354004
     70          1           0        1.521131   -1.098375   -2.641354
     71          1           0        1.274091    1.655753   -1.839373
     72          1           0        3.152741    1.993683   -3.885859
     73          1           0        1.482722    1.658092   -4.275045
     74          1           0        2.848394    0.391885   -4.304459
     75          1           0        0.234826    0.371598   -0.468511
     76          1           0        1.068204   -0.988547    0.192573
     77          1           0       -0.362529   -2.381687   -1.624768
     78          1           0       -1.179505   -0.835897   -1.873158
     79          1           0        4.006821    5.133681   -2.268253
     80          1           0        5.216130    6.359777   -2.152734
     81          1           0        4.166196    6.363697   -0.847960
     82          1           0        6.851892    7.511202   -0.816161
     83          1           0        7.448810    8.013681    0.703861
     84          1           0        5.898167    7.141506    0.672840
     85          1           0       10.676936    1.783214    1.577685
     86          1           0       10.834171   -0.886365    0.521373
     87          1           0       11.671259    0.624314   -0.934418
     88          1           0       12.046970    2.055505   -0.070240
     89          1           0       10.669230    2.020403   -1.264336
     90          1           0       11.625975    0.200223    2.893524
     91          1           0       11.293531   -1.415016    2.492007
     92          1           0        8.773889   -0.217276    3.303337
     93          1           0       10.027554    0.329804    4.482422
     94          1           0        9.718368   -1.375657    4.243976
     95          1           0        7.891035   -5.479837   -0.085933
     96          1           0        6.680174   -5.758069    1.288601
     97          1           0        8.162352   -4.796718    1.552828
     98          1           0        2.999146   -3.744967   -2.193926
     99          1           0       -1.070526   -4.551595   -0.591603
    100          1           0        0.011445   -5.325668    0.648794
    101          1           0       -0.397131   -6.098360   -0.841380
    102          1           0       -3.745887   -2.114357    1.425311
    103          1           0       -3.958432   -3.506559    0.320763
    104          1           0       -5.203682   -0.878524   -0.705135
    105          1           0       -7.078725   -4.280024   -0.717832
    106          1           0       -7.708398   -3.748579    0.848430
    107          1           0       -5.878445   -4.199220    0.534746
    108          1           0       -8.144327   -2.380991   -1.346750
    109          1           0       -7.189661   -0.908432   -1.632032
    110          1           0       -8.513138   -1.455592    0.979431
    111          1           0       -9.557982   -1.005142   -0.276409
    112          1           0       -7.591952    0.994964   -0.566309
    113          1           0       -7.522570    0.773985    1.119608
    114          1           0      -10.277817    1.226114    0.122682
    115          1           0       -9.362292    2.930445   -0.984357
    116          1           0       -8.013702    3.081278   -0.114462
    117          1           0       -9.383022    3.755276    0.789621
    118          1           0       -8.768074    2.143459    2.569440
    119          1           0       -9.472580    0.505406    2.489069
    120          1           0      -11.350581    2.737990    1.685237
    121          1           0      -10.867554    2.714413    3.396904
    122          1           0      -11.697543    0.582097    3.786086
    123          1           0      -11.651786    0.266419    1.991212
    124          1           0      -13.289852    2.600527    2.720639
    125          1           0      -14.265285    0.030919    4.211855
    126          1           0      -14.952107    1.658874    4.085773
    127          1           0      -13.392046    1.464510    4.889749
    128          1           0      -15.124011    1.176987    1.639335
    129          1           0      -14.019076   -0.131837    1.344052
    130          1           0      -13.088235    2.547113    0.385328
    131          1           0      -14.618594    2.216481   -0.230757
    132          1           0      -13.115054   -0.253277   -0.788571
    133          1           0      -12.021043    1.058164   -0.857758
    134          1           0      -13.882940    2.273250   -2.187087
    135          1           0      -15.184969    0.420781   -3.730583
    136          1           0      -15.700802    1.068323   -2.220096
    137          1           0      -14.981270   -0.597931   -2.296124
    138          1           0      -12.892698    0.324109   -4.268111
    139          1           0      -11.703995    0.538690   -3.065997
    140          1           0      -12.498453    2.039137   -3.748072
 ---------------------------------------------------------------------

 SCF Done:  E(RZINDO/S) =  -474.368301005     A.U. after   19 cycles

 Excitation energies and oscillator strengths:

 Excited State   1:      Singlet-A      1.2538 eV  988.87 nm  f=0.6016  <S**2>=0.000
     175 ->178         0.18543
     176 ->177         0.66482
 This state for optimization and/or second-order correction.
 Total Energy, E(CIS/TDA) =  -474.322225021
 Copying the excited state density for this state as the 1-particle RhoCI density.

 Excited State   2:      Singlet-A      1.9457 eV  637.22 nm  f=0.0487  <S**2>=0.000
     175 ->177         0.54356
     176 ->178        -0.42483

 Excited State   3:      Singlet-A      2.8543 eV  434.37 nm  f=0.0118  <S**2>=0.000
     168 ->177         0.30921
     168 ->179        -0.43759
     168 ->180         0.22803
     168 ->184         0.10064
     168 ->185        -0.19573
     168 ->187         0.11185
     171 ->177        -0.15121
     171 ->179         0.12037

 Excited State   4:      Singlet-A      2.9388 eV  421.89 nm  f=0.0014  <S**2>=0.000
     170 ->177         0.33211
     170 ->178         0.16784
     170 ->179         0.26884
     170 ->180         0.39357
     170 ->185         0.19526
     170 ->187         0.14214
     170 ->202        -0.10918
     176 ->179         0.12707

 Excited State   5:      Singlet-A      2.9688 eV  417.63 nm  f=0.1454  <S**2>=0.000
     175 ->177         0.14629
     176 ->178         0.24751
     176 ->179         0.57449
     176 ->180         0.17524

 The electronic state is 1-A.
 Alpha  occ. eigenvalues --   -1.85483  -1.82667  -1.81670  -1.73384  -1.72185
 Alpha  occ. eigenvalues --   -1.70692  -1.68732  -1.60224  -1.56666  -1.55903
 Alpha  occ. eigenvalues --   -1.55562  -1.52244  -1.48963  -1.48228  -1.45724
 Alpha  occ. eigenvalues --   -1.42876  -1.41470  -1.40627  -1.39464  -1.37745
 Alpha  occ. eigenvalues --   -1.35101  -1.33244  -1.32772  -1.31860  -1.29149
 Alpha  occ. eigenvalues --   -1.28365  -1.25445  -1.22447  -1.20149  -1.17643
 Alpha  occ. eigenvalues --   -1.16271  -1.15569  -1.14558  -1.13913  -1.12814
 Alpha  occ. eigenvalues --   -1.12171  -1.11636  -1.10623  -1.06136  -1.05045
 Alpha  occ. eigenvalues --   -1.03721  -1.01776  -0.99165  -0.98339  -0.97542
 Alpha  occ. eigenvalues --   -0.96718  -0.94661  -0.93207  -0.92083  -0.91883
 Alpha  occ. eigenvalues --   -0.90675  -0.89881  -0.89252  -0.87976  -0.86426
 Alpha  occ. eigenvalues --   -0.85420  -0.83043  -0.81767  -0.81403  -0.80253
 Alpha  occ. eigenvalues --   -0.78699  -0.78416  -0.77353  -0.76512  -0.76282
 Alpha  occ. eigenvalues --   -0.75660  -0.75199  -0.74638  -0.74315  -0.73031
 Alpha  occ. eigenvalues --   -0.72991  -0.72479  -0.71795  -0.71410  -0.70638
 Alpha  occ. eigenvalues --   -0.69575  -0.69109  -0.68755  -0.68453  -0.68178
 Alpha  occ. eigenvalues --   -0.67127  -0.66743  -0.66514  -0.66151  -0.65392
 Alpha  occ. eigenvalues --   -0.65091  -0.64189  -0.63786  -0.63587  -0.63442
 Alpha  occ. eigenvalues --   -0.62970  -0.62560  -0.62098  -0.61697  -0.61418
 Alpha  occ. eigenvalues --   -0.61061  -0.60826  -0.60685  -0.60240  -0.59977
 Alpha  occ. eigenvalues --   -0.59654  -0.59532  -0.58912  -0.58810  -0.57483
 Alpha  occ. eigenvalues --   -0.57383  -0.56970  -0.56626  -0.56448  -0.55963
 Alpha  occ. eigenvalues --   -0.55768  -0.55454  -0.55125  -0.54794  -0.54532
 Alpha  occ. eigenvalues --   -0.54253  -0.54195  -0.53772  -0.53323  -0.52898
 Alpha  occ. eigenvalues --   -0.52707  -0.52444  -0.52087  -0.51621  -0.51391
 Alpha  occ. eigenvalues --   -0.50578  -0.50518  -0.50424  -0.50123  -0.49873
 Alpha  occ. eigenvalues --   -0.49627  -0.49544  -0.49289  -0.49104  -0.48860
 Alpha  occ. eigenvalues --   -0.48560  -0.48290  -0.48141  -0.47983  -0.47856
 Alpha  occ. eigenvalues --   -0.47631  -0.47507  -0.47092  -0.46749  -0.46450
 Alpha  occ. eigenvalues --   -0.46050  -0.46044  -0.45907  -0.45531  -0.44705
 Alpha  occ. eigenvalues --   -0.44502  -0.44083  -0.43939  -0.43681  -0.43012
 Alpha  occ. eigenvalues --   -0.42817  -0.42513  -0.42449  -0.41886  -0.41507
 Alpha  occ. eigenvalues --   -0.40809  -0.40772  -0.40586  -0.38558  -0.38289
 Alpha  occ. eigenvalues --   -0.37763  -0.37176  -0.35799  -0.34836  -0.34041
 Alpha  occ. eigenvalues --   -0.33314  -0.32478  -0.31899  -0.31466  -0.26728
 Alpha  occ. eigenvalues --   -0.21762
 Alpha virt. eigenvalues --   -0.08559  -0.01954  -0.00916   0.01071   0.02413
 Alpha virt. eigenvalues --    0.02959   0.03111   0.03638   0.04777   0.05444
 Alpha virt. eigenvalues --    0.06172   0.06583   0.07063   0.07618   0.08201

 Mulliken charges:
               1
     1  Mg   0.429002
     2  C   -0.040903
     3  C   -0.081133
     4  C   -0.079799
     5  C   -0.064864
     6  N   -0.280999
     7  C    0.099106
     8  C    0.000335
     9  C   -0.001793
    10  C    0.163831
    11  C   -0.055550
    12  C   -0.037920
    13  C    0.004484
    14  C    0.464494
    15  O   -0.492029
    16  O   -0.277118
    17  N   -0.306147
    18  C    0.114926
    19  C    0.020858
    20  C   -0.049705
    21  C    0.168338
    22  C   -0.041765
    23  C    0.326033
    24  O   -0.539262
    25  C   -0.023912
    26  N   -0.257104
    27  C    0.151808
    28  C    0.000672
    29  C    0.002944
    30  C    0.128347
    31  C   -0.051992
    32  C   -0.024844
    33  C   -0.056436
    34  N   -0.333104
    35  C    0.071608
    36  C    0.025693
    37  C   -0.056179
    38  C    0.127344
    39  C   -0.034360
    40  C    0.320959
    41  O   -0.551463
    42  C    0.051644
    43  C    0.494587
    44  O   -0.509461
    45  O   -0.292097
    46  C    0.074723
    47  C    0.109913
    48  C   -0.109835
    49  C   -0.007377
    50  C   -0.046394
    51  C   -0.023679
    52  C   -0.033240
    53  C   -0.046602
    54  C   -0.019889
    55  C   -0.070713
    56  C   -0.033000
    57  C   -0.035482
    58  C   -0.032131
    59  C   -0.016476
    60  C   -0.067856
    61  C   -0.038070
    62  C   -0.038940
    63  C   -0.034227
    64  C   -0.012207
    65  C   -0.057840
    66  C   -0.067814
    67  H    0.015086
    68  H    0.039307
    69  H    0.024188
    70  H    0.028738
    71  H    0.038807
    72  H    0.014665
    73  H    0.028326
    74  H    0.036175
    75  H    0.023753
    76  H    0.044574
    77  H    0.048952
    78  H    0.034519
    79  H    0.030070
    80  H    0.023310
    81  H    0.043693
    82  H    0.036149
    83  H    0.040459
    84  H    0.032278
    85  H    0.031731
    86  H    0.020590
    87  H    0.017720
    88  H    0.021130
    89  H    0.031317
    90  H    0.025305
    91  H    0.007611
    92  H    0.030889
    93  H    0.019502
    94  H    0.018697
    95  H    0.042369
    96  H    0.044135
    97  H    0.021329
    98  H    0.061796
    99  H    0.031100
   100  H    0.059988
   101  H    0.031890
   102  H    0.064522
   103  H    0.032609
   104  H    0.030179
   105  H    0.025240
   106  H    0.041419
   107  H    0.030537
   108  H    0.010124
   109  H    0.023511
   110  H    0.017220
   111  H    0.014841
   112  H    0.021340
   113  H    0.013567
   114  H    0.021355
   115  H    0.027911
   116  H    0.011654
   117  H    0.034019
   118  H    0.018443
   119  H    0.023530
   120  H    0.028008
   121  H    0.008825
   122  H    0.024917
   123  H    0.023481
   124  H    0.028614
   125  H    0.028667
   126  H    0.007623
   127  H    0.018531
   128  H    0.005507
   129  H    0.027868
   130  H    0.017046
   131  H    0.017189
   132  H    0.023395
   133  H    0.013907
   134  H    0.025473
   135  H    0.016438
   136  H    0.010721
   137  H    0.028398
   138  H    0.023451
   139  H    0.017301
   140  H    0.022531
 Sum of Mulliken charges =  -0.00000

 Dipole moment (field-independent basis, Debye):
    X=             -2.1448    Y=              6.6187    Z=             -6.8348  Tot=              9.7531
 N-N= 4.272207881340D+03 E-N= 0.000000000000D+00  KE=-9.219534411178D+03
 Leave Link  601 at Tue May  3 21:55:07 2022, MaxMem=  6710886400 cpu:               0.8 elap:               0.1
 (Enter /sw/apps/gaussian-16.0/g16/l9999.exe)
 1\1\GINC-BP1-COMPUTE128\SP\RZINDO CIS\STO-3G\C55H74Mg1N4O6\OF15641\03-
 May-2022\0\\#p ZINDO=(nstates=5)\\step_1051_chromophore_1 ZINDO\\0,1\M
 g,0,-2.122,17.921,26.572\C,0,-2.533,15.93,29.433\C,0,-3.13,20.557,28.3
 22\C,0,-2.26,19.595,23.679\C,0,-1.536,14.998,24.698\N,0,-2.824,18.208,
 28.654\C,0,-2.881,17.286,29.697\C,0,-3.181,17.997,31.014\C,0,-3.635,19
 .444,30.526\C,0,-3.085,19.434,29.118\C,0,-5.255,19.604,30.497\C,0,-1.8
 94,18.14,32.037\C,0,-2.067,17.633,33.516\C,0,-0.728,17.556,34.317\O,0,

 Normal termination of Gaussian 16 at Tue May  3 21:55:08 2022.
