 Gaussian 16, Revision A.03,
 Gaussian 16:  ES64L-G16RevA.03 25-Dec-2016

 ------------------------------
 #p blyp/Def2SVP td=(nstates=5)
 ------------------------------

 --------------------------------------------------
 step_1051_chromophore_9 TDDFT with blyp functional
 --------------------------------------------------
 Symbolic Z-matrix:
 Charge =  0 Multiplicity = 1

                         Standard orientation:
 ---------------------------------------------------------------------
 Center     Atomic      Atomic             Coordinates (Angstroms)
 Number     Number       Type             X           Y           Z
 ---------------------------------------------------------------------
      1         12           0       -4.870759    0.873239   -0.285100
      2          6           0       -4.091525   -2.468369    0.231731
      3          6           0       -1.565067    1.431672   -0.628062
      4          6           0       -5.533980    4.151084   -0.244322
      5          6           0       -8.216162    0.147256    0.457525
      6          7           0       -3.078317   -0.425393   -0.221343
      7          6           0       -2.948327   -1.758684   -0.186550
      8          6           0       -1.457318   -2.246843   -0.441341
      9          6           0       -0.734937   -0.926989   -0.509501
     10          6           0       -1.858595    0.103235   -0.433593
     11          6           0        0.365636   -0.913277    0.605536
     12          6           0       -1.378660   -3.161373   -1.706851
     13          6           0       -0.279636   -4.247482   -1.645052
     14          6           0        0.901224   -4.141156   -0.582501
     15          8           0        0.835313   -4.536064    0.536532
     16          8           0        1.983710   -3.551209   -1.066661
     17          7           0       -3.666401    2.596314   -0.335019
     18          6           0       -2.340932    2.627535   -0.573517
     19          6           0       -1.861089    4.028101   -0.694580
     20          6           0       -3.068356    4.851234   -0.573597
     21          6           0       -4.152657    3.869597   -0.355621
     22          6           0       -0.367070    4.432746   -0.812214
     23          6           0       -3.150069    6.307872   -0.683256
     24          8           0       -4.111004    6.939206   -0.298005
     25          6           0       -1.916060    7.147692   -1.077561
     26          7           0       -6.663634    2.149278    0.038414
     27          6           0       -6.721510    3.415911   -0.153829
     28          6           0       -8.140021    3.937410    0.004810
     29          6           0       -8.926157    2.605392    0.299050
     30          6           0       -7.896281    1.538883    0.226170
     31          6           0       -8.266710    4.969736    1.169190
     32          6           0      -10.152686    2.370979   -0.546113
     33          6           0      -10.027107    1.826140   -2.068597
     34          7           0       -5.969295   -0.786503    0.053237
     35          6           0       -7.291201   -0.942157    0.338014
     36          6           0       -7.564628   -2.335961    0.764093
     37          6           0       -6.359617   -2.957722    0.601283
     38          6           0       -5.403690   -1.973913    0.260611
     39          6           0       -8.845194   -2.962572    1.234787
     40          6           0       -5.735121   -4.260161    0.829784
     41          8           0       -6.166184   -5.301492    1.290631
     42          6           0       -4.202490   -4.019560    0.485825
     43          6           0       -3.474712   -4.469754    1.643526
     44          8           0       -3.531141   -4.069707    2.788227
     45          8           0       -2.578499   -5.410640    1.263209
     46          6           0       -1.829190   -6.017936    2.399987
     47          6           0        3.096960   -3.371413   -0.074031
     48          6           0        4.294147   -2.627717   -0.551955
     49          6           0        5.375419   -3.109635   -1.250907
     50          6           0        5.547590   -4.505100   -1.756833
     51          6           0        6.624932   -2.160909   -1.250966
     52          6           0        6.846672   -1.517698   -2.663638
     53          6           0        8.260162   -1.669116   -3.314467
     54          6           0        8.961827   -0.309813   -3.645952
     55          6           0        9.320898   -0.304588   -5.153920
     56          6           0       10.144417    0.151662   -2.747815
     57          6           0        9.651540    1.087056   -1.632427
     58          6           0       10.498685    1.106091   -0.362811
     59          6           0       10.721493    2.626793    0.100348
     60          6           0       11.950846    3.273796   -0.597235
     61          6           0       11.013011    2.755678    1.601462
     62          6           0        9.760551    2.390161    2.386503
     63          6           0        9.844805    1.126097    3.356526
     64          6           0        9.989093    1.320750    4.919341
     65          6           0        9.062159    2.335051    5.574380
     66          6           0       11.480343    1.842657    5.101351
     67          1           0       -0.501045    1.536079   -0.847618
     68          1           0       -5.672844    5.221087   -0.416483
     69          1           0       -9.215229    0.023418    0.880407
     70          1           0       -1.372922   -2.863181    0.454543
     71          1           0       -0.209726   -0.690073   -1.435173
     72          1           0        0.230453   -0.049385    1.257230
     73          1           0        1.328342   -0.804722    0.105231
     74          1           0        0.388002   -1.848723    1.163438
     75          1           0       -0.985415   -2.689123   -2.606361
     76          1           0       -2.344047   -3.403614   -2.152864
     77          1           0        0.272543   -4.290517   -2.582959
     78          1           0       -0.752756   -5.227208   -1.576208
     79          1           0       -0.135674    4.645985   -1.856058
     80          1           0        0.465209    3.769665   -0.577410
     81          1           0       -0.205757    5.325216   -0.206735
     82          1           0       -1.454150    6.875719   -2.027325
     83          1           0       -1.339553    7.066099   -0.155899
     84          1           0       -2.198459    8.192573   -1.202388
     85          1           0       -8.548285    4.520727   -0.819542
     86          1           0       -9.244984    2.532773    1.338927
     87          1           0       -9.131418    4.779600    1.804384
     88          1           0       -8.352683    6.014101    0.868576
     89          1           0       -7.382508    4.901773    1.803861
     90          1           0      -10.652017    3.328145   -0.695106
     91          1           0      -10.810690    1.663180   -0.042887
     92          1           0       -8.963636    1.709355   -2.277841
     93          1           0      -10.333973    2.571988   -2.800493
     94          1           0      -10.567446    0.904317   -2.285078
     95          1           0       -9.252702   -2.314254    2.011445
     96          1           0       -8.553756   -3.924571    1.656511
     97          1           0       -9.509855   -3.105623    0.383225
     98          1           0       -3.907145   -4.610599   -0.380524
     99          1           0       -2.434021   -6.108820    3.302492
    100          1           0       -0.935701   -5.494214    2.739618
    101          1           0       -1.594716   -7.040775    2.104436
    102          1           0        3.518293   -4.365659    0.070230
    103          1           0        2.794652   -2.982767    0.899006
    104          1           0        4.313858   -1.604316   -0.177948
    105          1           0        6.066004   -5.106814   -1.009251
    106          1           0        6.114911   -4.451947   -2.685383
    107          1           0        4.620874   -5.002792   -2.044162
    108          1           0        7.540159   -2.689711   -0.984635
    109          1           0        6.437454   -1.436612   -0.458490
    110          1           0        6.697655   -0.444251   -2.548155
    111          1           0        6.029557   -1.896959   -3.277921
    112          1           0        8.105384   -2.275961   -4.207296
    113          1           0        8.931117   -2.205557   -2.644082
    114          1           0        8.223293    0.453852   -3.400732
    115          1           0        9.501595    0.707864   -5.513990
    116          1           0        8.494485   -0.731329   -5.723233
    117          1           0       10.259843   -0.857883   -5.180019
    118          1           0       10.883306    0.729965   -3.302639
    119          1           0       10.647709   -0.714261   -2.317363
    120          1           0        8.623214    0.922216   -1.310232
    121          1           0        9.722541    2.043723   -2.148973
    122          1           0       11.431587    0.655733   -0.701185
    123          1           0       10.041199    0.476261    0.400758
    124          1           0        9.841983    3.201786   -0.187237
    125          1           0       12.257869    2.611441   -1.407266
    126          1           0       12.880861    3.259943   -0.029297
    127          1           0       11.894780    4.221023   -1.133654
    128          1           0       11.271174    3.778758    1.874066
    129          1           0       11.793047    2.040767    1.863269
    130          1           0        8.983066    2.045252    1.704852
    131          1           0        9.349650    3.226309    2.952228
    132          1           0       10.617730    0.455187    2.981811
    133          1           0        8.938034    0.537749    3.215189
    134          1           0        9.973735    0.375034    5.461867
    135          1           0        8.666007    2.025903    6.540847
    136          1           0        8.221453    2.449649    4.890290
    137          1           0        9.422589    3.360405    5.654251
    138          1           0       12.077924    1.722440    4.198236
    139          1           0       12.038882    1.301752    5.865306
    140          1           0       11.552230    2.881689    5.420996
 ---------------------------------------------------------------------

 SCF Done:  E(RB-LYP) =  -3007.36307512     A.U. after   20 cycles

 Excitation energies and oscillator strengths:

 Excited State   1:      Singlet-A      1.8445 eV  672.19 nm  f=0.2886  <S**2>=0.000
     244 -> 247        0.12224
     245 -> 248        0.19592
     246 -> 247        0.66922
     246 <- 247       -0.13609
 This state for optimization and/or second-order correction.
 Total Energy, E(TD-HF/TD-DFT) =  -3007.29529122
 Copying the excited state density for this state as the 1-particle RhoCI density.

 Excited State   2:      Singlet-A      1.9258 eV  643.79 nm  f=0.0219  <S**2>=0.000
     244 -> 247        0.65721
     245 -> 247        0.20900
     246 -> 247       -0.13399

 Excited State   3:      Singlet-A      2.0352 eV  609.21 nm  f=0.0650  <S**2>=0.000
     244 -> 247       -0.22576
     245 -> 247        0.61004
     246 -> 248       -0.24085

 Excited State   4:      Singlet-A      2.2422 eV  552.96 nm  f=0.0011  <S**2>=0.000
     243 -> 247        0.70493

 Excited State   5:      Singlet-A      2.6231 eV  472.66 nm  f=0.0017  <S**2>=0.000
     241 -> 247        0.42686
     242 -> 247        0.54992

 The electronic state is 1-A.
 Alpha  occ. eigenvalues --  -46.27595 -18.82827 -18.81104 -18.76659 -18.76313
 Alpha  occ. eigenvalues --  -18.75007 -18.74845 -14.02987 -14.02673 -14.01378
 Alpha  occ. eigenvalues --  -14.01058 -10.04144 -10.02178  -9.99828  -9.99161
 Alpha  occ. eigenvalues --   -9.98229  -9.96462  -9.96178  -9.95956  -9.95855
 Alpha  occ. eigenvalues --   -9.95782  -9.95719  -9.95689  -9.95565  -9.94753
 Alpha  occ. eigenvalues --   -9.94689  -9.94603  -9.94437  -9.93834  -9.93798
 Alpha  occ. eigenvalues --   -9.93722  -9.93621  -9.93494  -9.93410  -9.93395
 Alpha  occ. eigenvalues --   -9.93329  -9.93166  -9.93164  -9.93115  -9.92999
 Alpha  occ. eigenvalues --   -9.92889  -9.92782  -9.92759  -9.92652  -9.92522
 Alpha  occ. eigenvalues --   -9.92348  -9.92224  -9.92142  -9.92082  -9.92044
 Alpha  occ. eigenvalues --   -9.92035  -9.91795  -9.91791  -9.91673  -9.91644
 Alpha  occ. eigenvalues --   -9.91540  -9.91477  -9.91398  -9.91389  -9.91384
 Alpha  occ. eigenvalues --   -9.91222  -9.91123  -9.90907  -9.90831  -9.90628
 Alpha  occ. eigenvalues --   -9.90211  -2.92183  -1.72614  -1.72052  -1.71907
 Alpha  occ. eigenvalues --   -0.99851  -0.97181  -0.91869  -0.91673  -0.90911
 Alpha  occ. eigenvalues --   -0.88301  -0.87595  -0.87092  -0.86583  -0.85241
 Alpha  occ. eigenvalues --   -0.74921  -0.74061  -0.73448  -0.73053  -0.72650
 Alpha  occ. eigenvalues --   -0.72202  -0.71314  -0.70589  -0.70379  -0.70149
 Alpha  occ. eigenvalues --   -0.69585  -0.69237  -0.68441  -0.67418  -0.67034
 Alpha  occ. eigenvalues --   -0.66452  -0.65609  -0.64998  -0.64524  -0.64476
 Alpha  occ. eigenvalues --   -0.63781  -0.62576  -0.62266  -0.61541  -0.61240
 Alpha  occ. eigenvalues --   -0.60380  -0.59931  -0.59873  -0.59631  -0.59182
 Alpha  occ. eigenvalues --   -0.58458  -0.57410  -0.56726  -0.55809  -0.55505
 Alpha  occ. eigenvalues --   -0.54075  -0.53782  -0.53424  -0.52794  -0.52079
 Alpha  occ. eigenvalues --   -0.51405  -0.51034  -0.50593  -0.50500  -0.50356
 Alpha  occ. eigenvalues --   -0.49896  -0.49538  -0.48039  -0.47551  -0.46722
 Alpha  occ. eigenvalues --   -0.46632  -0.46194  -0.45609  -0.45005  -0.44167
 Alpha  occ. eigenvalues --   -0.44029  -0.43820  -0.42777  -0.42516  -0.42310
 Alpha  occ. eigenvalues --   -0.42243  -0.41671  -0.41504  -0.41434  -0.41344
 Alpha  occ. eigenvalues --   -0.40988  -0.40565  -0.40374  -0.40237  -0.40141
 Alpha  occ. eigenvalues --   -0.39919  -0.39651  -0.39437  -0.39394  -0.39032
 Alpha  occ. eigenvalues --   -0.38883  -0.38710  -0.38670  -0.38445  -0.38284
 Alpha  occ. eigenvalues --   -0.37969  -0.37660  -0.37262  -0.37180  -0.37120
 Alpha  occ. eigenvalues --   -0.36978  -0.36768  -0.36693  -0.36532  -0.36292
 Alpha  occ. eigenvalues --   -0.36158  -0.35972  -0.35785  -0.35751  -0.35651
 Alpha  occ. eigenvalues --   -0.35556  -0.35231  -0.35176  -0.34852  -0.34703
 Alpha  occ. eigenvalues --   -0.34618  -0.34446  -0.34251  -0.34092  -0.33885
 Alpha  occ. eigenvalues --   -0.33779  -0.33582  -0.33429  -0.33398  -0.33165
 Alpha  occ. eigenvalues --   -0.33084  -0.32816  -0.32685  -0.32408  -0.32070
 Alpha  occ. eigenvalues --   -0.31932  -0.31679  -0.31656  -0.31517  -0.31418
 Alpha  occ. eigenvalues --   -0.31121  -0.31102  -0.30821  -0.30611  -0.30506
 Alpha  occ. eigenvalues --   -0.30425  -0.30245  -0.30228  -0.30040  -0.29796
 Alpha  occ. eigenvalues --   -0.29729  -0.29459  -0.29455  -0.29034  -0.28930
 Alpha  occ. eigenvalues --   -0.28588  -0.28506  -0.28451  -0.28241  -0.27841
 Alpha  occ. eigenvalues --   -0.27809  -0.27725  -0.27193  -0.26958  -0.26763
 Alpha  occ. eigenvalues --   -0.26498  -0.26338  -0.26242  -0.25844  -0.25636
 Alpha  occ. eigenvalues --   -0.25330  -0.25001  -0.24404  -0.24125  -0.23695
 Alpha  occ. eigenvalues --   -0.23395  -0.22410  -0.21799  -0.21352  -0.20966
 Alpha  occ. eigenvalues --   -0.20689  -0.20476  -0.19106  -0.17986  -0.16803
 Alpha  occ. eigenvalues --   -0.15471
 Alpha virt. eigenvalues --   -0.10984  -0.06742  -0.05889  -0.04764  -0.04322
 Alpha virt. eigenvalues --   -0.02286  -0.02144  -0.01238  -0.00960   0.00351
 Alpha virt. eigenvalues --    0.01031   0.01519   0.02051   0.02601   0.02855

 Mulliken charges:
               1
     1  Mg   0.701907
     2  C   -0.057367
     3  C   -0.063630
     4  C   -0.017177
     5  C   -0.080522
     6  N   -0.188295
     7  C   -0.116248
     8  C    0.066030
     9  C    0.005947
    10  C    0.016894
    11  C    0.107626
    12  C    0.128981
    13  C    0.125800
    14  C    0.049676
    15  O   -0.179764
    16  O   -0.245888
    17  N   -0.255997
    18  C    0.123446
    19  C   -0.124248
    20  C    0.078237
    21  C    0.065462
    22  C    0.162573
    23  C   -0.127102
    24  O   -0.162674
    25  C    0.127703
    26  N   -0.179017
    27  C   -0.008659
    28  C    0.034848
    29  C    0.082676
    30  C   -0.013725
    31  C    0.096147
    32  C    0.067024
    33  C    0.041828
    34  N   -0.251231
    35  C    0.125735
    36  C   -0.219569
    37  C    0.074662
    38  C    0.129105
    39  C    0.183533
    40  C   -0.023792
    41  O   -0.120274
    42  C    0.076450
    43  C    0.071107
    44  O   -0.179630
    45  O   -0.264823
    46  C    0.216892
    47  C    0.315414
    48  C   -0.125102
    49  C   -0.152993
    50  C    0.153836
    51  C    0.115249
    52  C    0.051529
    53  C    0.124557
    54  C   -0.088487
    55  C    0.098349
    56  C    0.104511
    57  C    0.017633
    58  C    0.114069
    59  C   -0.098801
    60  C    0.113853
    61  C    0.150669
    62  C    0.067659
    63  C    0.047908
    64  C   -0.048762
    65  C    0.118214
    66  C    0.070350
    67  H   -0.083604
    68  H   -0.052183
    69  H   -0.050200
    70  H    0.023497
    71  H   -0.019710
    72  H   -0.008157
    73  H   -0.013756
    74  H    0.018138
    75  H   -0.037359
    76  H   -0.020692
    77  H   -0.022530
    78  H    0.000269
    79  H   -0.004944
    80  H   -0.009646
    81  H   -0.004216
    82  H    0.003283
    83  H    0.018681
    84  H   -0.017603
    85  H   -0.020500
    86  H   -0.022274
    87  H   -0.013264
    88  H   -0.003924
    89  H   -0.002733
    90  H   -0.019457
    91  H   -0.018810
    92  H   -0.007974
    93  H   -0.015249
    94  H    0.002388
    95  H    0.001886
    96  H    0.009931
    97  H    0.009843
    98  H   -0.007034
    99  H    0.011286
   100  H    0.023266
   101  H    0.003919
   102  H   -0.015416
   103  H    0.011050
   104  H   -0.032117
   105  H    0.018313
   106  H   -0.008677
   107  H    0.001603
   108  H   -0.026013
   109  H   -0.025802
   110  H   -0.025341
   111  H   -0.017083
   112  H   -0.031121
   113  H   -0.036614
   114  H   -0.034160
   115  H   -0.018406
   116  H   -0.009564
   117  H   -0.005485
   118  H   -0.033493
   119  H   -0.033131
   120  H   -0.020927
   121  H   -0.022765
   122  H   -0.034454
   123  H   -0.020077
   124  H   -0.028131
   125  H   -0.048380
   126  H   -0.022947
   127  H   -0.013960
   128  H   -0.029367
   129  H   -0.021751
   130  H   -0.031250
   131  H   -0.033534
   132  H   -0.032425
   133  H   -0.045088
   134  H   -0.032161
   135  H   -0.010339
   136  H   -0.026875
   137  H   -0.014429
   138  H   -0.022631
   139  H   -0.026529
   140  H   -0.021409
 Sum of Mulliken charges =  -0.00000

 Dipole moment (field-independent basis, Debye):
    X=              4.7003    Y=              0.9053    Z=             -4.6027  Tot=              6.6406
 Quadrupole moment (field-independent basis, Debye-Ang):
   XX=           -374.6453   YY=           -437.0725   ZZ=           -408.0420
   XY=            -20.6222   XZ=              8.0429   YZ=             11.0848

 Normal termination of Gaussian 16 at Tue May  3 23:38:17 2022.
