 Gaussian 16, Revision A.03,
 Gaussian 16:  ES64L-G16RevA.03 25-Dec-2016

 -----------------------------------
 #p cam-b3lyp/Def2SVP td=(nstates=5)
 -----------------------------------

 -------------------------------------------------------
 step_1051_chromophore_9 TDDFT with cam-b3lyp functional
 -------------------------------------------------------
 Symbolic Z-matrix:
 Charge =  0 Multiplicity = 1

                         Standard orientation:
 ---------------------------------------------------------------------
 Center     Atomic      Atomic             Coordinates (Angstroms)
 Number     Number       Type             X           Y           Z
 ---------------------------------------------------------------------
      1         12           0       -4.870759    0.873239   -0.285100
      2          6           0       -4.091525   -2.468369    0.231731
      3          6           0       -1.565067    1.431672   -0.628062
      4          6           0       -5.533980    4.151084   -0.244322
      5          6           0       -8.216162    0.147256    0.457525
      6          7           0       -3.078317   -0.425393   -0.221343
      7          6           0       -2.948327   -1.758684   -0.186550
      8          6           0       -1.457318   -2.246843   -0.441341
      9          6           0       -0.734937   -0.926989   -0.509501
     10          6           0       -1.858595    0.103235   -0.433593
     11          6           0        0.365636   -0.913277    0.605536
     12          6           0       -1.378660   -3.161373   -1.706851
     13          6           0       -0.279636   -4.247482   -1.645052
     14          6           0        0.901224   -4.141156   -0.582501
     15          8           0        0.835313   -4.536064    0.536532
     16          8           0        1.983710   -3.551209   -1.066661
     17          7           0       -3.666401    2.596314   -0.335019
     18          6           0       -2.340932    2.627535   -0.573517
     19          6           0       -1.861089    4.028101   -0.694580
     20          6           0       -3.068356    4.851234   -0.573597
     21          6           0       -4.152657    3.869597   -0.355621
     22          6           0       -0.367070    4.432746   -0.812214
     23          6           0       -3.150069    6.307872   -0.683256
     24          8           0       -4.111004    6.939206   -0.298005
     25          6           0       -1.916060    7.147692   -1.077561
     26          7           0       -6.663634    2.149278    0.038414
     27          6           0       -6.721510    3.415911   -0.153829
     28          6           0       -8.140021    3.937410    0.004810
     29          6           0       -8.926157    2.605392    0.299050
     30          6           0       -7.896281    1.538883    0.226170
     31          6           0       -8.266710    4.969736    1.169190
     32          6           0      -10.152686    2.370979   -0.546113
     33          6           0      -10.027107    1.826140   -2.068597
     34          7           0       -5.969295   -0.786503    0.053237
     35          6           0       -7.291201   -0.942157    0.338014
     36          6           0       -7.564628   -2.335961    0.764093
     37          6           0       -6.359617   -2.957722    0.601283
     38          6           0       -5.403690   -1.973913    0.260611
     39          6           0       -8.845194   -2.962572    1.234787
     40          6           0       -5.735121   -4.260161    0.829784
     41          8           0       -6.166184   -5.301492    1.290631
     42          6           0       -4.202490   -4.019560    0.485825
     43          6           0       -3.474712   -4.469754    1.643526
     44          8           0       -3.531141   -4.069707    2.788227
     45          8           0       -2.578499   -5.410640    1.263209
     46          6           0       -1.829190   -6.017936    2.399987
     47          6           0        3.096960   -3.371413   -0.074031
     48          6           0        4.294147   -2.627717   -0.551955
     49          6           0        5.375419   -3.109635   -1.250907
     50          6           0        5.547590   -4.505100   -1.756833
     51          6           0        6.624932   -2.160909   -1.250966
     52          6           0        6.846672   -1.517698   -2.663638
     53          6           0        8.260162   -1.669116   -3.314467
     54          6           0        8.961827   -0.309813   -3.645952
     55          6           0        9.320898   -0.304588   -5.153920
     56          6           0       10.144417    0.151662   -2.747815
     57          6           0        9.651540    1.087056   -1.632427
     58          6           0       10.498685    1.106091   -0.362811
     59          6           0       10.721493    2.626793    0.100348
     60          6           0       11.950846    3.273796   -0.597235
     61          6           0       11.013011    2.755678    1.601462
     62          6           0        9.760551    2.390161    2.386503
     63          6           0        9.844805    1.126097    3.356526
     64          6           0        9.989093    1.320750    4.919341
     65          6           0        9.062159    2.335051    5.574380
     66          6           0       11.480343    1.842657    5.101351
     67          1           0       -0.501045    1.536079   -0.847618
     68          1           0       -5.672844    5.221087   -0.416483
     69          1           0       -9.215229    0.023418    0.880407
     70          1           0       -1.372922   -2.863181    0.454543
     71          1           0       -0.209726   -0.690073   -1.435173
     72          1           0        0.230453   -0.049385    1.257230
     73          1           0        1.328342   -0.804722    0.105231
     74          1           0        0.388002   -1.848723    1.163438
     75          1           0       -0.985415   -2.689123   -2.606361
     76          1           0       -2.344047   -3.403614   -2.152864
     77          1           0        0.272543   -4.290517   -2.582959
     78          1           0       -0.752756   -5.227208   -1.576208
     79          1           0       -0.135674    4.645985   -1.856058
     80          1           0        0.465209    3.769665   -0.577410
     81          1           0       -0.205757    5.325216   -0.206735
     82          1           0       -1.454150    6.875719   -2.027325
     83          1           0       -1.339553    7.066099   -0.155899
     84          1           0       -2.198459    8.192573   -1.202388
     85          1           0       -8.548285    4.520727   -0.819542
     86          1           0       -9.244984    2.532773    1.338927
     87          1           0       -9.131418    4.779600    1.804384
     88          1           0       -8.352683    6.014101    0.868576
     89          1           0       -7.382508    4.901773    1.803861
     90          1           0      -10.652017    3.328145   -0.695106
     91          1           0      -10.810690    1.663180   -0.042887
     92          1           0       -8.963636    1.709355   -2.277841
     93          1           0      -10.333973    2.571988   -2.800493
     94          1           0      -10.567446    0.904317   -2.285078
     95          1           0       -9.252702   -2.314254    2.011445
     96          1           0       -8.553756   -3.924571    1.656511
     97          1           0       -9.509855   -3.105623    0.383225
     98          1           0       -3.907145   -4.610599   -0.380524
     99          1           0       -2.434021   -6.108820    3.302492
    100          1           0       -0.935701   -5.494214    2.739618
    101          1           0       -1.594716   -7.040775    2.104436
    102          1           0        3.518293   -4.365659    0.070230
    103          1           0        2.794652   -2.982767    0.899006
    104          1           0        4.313858   -1.604316   -0.177948
    105          1           0        6.066004   -5.106814   -1.009251
    106          1           0        6.114911   -4.451947   -2.685383
    107          1           0        4.620874   -5.002792   -2.044162
    108          1           0        7.540159   -2.689711   -0.984635
    109          1           0        6.437454   -1.436612   -0.458490
    110          1           0        6.697655   -0.444251   -2.548155
    111          1           0        6.029557   -1.896959   -3.277921
    112          1           0        8.105384   -2.275961   -4.207296
    113          1           0        8.931117   -2.205557   -2.644082
    114          1           0        8.223293    0.453852   -3.400732
    115          1           0        9.501595    0.707864   -5.513990
    116          1           0        8.494485   -0.731329   -5.723233
    117          1           0       10.259843   -0.857883   -5.180019
    118          1           0       10.883306    0.729965   -3.302639
    119          1           0       10.647709   -0.714261   -2.317363
    120          1           0        8.623214    0.922216   -1.310232
    121          1           0        9.722541    2.043723   -2.148973
    122          1           0       11.431587    0.655733   -0.701185
    123          1           0       10.041199    0.476261    0.400758
    124          1           0        9.841983    3.201786   -0.187237
    125          1           0       12.257869    2.611441   -1.407266
    126          1           0       12.880861    3.259943   -0.029297
    127          1           0       11.894780    4.221023   -1.133654
    128          1           0       11.271174    3.778758    1.874066
    129          1           0       11.793047    2.040767    1.863269
    130          1           0        8.983066    2.045252    1.704852
    131          1           0        9.349650    3.226309    2.952228
    132          1           0       10.617730    0.455187    2.981811
    133          1           0        8.938034    0.537749    3.215189
    134          1           0        9.973735    0.375034    5.461867
    135          1           0        8.666007    2.025903    6.540847
    136          1           0        8.221453    2.449649    4.890290
    137          1           0        9.422589    3.360405    5.654251
    138          1           0       12.077924    1.722440    4.198236
    139          1           0       12.038882    1.301752    5.865306
    140          1           0       11.552230    2.881689    5.420996
 ---------------------------------------------------------------------

 SCF Done:  E(RCAM-B3LYP) =  -3007.16185675     A.U. after   19 cycles

 Excitation energies and oscillator strengths:

 Excited State   1:      Singlet-A      1.7581 eV  705.20 nm  f=0.3819  <S**2>=0.000
     245 -> 248        0.19727
     246 -> 247        0.67961
     245 <- 248        0.10886
 This state for optimization and/or second-order correction.
 Total Energy, E(TD-HF/TD-DFT) =  -3007.09724656
 Copying the excited state density for this state as the 1-particle RhoCI density.

 Excited State   2:      Singlet-A      2.2609 eV  548.39 nm  f=0.0901  <S**2>=0.000
     245 -> 247        0.62841
     246 -> 248       -0.31424

 Excited State   3:      Singlet-A      3.4857 eV  355.69 nm  f=0.6288  <S**2>=0.000
     244 -> 247        0.25533
     245 -> 247        0.28053
     246 -> 248        0.58018
     245 <- 247       -0.10459

 Excited State   4:      Singlet-A      3.5900 eV  345.36 nm  f=0.1122  <S**2>=0.000
     243 -> 247        0.44365
     243 -> 248        0.15797
     243 -> 249       -0.23684
     243 -> 250        0.11425
     243 -> 252       -0.16907
     244 -> 247        0.26725
     245 -> 247       -0.10574
     246 -> 248       -0.19007

 Excited State   5:      Singlet-A      3.7071 eV  334.45 nm  f=0.0002  <S**2>=0.000
     239 -> 247        0.34242
     239 -> 249        0.24667
     239 -> 250        0.10984
     240 -> 247       -0.21370
     240 -> 249       -0.12375
     241 -> 247        0.37385
     241 -> 249        0.20993

 The electronic state is 1-A.
 Alpha  occ. eigenvalues --  -46.89134 -19.25693 -19.24061 -19.19619 -19.19545
 Alpha  occ. eigenvalues --  -19.18095 -19.18015 -14.41703 -14.41549 -14.39840
 Alpha  occ. eigenvalues --  -14.39493 -10.39274 -10.37522 -10.35260 -10.34280
 Alpha  occ. eigenvalues --  -10.32411 -10.31065 -10.30584 -10.30189 -10.30032
 Alpha  occ. eigenvalues --  -10.29986 -10.29972 -10.29926 -10.29797 -10.29382
 Alpha  occ. eigenvalues --  -10.28995 -10.28927 -10.28520 -10.27715 -10.27687
 Alpha  occ. eigenvalues --  -10.27685 -10.27681 -10.27670 -10.27630 -10.27619
 Alpha  occ. eigenvalues --  -10.27552 -10.27232 -10.27204 -10.27016 -10.26956
 Alpha  occ. eigenvalues --  -10.26794 -10.26583 -10.26531 -10.26510 -10.26265
 Alpha  occ. eigenvalues --  -10.26050 -10.25985 -10.25955 -10.25950 -10.25766
 Alpha  occ. eigenvalues --  -10.25746 -10.25649 -10.25514 -10.25486 -10.25432
 Alpha  occ. eigenvalues --  -10.25370 -10.25232 -10.25230 -10.25058 -10.24997
 Alpha  occ. eigenvalues --  -10.24925 -10.24785 -10.24771 -10.24510 -10.24404
 Alpha  occ. eigenvalues --  -10.23834  -3.17625  -1.92533  -1.92056  -1.91951
 Alpha  occ. eigenvalues --   -1.18345  -1.15777  -1.10376  -1.10079  -1.08736
 Alpha  occ. eigenvalues --   -1.06228  -1.05366  -1.04794  -1.04209  -1.02697
 Alpha  occ. eigenvalues --   -0.92066  -0.90932  -0.90266  -0.89799  -0.89333
 Alpha  occ. eigenvalues --   -0.88905  -0.87961  -0.87152  -0.86934  -0.86689
 Alpha  occ. eigenvalues --   -0.86241  -0.85534  -0.84716  -0.83579  -0.83157
 Alpha  occ. eigenvalues --   -0.82502  -0.81453  -0.80945  -0.80454  -0.80363
 Alpha  occ. eigenvalues --   -0.79651  -0.78299  -0.77857  -0.77011  -0.76633
 Alpha  occ. eigenvalues --   -0.75794  -0.75266  -0.75163  -0.74858  -0.74470
 Alpha  occ. eigenvalues --   -0.73454  -0.72407  -0.71589  -0.70597  -0.70178
 Alpha  occ. eigenvalues --   -0.68764  -0.68360  -0.67933  -0.67169  -0.66318
 Alpha  occ. eigenvalues --   -0.65640  -0.65031  -0.64596  -0.64591  -0.64110
 Alpha  occ. eigenvalues --   -0.63806  -0.63474  -0.61828  -0.61282  -0.60309
 Alpha  occ. eigenvalues --   -0.60188  -0.59836  -0.59069  -0.58361  -0.57725
 Alpha  occ. eigenvalues --   -0.57356  -0.57085  -0.55909  -0.55614  -0.55338
 Alpha  occ. eigenvalues --   -0.55114  -0.54964  -0.54583  -0.54475  -0.54226
 Alpha  occ. eigenvalues --   -0.54072  -0.53760  -0.53145  -0.52995  -0.52789
 Alpha  occ. eigenvalues --   -0.52485  -0.52377  -0.52232  -0.51886  -0.51801
 Alpha  occ. eigenvalues --   -0.51422  -0.51320  -0.51270  -0.51010  -0.50650
 Alpha  occ. eigenvalues --   -0.50346  -0.50166  -0.49758  -0.49661  -0.49500
 Alpha  occ. eigenvalues --   -0.49224  -0.49135  -0.48881  -0.48694  -0.48626
 Alpha  occ. eigenvalues --   -0.48419  -0.48271  -0.48092  -0.47871  -0.47777
 Alpha  occ. eigenvalues --   -0.47651  -0.47204  -0.47017  -0.46916  -0.46865
 Alpha  occ. eigenvalues --   -0.46615  -0.46182  -0.46112  -0.45730  -0.45680
 Alpha  occ. eigenvalues --   -0.45575  -0.45410  -0.45197  -0.45048  -0.44940
 Alpha  occ. eigenvalues --   -0.44792  -0.44669  -0.44385  -0.44242  -0.43854
 Alpha  occ. eigenvalues --   -0.43528  -0.43207  -0.43117  -0.43079  -0.42978
 Alpha  occ. eigenvalues --   -0.42679  -0.42537  -0.42452  -0.42111  -0.41914
 Alpha  occ. eigenvalues --   -0.41858  -0.41598  -0.41359  -0.41340  -0.41245
 Alpha  occ. eigenvalues --   -0.41114  -0.41024  -0.40643  -0.40603  -0.39904
 Alpha  occ. eigenvalues --   -0.39790  -0.39581  -0.39462  -0.39177  -0.38682
 Alpha  occ. eigenvalues --   -0.38636  -0.38608  -0.37986  -0.37964  -0.37696
 Alpha  occ. eigenvalues --   -0.37537  -0.37210  -0.37054  -0.36878  -0.36151
 Alpha  occ. eigenvalues --   -0.36005  -0.35639  -0.35544  -0.34869  -0.34391
 Alpha  occ. eigenvalues --   -0.34028  -0.33379  -0.32895  -0.31281  -0.30888
 Alpha  occ. eigenvalues --   -0.30855  -0.30584  -0.30291  -0.29726  -0.23475
 Alpha  occ. eigenvalues --   -0.20707
 Alpha virt. eigenvalues --   -0.07926  -0.01595   0.00591   0.02491   0.02634
 Alpha virt. eigenvalues --    0.02865   0.05408   0.05956   0.06592   0.06687
 Alpha virt. eigenvalues --    0.07645   0.08128   0.08864   0.09135   0.09301

 Mulliken charges:
               1
     1  Mg   0.834807
     2  C   -0.076636
     3  C   -0.079599
     4  C   -0.035633
     5  C   -0.082315
     6  N   -0.261247
     7  C   -0.066613
     8  C    0.005539
     9  C   -0.045585
    10  C    0.037526
    11  C    0.053020
    12  C    0.076275
    13  C    0.069224
    14  C    0.117023
    15  O   -0.220126
    16  O   -0.307934
    17  N   -0.342779
    18  C    0.131178
    19  C   -0.129878
    20  C    0.006426
    21  C    0.089615
    22  C    0.106518
    23  C   -0.052052
    24  O   -0.203683
    25  C    0.050078
    26  N   -0.246925
    27  C    0.011904
    28  C   -0.019622
    29  C    0.018406
    30  C    0.002263
    31  C    0.039576
    32  C    0.011890
    33  C   -0.015368
    34  N   -0.344399
    35  C    0.131936
    36  C   -0.208731
    37  C   -0.010773
    38  C    0.162034
    39  C    0.130711
    40  C    0.078303
    41  O   -0.158291
    42  C   -0.010012
    43  C    0.165509
    44  O   -0.217468
    45  O   -0.328208
    46  C    0.178592
    47  C    0.280556
    48  C   -0.141924
    49  C   -0.173942
    50  C    0.090337
    51  C    0.061162
    52  C   -0.003245
    53  C    0.068306
    54  C   -0.143548
    55  C    0.042350
    56  C    0.052751
    57  C   -0.029295
    58  C    0.059154
    59  C   -0.152220
    60  C    0.053242
    61  C    0.091257
    62  C    0.012723
    63  C   -0.003972
    64  C   -0.106757
    65  C    0.052970
    66  C    0.013985
    67  H   -0.049509
    68  H   -0.013104
    69  H   -0.014467
    70  H    0.054895
    71  H    0.016456
    72  H    0.019455
    73  H    0.007962
    74  H    0.039060
    75  H   -0.004694
    76  H    0.012018
    77  H    0.011059
    78  H    0.030705
    79  H    0.021618
    80  H    0.019435
    81  H    0.019938
    82  H    0.031527
    83  H    0.044007
    84  H    0.018337
    85  H    0.013733
    86  H    0.013816
    87  H    0.010785
    88  H    0.020507
    89  H    0.023478
    90  H    0.008920
    91  H    0.008250
    92  H    0.013407
    93  H    0.008721
    94  H    0.025472
    95  H    0.026149
    96  H    0.038538
    97  H    0.036104
    98  H    0.036754
    99  H    0.036989
   100  H    0.045447
   101  H    0.027494
   102  H    0.014244
   103  H    0.039420
   104  H   -0.002250
   105  H    0.042548
   106  H    0.014820
   107  H    0.027154
   108  H    0.003061
   109  H    0.003812
   110  H    0.002133
   111  H    0.011924
   112  H   -0.000820
   113  H   -0.009100
   114  H   -0.003068
   115  H    0.005956
   116  H    0.013947
   117  H    0.016557
   118  H   -0.004192
   119  H   -0.005959
   120  H    0.002529
   121  H    0.004518
   122  H   -0.005206
   123  H    0.005698
   124  H    0.004172
   125  H   -0.024790
   126  H    0.003099
   127  H    0.011792
   128  H    0.002224
   129  H    0.004001
   130  H   -0.002820
   131  H   -0.004883
   132  H   -0.005347
   133  H   -0.015289
   134  H    0.001326
   135  H    0.015413
   136  H   -0.003152
   137  H    0.009246
   138  H   -0.000881
   139  H   -0.001330
   140  H    0.001863
 Sum of Mulliken charges =  -0.00000

 Dipole moment (field-independent basis, Debye):
    X=              4.8883    Y=              1.0198    Z=             -4.8417  Tot=              6.9554
 Quadrupole moment (field-independent basis, Debye-Ang):
   XX=           -372.4707   YY=           -433.2736   ZZ=           -407.9776
   XY=            -19.8380   XZ=              8.5143   YZ=             10.5139

 Normal termination of Gaussian 16 at Tue May  3 22:32:47 2022.
