 Gaussian 16, Revision A.03,
 Gaussian 16:  ES64L-G16RevA.03 25-Dec-2016

 ---------------------------------
 #p PBE1PBE/Def2SVP td=(nstates=5)
 ---------------------------------

 -----------------------------------------------------
 step_1051_chromophore_9 TDDFT with PBE1PBE functional
 -----------------------------------------------------
 Symbolic Z-matrix:
 Charge =  0 Multiplicity = 1

                         Standard orientation:
 ---------------------------------------------------------------------
 Center     Atomic      Atomic             Coordinates (Angstroms)
 Number     Number       Type             X           Y           Z
 ---------------------------------------------------------------------
      1         12           0       -4.870759    0.873239   -0.285100
      2          6           0       -4.091525   -2.468369    0.231731
      3          6           0       -1.565067    1.431672   -0.628062
      4          6           0       -5.533980    4.151084   -0.244322
      5          6           0       -8.216162    0.147256    0.457525
      6          7           0       -3.078317   -0.425393   -0.221343
      7          6           0       -2.948327   -1.758684   -0.186550
      8          6           0       -1.457318   -2.246843   -0.441341
      9          6           0       -0.734937   -0.926989   -0.509501
     10          6           0       -1.858595    0.103235   -0.433593
     11          6           0        0.365636   -0.913277    0.605536
     12          6           0       -1.378660   -3.161373   -1.706851
     13          6           0       -0.279636   -4.247482   -1.645052
     14          6           0        0.901224   -4.141156   -0.582501
     15          8           0        0.835313   -4.536064    0.536532
     16          8           0        1.983710   -3.551209   -1.066661
     17          7           0       -3.666401    2.596314   -0.335019
     18          6           0       -2.340932    2.627535   -0.573517
     19          6           0       -1.861089    4.028101   -0.694580
     20          6           0       -3.068356    4.851234   -0.573597
     21          6           0       -4.152657    3.869597   -0.355621
     22          6           0       -0.367070    4.432746   -0.812214
     23          6           0       -3.150069    6.307872   -0.683256
     24          8           0       -4.111004    6.939206   -0.298005
     25          6           0       -1.916060    7.147692   -1.077561
     26          7           0       -6.663634    2.149278    0.038414
     27          6           0       -6.721510    3.415911   -0.153829
     28          6           0       -8.140021    3.937410    0.004810
     29          6           0       -8.926157    2.605392    0.299050
     30          6           0       -7.896281    1.538883    0.226170
     31          6           0       -8.266710    4.969736    1.169190
     32          6           0      -10.152686    2.370979   -0.546113
     33          6           0      -10.027107    1.826140   -2.068597
     34          7           0       -5.969295   -0.786503    0.053237
     35          6           0       -7.291201   -0.942157    0.338014
     36          6           0       -7.564628   -2.335961    0.764093
     37          6           0       -6.359617   -2.957722    0.601283
     38          6           0       -5.403690   -1.973913    0.260611
     39          6           0       -8.845194   -2.962572    1.234787
     40          6           0       -5.735121   -4.260161    0.829784
     41          8           0       -6.166184   -5.301492    1.290631
     42          6           0       -4.202490   -4.019560    0.485825
     43          6           0       -3.474712   -4.469754    1.643526
     44          8           0       -3.531141   -4.069707    2.788227
     45          8           0       -2.578499   -5.410640    1.263209
     46          6           0       -1.829190   -6.017936    2.399987
     47          6           0        3.096960   -3.371413   -0.074031
     48          6           0        4.294147   -2.627717   -0.551955
     49          6           0        5.375419   -3.109635   -1.250907
     50          6           0        5.547590   -4.505100   -1.756833
     51          6           0        6.624932   -2.160909   -1.250966
     52          6           0        6.846672   -1.517698   -2.663638
     53          6           0        8.260162   -1.669116   -3.314467
     54          6           0        8.961827   -0.309813   -3.645952
     55          6           0        9.320898   -0.304588   -5.153920
     56          6           0       10.144417    0.151662   -2.747815
     57          6           0        9.651540    1.087056   -1.632427
     58          6           0       10.498685    1.106091   -0.362811
     59          6           0       10.721493    2.626793    0.100348
     60          6           0       11.950846    3.273796   -0.597235
     61          6           0       11.013011    2.755678    1.601462
     62          6           0        9.760551    2.390161    2.386503
     63          6           0        9.844805    1.126097    3.356526
     64          6           0        9.989093    1.320750    4.919341
     65          6           0        9.062159    2.335051    5.574380
     66          6           0       11.480343    1.842657    5.101351
     67          1           0       -0.501045    1.536079   -0.847618
     68          1           0       -5.672844    5.221087   -0.416483
     69          1           0       -9.215229    0.023418    0.880407
     70          1           0       -1.372922   -2.863181    0.454543
     71          1           0       -0.209726   -0.690073   -1.435173
     72          1           0        0.230453   -0.049385    1.257230
     73          1           0        1.328342   -0.804722    0.105231
     74          1           0        0.388002   -1.848723    1.163438
     75          1           0       -0.985415   -2.689123   -2.606361
     76          1           0       -2.344047   -3.403614   -2.152864
     77          1           0        0.272543   -4.290517   -2.582959
     78          1           0       -0.752756   -5.227208   -1.576208
     79          1           0       -0.135674    4.645985   -1.856058
     80          1           0        0.465209    3.769665   -0.577410
     81          1           0       -0.205757    5.325216   -0.206735
     82          1           0       -1.454150    6.875719   -2.027325
     83          1           0       -1.339553    7.066099   -0.155899
     84          1           0       -2.198459    8.192573   -1.202388
     85          1           0       -8.548285    4.520727   -0.819542
     86          1           0       -9.244984    2.532773    1.338927
     87          1           0       -9.131418    4.779600    1.804384
     88          1           0       -8.352683    6.014101    0.868576
     89          1           0       -7.382508    4.901773    1.803861
     90          1           0      -10.652017    3.328145   -0.695106
     91          1           0      -10.810690    1.663180   -0.042887
     92          1           0       -8.963636    1.709355   -2.277841
     93          1           0      -10.333973    2.571988   -2.800493
     94          1           0      -10.567446    0.904317   -2.285078
     95          1           0       -9.252702   -2.314254    2.011445
     96          1           0       -8.553756   -3.924571    1.656511
     97          1           0       -9.509855   -3.105623    0.383225
     98          1           0       -3.907145   -4.610599   -0.380524
     99          1           0       -2.434021   -6.108820    3.302492
    100          1           0       -0.935701   -5.494214    2.739618
    101          1           0       -1.594716   -7.040775    2.104436
    102          1           0        3.518293   -4.365659    0.070230
    103          1           0        2.794652   -2.982767    0.899006
    104          1           0        4.313858   -1.604316   -0.177948
    105          1           0        6.066004   -5.106814   -1.009251
    106          1           0        6.114911   -4.451947   -2.685383
    107          1           0        4.620874   -5.002792   -2.044162
    108          1           0        7.540159   -2.689711   -0.984635
    109          1           0        6.437454   -1.436612   -0.458490
    110          1           0        6.697655   -0.444251   -2.548155
    111          1           0        6.029557   -1.896959   -3.277921
    112          1           0        8.105384   -2.275961   -4.207296
    113          1           0        8.931117   -2.205557   -2.644082
    114          1           0        8.223293    0.453852   -3.400732
    115          1           0        9.501595    0.707864   -5.513990
    116          1           0        8.494485   -0.731329   -5.723233
    117          1           0       10.259843   -0.857883   -5.180019
    118          1           0       10.883306    0.729965   -3.302639
    119          1           0       10.647709   -0.714261   -2.317363
    120          1           0        8.623214    0.922216   -1.310232
    121          1           0        9.722541    2.043723   -2.148973
    122          1           0       11.431587    0.655733   -0.701185
    123          1           0       10.041199    0.476261    0.400758
    124          1           0        9.841983    3.201786   -0.187237
    125          1           0       12.257869    2.611441   -1.407266
    126          1           0       12.880861    3.259943   -0.029297
    127          1           0       11.894780    4.221023   -1.133654
    128          1           0       11.271174    3.778758    1.874066
    129          1           0       11.793047    2.040767    1.863269
    130          1           0        8.983066    2.045252    1.704852
    131          1           0        9.349650    3.226309    2.952228
    132          1           0       10.617730    0.455187    2.981811
    133          1           0        8.938034    0.537749    3.215189
    134          1           0        9.973735    0.375034    5.461867
    135          1           0        8.666007    2.025903    6.540847
    136          1           0        8.221453    2.449649    4.890290
    137          1           0        9.422589    3.360405    5.654251
    138          1           0       12.077924    1.722440    4.198236
    139          1           0       12.038882    1.301752    5.865306
    140          1           0       11.552230    2.881689    5.420996
 ---------------------------------------------------------------------

 SCF Done:  E(RPBE1PBE) =  -3005.34998154     A.U. after   15 cycles

 Excitation energies and oscillator strengths:

 Excited State   1:      Singlet-A      1.9087 eV  649.56 nm  f=0.3713  <S**2>=0.000
     245 -> 248        0.18802
     246 -> 247        0.68631
 This state for optimization and/or second-order correction.
 Total Energy, E(TD-HF/TD-DFT) =  -3005.27983677
 Copying the excited state density for this state as the 1-particle RhoCI density.

 Excited State   2:      Singlet-A      2.2593 eV  548.77 nm  f=0.0927  <S**2>=0.000
     245 -> 247        0.64373
     246 -> 248       -0.28115

 Excited State   3:      Singlet-A      3.0489 eV  406.65 nm  f=0.0002  <S**2>=0.000
     243 -> 247       -0.11618
     244 -> 247        0.65745
     244 -> 248        0.11009
     244 -> 249       -0.13246
     244 -> 251       -0.10191

 Excited State   4:      Singlet-A      3.2583 eV  380.51 nm  f=0.0183  <S**2>=0.000
     239 -> 247       -0.10514
     242 -> 247        0.63990
     242 -> 249        0.18724
     246 -> 248       -0.12573

 Excited State   5:      Singlet-A      3.2927 eV  376.54 nm  f=0.2313  <S**2>=0.000
     242 -> 247        0.14535
     243 -> 247        0.43220
     245 -> 247        0.17896
     246 -> 248        0.47847
     246 -> 249       -0.10913

 The electronic state is 1-A.
 Alpha  occ. eigenvalues --  -46.92532 -19.26337 -19.24677 -19.19798 -19.19791
 Alpha  occ. eigenvalues --  -19.18292 -19.18240 -14.41263 -14.40973 -14.39449
 Alpha  occ. eigenvalues --  -14.39128 -10.36307 -10.34473 -10.32388 -10.31409
 Alpha  occ. eigenvalues --  -10.29794 -10.28764 -10.28356 -10.27894 -10.27796
 Alpha  occ. eigenvalues --  -10.27706 -10.27647 -10.27536 -10.27194 -10.27162
 Alpha  occ. eigenvalues --  -10.26644 -10.26601 -10.26317 -10.25576 -10.25511
 Alpha  occ. eigenvalues --  -10.25460 -10.25294 -10.25270 -10.25240 -10.25159
 Alpha  occ. eigenvalues --  -10.25112 -10.24958 -10.24781 -10.24692 -10.24407
 Alpha  occ. eigenvalues --  -10.24392 -10.24268 -10.24185 -10.24149 -10.23938
 Alpha  occ. eigenvalues --  -10.23733 -10.23658 -10.23651 -10.23352 -10.23316
 Alpha  occ. eigenvalues --  -10.23249 -10.23105 -10.23097 -10.22954 -10.22938
 Alpha  occ. eigenvalues --  -10.22855 -10.22827 -10.22748 -10.22608 -10.22475
 Alpha  occ. eigenvalues --  -10.22451 -10.22413 -10.22316 -10.21936 -10.21785
 Alpha  occ. eigenvalues --  -10.21242  -3.14605  -1.87455  -1.86954  -1.86854
 Alpha  occ. eigenvalues --   -1.13167  -1.10513  -1.05080  -1.04830  -1.03611
 Alpha  occ. eigenvalues --   -1.01018  -1.00005  -0.99432  -0.98886  -0.97425
 Alpha  occ. eigenvalues --   -0.86396  -0.85072  -0.84380  -0.84029  -0.83644
 Alpha  occ. eigenvalues --   -0.83016  -0.82293  -0.81250  -0.81233  -0.80992
 Alpha  occ. eigenvalues --   -0.80490  -0.79755  -0.78928  -0.77857  -0.77389
 Alpha  occ. eigenvalues --   -0.76770  -0.75656  -0.75193  -0.74694  -0.74502
 Alpha  occ. eigenvalues --   -0.73956  -0.72573  -0.72094  -0.71299  -0.70832
 Alpha  occ. eigenvalues --   -0.70079  -0.69363  -0.69332  -0.69196  -0.68583
 Alpha  occ. eigenvalues --   -0.67785  -0.66853  -0.66015  -0.64921  -0.64508
 Alpha  occ. eigenvalues --   -0.63185  -0.62589  -0.62394  -0.61435  -0.60787
 Alpha  occ. eigenvalues --   -0.59860  -0.59601  -0.59079  -0.58723  -0.58634
 Alpha  occ. eigenvalues --   -0.58374  -0.57681  -0.56074  -0.55837  -0.54781
 Alpha  occ. eigenvalues --   -0.54698  -0.54341  -0.53656  -0.52991  -0.52099
 Alpha  occ. eigenvalues --   -0.51749  -0.51646  -0.50470  -0.50208  -0.49851
 Alpha  occ. eigenvalues --   -0.49557  -0.49437  -0.49108  -0.49033  -0.48643
 Alpha  occ. eigenvalues --   -0.48552  -0.48233  -0.47651  -0.47386  -0.47289
 Alpha  occ. eigenvalues --   -0.47095  -0.46909  -0.46853  -0.46403  -0.46305
 Alpha  occ. eigenvalues --   -0.45925  -0.45809  -0.45785  -0.45552  -0.45187
 Alpha  occ. eigenvalues --   -0.44919  -0.44787  -0.44347  -0.44272  -0.44109
 Alpha  occ. eigenvalues --   -0.43814  -0.43664  -0.43469  -0.43278  -0.43262
 Alpha  occ. eigenvalues --   -0.43072  -0.42915  -0.42724  -0.42489  -0.42453
 Alpha  occ. eigenvalues --   -0.42274  -0.41887  -0.41668  -0.41615  -0.41476
 Alpha  occ. eigenvalues --   -0.41363  -0.40851  -0.40765  -0.40446  -0.40412
 Alpha  occ. eigenvalues --   -0.40279  -0.40164  -0.39873  -0.39719  -0.39633
 Alpha  occ. eigenvalues --   -0.39541  -0.39269  -0.39143  -0.39004  -0.38647
 Alpha  occ. eigenvalues --   -0.38354  -0.38030  -0.37876  -0.37789  -0.37738
 Alpha  occ. eigenvalues --   -0.37489  -0.37343  -0.37242  -0.36947  -0.36718
 Alpha  occ. eigenvalues --   -0.36583  -0.36482  -0.36153  -0.36133  -0.36022
 Alpha  occ. eigenvalues --   -0.35923  -0.35873  -0.35481  -0.35286  -0.34716
 Alpha  occ. eigenvalues --   -0.34671  -0.34532  -0.34265  -0.33934  -0.33578
 Alpha  occ. eigenvalues --   -0.33490  -0.33428  -0.32925  -0.32759  -0.32659
 Alpha  occ. eigenvalues --   -0.32458  -0.32109  -0.32088  -0.31780  -0.31102
 Alpha  occ. eigenvalues --   -0.31069  -0.30548  -0.30468  -0.29795  -0.29560
 Alpha  occ. eigenvalues --   -0.28888  -0.28674  -0.27885  -0.26702  -0.26296
 Alpha  occ. eigenvalues --   -0.26180  -0.25881  -0.25530  -0.24908  -0.20429
 Alpha  occ. eigenvalues --   -0.18351
 Alpha virt. eigenvalues --   -0.10461  -0.05066  -0.03608  -0.01931  -0.01718
 Alpha virt. eigenvalues --    0.00008   0.01047   0.01795   0.01997   0.03074
 Alpha virt. eigenvalues --    0.03951   0.04342   0.05182   0.05568   0.05825

 Mulliken charges:
               1
     1  Mg   0.982540
     2  C   -0.065394
     3  C   -0.072171
     4  C   -0.036910
     5  C   -0.066061
     6  N   -0.364187
     7  C    0.010250
     8  C   -0.087236
     9  C   -0.113089
    10  C    0.074837
    11  C   -0.005279
    12  C    0.035427
    13  C   -0.000009
    14  C    0.180973
    15  O   -0.252961
    16  O   -0.338582
    17  N   -0.459917
    18  C    0.155540
    19  C   -0.150151
    20  C   -0.046519
    21  C    0.121386
    22  C    0.048869
    23  C   -0.003979
    24  O   -0.238662
    25  C   -0.024599
    26  N   -0.354148
    27  C    0.063530
    28  C   -0.102409
    29  C   -0.061975
    30  C    0.042675
    31  C   -0.014656
    32  C   -0.049725
    33  C   -0.085479
    34  N   -0.479602
    35  C    0.152657
    36  C   -0.224722
    37  C   -0.055739
    38  C    0.194382
    39  C    0.071521
    40  C    0.174381
    41  O   -0.204341
    42  C   -0.126832
    43  C    0.264652
    44  O   -0.253495
    45  O   -0.361215
    46  C    0.122853
    47  C    0.231394
    48  C   -0.148318
    49  C   -0.219278
    50  C    0.026158
    51  C    0.001737
    52  C   -0.066020
    53  C    0.017527
    54  C   -0.228421
    55  C   -0.024529
    56  C    0.000057
    57  C   -0.091391
    58  C    0.002452
    59  C   -0.243548
    60  C   -0.002329
    61  C    0.031891
    62  C   -0.045099
    63  C   -0.064767
    64  C   -0.198928
    65  C   -0.006926
    66  C   -0.043826
    67  H   -0.015243
    68  H    0.020016
    69  H    0.015665
    70  H    0.098614
    71  H    0.051648
    72  H    0.047396
    73  H    0.037321
    74  H    0.064836
    75  H    0.027084
    76  H    0.041979
    77  H    0.043013
    78  H    0.062259
    79  H    0.050030
    80  H    0.045252
    81  H    0.047480
    82  H    0.057611
    83  H    0.071092
    84  H    0.046694
    85  H    0.049942
    86  H    0.051818
    87  H    0.038472
    88  H    0.047555
    89  H    0.051849
    90  H    0.042676
    91  H    0.040260
    92  H    0.043716
    93  H    0.036190
    94  H    0.052201
    95  H    0.052875
    96  H    0.066402
    97  H    0.063745
    98  H    0.074088
    99  H    0.058630
   100  H    0.067189
   101  H    0.049591
   102  H    0.042733
   103  H    0.065089
   104  H    0.026522
   105  H    0.069787
   106  H    0.043507
   107  H    0.054358
   108  H    0.035859
   109  H    0.034462
   110  H    0.034437
   111  H    0.045077
   112  H    0.030937
   113  H    0.022884
   114  H    0.036495
   115  H    0.034675
   116  H    0.041995
   117  H    0.045325
   118  H    0.028455
   119  H    0.026030
   120  H    0.036355
   121  H    0.038222
   122  H    0.028072
   123  H    0.039075
   124  H    0.041422
   125  H    0.003552
   126  H    0.030373
   127  H    0.039207
   128  H    0.035748
   129  H    0.036299
   130  H    0.030650
   131  H    0.027738
   132  H    0.027166
   133  H    0.018113
   134  H    0.038283
   135  H    0.043436
   136  H    0.025223
   137  H    0.035135
   138  H    0.027837
   139  H    0.026703
   140  H    0.028553
 Sum of Mulliken charges =  -0.00000

 Dipole moment (field-independent basis, Debye):
    X=              4.9613    Y=              1.0930    Z=             -4.8684  Tot=              7.0363
 Quadrupole moment (field-independent basis, Debye-Ang):
   XX=           -366.7821   YY=           -430.4355   ZZ=           -405.4840
   XY=            -21.0706   XZ=              7.8275   YZ=             10.6439

 Normal termination of Gaussian 16 at Tue May  3 22:53:04 2022.
