 Gaussian 16, Revision A.03,
 Gaussian 16:  ES64L-G16RevA.03 25-Dec-2016

 --------------------------------
 #p wB97XD/Def2SVP td=(nstates=5)
 --------------------------------

 ----------------------------------------------------
 step_1051_chromophore_9 TDDFT with wB97XD functional
 ----------------------------------------------------
 Symbolic Z-matrix:
 Charge =  0 Multiplicity = 1

                         Standard orientation:
 ---------------------------------------------------------------------
 Center     Atomic      Atomic             Coordinates (Angstroms)
 Number     Number       Type             X           Y           Z
 ---------------------------------------------------------------------
      1         12           0       -4.870759    0.873239   -0.285100
      2          6           0       -4.091525   -2.468369    0.231731
      3          6           0       -1.565067    1.431672   -0.628062
      4          6           0       -5.533980    4.151084   -0.244322
      5          6           0       -8.216162    0.147256    0.457525
      6          7           0       -3.078317   -0.425393   -0.221343
      7          6           0       -2.948327   -1.758684   -0.186550
      8          6           0       -1.457318   -2.246843   -0.441341
      9          6           0       -0.734937   -0.926989   -0.509501
     10          6           0       -1.858595    0.103235   -0.433593
     11          6           0        0.365636   -0.913277    0.605536
     12          6           0       -1.378660   -3.161373   -1.706851
     13          6           0       -0.279636   -4.247482   -1.645052
     14          6           0        0.901224   -4.141156   -0.582501
     15          8           0        0.835313   -4.536064    0.536532
     16          8           0        1.983710   -3.551209   -1.066661
     17          7           0       -3.666401    2.596314   -0.335019
     18          6           0       -2.340932    2.627535   -0.573517
     19          6           0       -1.861089    4.028101   -0.694580
     20          6           0       -3.068356    4.851234   -0.573597
     21          6           0       -4.152657    3.869597   -0.355621
     22          6           0       -0.367070    4.432746   -0.812214
     23          6           0       -3.150069    6.307872   -0.683256
     24          8           0       -4.111004    6.939206   -0.298005
     25          6           0       -1.916060    7.147692   -1.077561
     26          7           0       -6.663634    2.149278    0.038414
     27          6           0       -6.721510    3.415911   -0.153829
     28          6           0       -8.140021    3.937410    0.004810
     29          6           0       -8.926157    2.605392    0.299050
     30          6           0       -7.896281    1.538883    0.226170
     31          6           0       -8.266710    4.969736    1.169190
     32          6           0      -10.152686    2.370979   -0.546113
     33          6           0      -10.027107    1.826140   -2.068597
     34          7           0       -5.969295   -0.786503    0.053237
     35          6           0       -7.291201   -0.942157    0.338014
     36          6           0       -7.564628   -2.335961    0.764093
     37          6           0       -6.359617   -2.957722    0.601283
     38          6           0       -5.403690   -1.973913    0.260611
     39          6           0       -8.845194   -2.962572    1.234787
     40          6           0       -5.735121   -4.260161    0.829784
     41          8           0       -6.166184   -5.301492    1.290631
     42          6           0       -4.202490   -4.019560    0.485825
     43          6           0       -3.474712   -4.469754    1.643526
     44          8           0       -3.531141   -4.069707    2.788227
     45          8           0       -2.578499   -5.410640    1.263209
     46          6           0       -1.829190   -6.017936    2.399987
     47          6           0        3.096960   -3.371413   -0.074031
     48          6           0        4.294147   -2.627717   -0.551955
     49          6           0        5.375419   -3.109635   -1.250907
     50          6           0        5.547590   -4.505100   -1.756833
     51          6           0        6.624932   -2.160909   -1.250966
     52          6           0        6.846672   -1.517698   -2.663638
     53          6           0        8.260162   -1.669116   -3.314467
     54          6           0        8.961827   -0.309813   -3.645952
     55          6           0        9.320898   -0.304588   -5.153920
     56          6           0       10.144417    0.151662   -2.747815
     57          6           0        9.651540    1.087056   -1.632427
     58          6           0       10.498685    1.106091   -0.362811
     59          6           0       10.721493    2.626793    0.100348
     60          6           0       11.950846    3.273796   -0.597235
     61          6           0       11.013011    2.755678    1.601462
     62          6           0        9.760551    2.390161    2.386503
     63          6           0        9.844805    1.126097    3.356526
     64          6           0        9.989093    1.320750    4.919341
     65          6           0        9.062159    2.335051    5.574380
     66          6           0       11.480343    1.842657    5.101351
     67          1           0       -0.501045    1.536079   -0.847618
     68          1           0       -5.672844    5.221087   -0.416483
     69          1           0       -9.215229    0.023418    0.880407
     70          1           0       -1.372922   -2.863181    0.454543
     71          1           0       -0.209726   -0.690073   -1.435173
     72          1           0        0.230453   -0.049385    1.257230
     73          1           0        1.328342   -0.804722    0.105231
     74          1           0        0.388002   -1.848723    1.163438
     75          1           0       -0.985415   -2.689123   -2.606361
     76          1           0       -2.344047   -3.403614   -2.152864
     77          1           0        0.272543   -4.290517   -2.582959
     78          1           0       -0.752756   -5.227208   -1.576208
     79          1           0       -0.135674    4.645985   -1.856058
     80          1           0        0.465209    3.769665   -0.577410
     81          1           0       -0.205757    5.325216   -0.206735
     82          1           0       -1.454150    6.875719   -2.027325
     83          1           0       -1.339553    7.066099   -0.155899
     84          1           0       -2.198459    8.192573   -1.202388
     85          1           0       -8.548285    4.520727   -0.819542
     86          1           0       -9.244984    2.532773    1.338927
     87          1           0       -9.131418    4.779600    1.804384
     88          1           0       -8.352683    6.014101    0.868576
     89          1           0       -7.382508    4.901773    1.803861
     90          1           0      -10.652017    3.328145   -0.695106
     91          1           0      -10.810690    1.663180   -0.042887
     92          1           0       -8.963636    1.709355   -2.277841
     93          1           0      -10.333973    2.571988   -2.800493
     94          1           0      -10.567446    0.904317   -2.285078
     95          1           0       -9.252702   -2.314254    2.011445
     96          1           0       -8.553756   -3.924571    1.656511
     97          1           0       -9.509855   -3.105623    0.383225
     98          1           0       -3.907145   -4.610599   -0.380524
     99          1           0       -2.434021   -6.108820    3.302492
    100          1           0       -0.935701   -5.494214    2.739618
    101          1           0       -1.594716   -7.040775    2.104436
    102          1           0        3.518293   -4.365659    0.070230
    103          1           0        2.794652   -2.982767    0.899006
    104          1           0        4.313858   -1.604316   -0.177948
    105          1           0        6.066004   -5.106814   -1.009251
    106          1           0        6.114911   -4.451947   -2.685383
    107          1           0        4.620874   -5.002792   -2.044162
    108          1           0        7.540159   -2.689711   -0.984635
    109          1           0        6.437454   -1.436612   -0.458490
    110          1           0        6.697655   -0.444251   -2.548155
    111          1           0        6.029557   -1.896959   -3.277921
    112          1           0        8.105384   -2.275961   -4.207296
    113          1           0        8.931117   -2.205557   -2.644082
    114          1           0        8.223293    0.453852   -3.400732
    115          1           0        9.501595    0.707864   -5.513990
    116          1           0        8.494485   -0.731329   -5.723233
    117          1           0       10.259843   -0.857883   -5.180019
    118          1           0       10.883306    0.729965   -3.302639
    119          1           0       10.647709   -0.714261   -2.317363
    120          1           0        8.623214    0.922216   -1.310232
    121          1           0        9.722541    2.043723   -2.148973
    122          1           0       11.431587    0.655733   -0.701185
    123          1           0       10.041199    0.476261    0.400758
    124          1           0        9.841983    3.201786   -0.187237
    125          1           0       12.257869    2.611441   -1.407266
    126          1           0       12.880861    3.259943   -0.029297
    127          1           0       11.894780    4.221023   -1.133654
    128          1           0       11.271174    3.778758    1.874066
    129          1           0       11.793047    2.040767    1.863269
    130          1           0        8.983066    2.045252    1.704852
    131          1           0        9.349650    3.226309    2.952228
    132          1           0       10.617730    0.455187    2.981811
    133          1           0        8.938034    0.537749    3.215189
    134          1           0        9.973735    0.375034    5.461867
    135          1           0        8.666007    2.025903    6.540847
    136          1           0        8.221453    2.449649    4.890290
    137          1           0        9.422589    3.360405    5.654251
    138          1           0       12.077924    1.722440    4.198236
    139          1           0       12.038882    1.301752    5.865306
    140          1           0       11.552230    2.881689    5.420996
 ---------------------------------------------------------------------

 SCF Done:  E(RwB97XD) =  -3007.86200848     A.U. after   19 cycles

 Excitation energies and oscillator strengths:

 Excited State   1:      Singlet-A      1.6997 eV  729.46 nm  f=0.3789  <S**2>=0.000
     245 -> 248        0.20329
     246 -> 247        0.67758
     245 <- 248        0.11866
 This state for optimization and/or second-order correction.
 Total Energy, E(TD-HF/TD-DFT) =  -3007.79954714
 Copying the excited state density for this state as the 1-particle RhoCI density.

 Excited State   2:      Singlet-A      2.2079 eV  561.55 nm  f=0.0881  <S**2>=0.000
     245 -> 247        0.62714
     246 -> 248       -0.31598

 Excited State   3:      Singlet-A      3.5015 eV  354.09 nm  f=0.6528  <S**2>=0.000
     244 -> 247        0.25334
     245 -> 247        0.28216
     246 -> 248        0.58091
     245 <- 247       -0.11059

 Excited State   4:      Singlet-A      3.6043 eV  343.99 nm  f=0.1079  <S**2>=0.000
     243 -> 247        0.37746
     243 -> 248        0.14571
     243 -> 249       -0.22916
     243 -> 250        0.14601
     243 -> 251       -0.14784
     244 -> 247        0.33126
     244 -> 248        0.10672
     244 -> 249       -0.15968
     244 -> 250        0.10044
     244 -> 251       -0.10110
     245 -> 247       -0.10303
     246 -> 248       -0.18640

 Excited State   5:      Singlet-A      3.7320 eV  332.22 nm  f=0.0010  <S**2>=0.000
     239 -> 247        0.21846
     239 -> 249        0.18960
     240 -> 247        0.35584
     240 -> 249        0.23938
     240 -> 250        0.10881
     240 -> 251       -0.10189
     241 -> 247        0.33463
     241 -> 249        0.21264

 The electronic state is 1-A.
 Alpha  occ. eigenvalues --  -46.95466 -19.30884 -19.29260 -19.24672 -19.24427
 Alpha  occ. eigenvalues --  -19.23027 -19.23026 -14.46263 -14.46118 -14.44435
 Alpha  occ. eigenvalues --  -14.44074 -10.43058 -10.41326 -10.39295 -10.38225
 Alpha  occ. eigenvalues --  -10.36327 -10.35107 -10.34601 -10.34241 -10.34061
 Alpha  occ. eigenvalues --  -10.33980 -10.33890 -10.33822 -10.33714 -10.33565
 Alpha  occ. eigenvalues --  -10.33009 -10.32963 -10.32588 -10.31854 -10.31804
 Alpha  occ. eigenvalues --  -10.31765 -10.31709 -10.31692 -10.31592 -10.31586
 Alpha  occ. eigenvalues --  -10.31513 -10.31308 -10.31174 -10.30976 -10.30849
 Alpha  occ. eigenvalues --  -10.30748 -10.30543 -10.30538 -10.30453 -10.30217
 Alpha  occ. eigenvalues --  -10.29998 -10.29991 -10.29966 -10.29847 -10.29701
 Alpha  occ. eigenvalues --  -10.29638 -10.29557 -10.29518 -10.29468 -10.29314
 Alpha  occ. eigenvalues --  -10.29256 -10.29174 -10.29082 -10.28980 -10.28851
 Alpha  occ. eigenvalues --  -10.28843 -10.28830 -10.28702 -10.28353 -10.28217
 Alpha  occ. eigenvalues --  -10.27658  -3.21402  -1.95001  -1.94499  -1.94394
 Alpha  occ. eigenvalues --   -1.20498  -1.17928  -1.12621  -1.12284  -1.10907
 Alpha  occ. eigenvalues --   -1.08409  -1.07376  -1.06789  -1.06244  -1.04732
 Alpha  occ. eigenvalues --   -0.94039  -0.92741  -0.92047  -0.91636  -0.91206
 Alpha  occ. eigenvalues --   -0.90684  -0.89893  -0.88920  -0.88855  -0.88609
 Alpha  occ. eigenvalues --   -0.88174  -0.87394  -0.86569  -0.85494  -0.85034
 Alpha  occ. eigenvalues --   -0.84382  -0.83308  -0.82853  -0.82383  -0.82174
 Alpha  occ. eigenvalues --   -0.81599  -0.80241  -0.79744  -0.78914  -0.78494
 Alpha  occ. eigenvalues --   -0.77726  -0.77052  -0.77003  -0.76773  -0.76273
 Alpha  occ. eigenvalues --   -0.75377  -0.74400  -0.73543  -0.72517  -0.72071
 Alpha  occ. eigenvalues --   -0.70758  -0.70227  -0.69928  -0.69056  -0.68275
 Alpha  occ. eigenvalues --   -0.67503  -0.67015  -0.66544  -0.66411  -0.66079
 Alpha  occ. eigenvalues --   -0.65795  -0.65318  -0.63681  -0.63270  -0.62211
 Alpha  occ. eigenvalues --   -0.62185  -0.61799  -0.61055  -0.60357  -0.59658
 Alpha  occ. eigenvalues --   -0.59225  -0.59056  -0.57844  -0.57587  -0.57281
 Alpha  occ. eigenvalues --   -0.56963  -0.56907  -0.56508  -0.56450  -0.56091
 Alpha  occ. eigenvalues --   -0.55973  -0.55675  -0.55054  -0.54905  -0.54674
 Alpha  occ. eigenvalues --   -0.54418  -0.54285  -0.54135  -0.53788  -0.53696
 Alpha  occ. eigenvalues --   -0.53374  -0.53241  -0.53168  -0.52896  -0.52535
 Alpha  occ. eigenvalues --   -0.52245  -0.52097  -0.51720  -0.51564  -0.51401
 Alpha  occ. eigenvalues --   -0.51151  -0.50999  -0.50783  -0.50568  -0.50539
 Alpha  occ. eigenvalues --   -0.50372  -0.50164  -0.50002  -0.49749  -0.49707
 Alpha  occ. eigenvalues --   -0.49554  -0.49134  -0.48931  -0.48837  -0.48775
 Alpha  occ. eigenvalues --   -0.48551  -0.48098  -0.47982  -0.47616  -0.47590
 Alpha  occ. eigenvalues --   -0.47460  -0.47321  -0.47093  -0.46920  -0.46837
 Alpha  occ. eigenvalues --   -0.46746  -0.46505  -0.46275  -0.46195  -0.45775
 Alpha  occ. eigenvalues --   -0.45450  -0.45114  -0.44990  -0.44949  -0.44877
 Alpha  occ. eigenvalues --   -0.44618  -0.44455  -0.44351  -0.44081  -0.43818
 Alpha  occ. eigenvalues --   -0.43720  -0.43521  -0.43236  -0.43233  -0.43163
 Alpha  occ. eigenvalues --   -0.43028  -0.42917  -0.42527  -0.42442  -0.41779
 Alpha  occ. eigenvalues --   -0.41666  -0.41498  -0.41320  -0.41033  -0.40543
 Alpha  occ. eigenvalues --   -0.40489  -0.40473  -0.39889  -0.39807  -0.39607
 Alpha  occ. eigenvalues --   -0.39458  -0.39127  -0.39108  -0.38755  -0.38014
 Alpha  occ. eigenvalues --   -0.38002  -0.37657  -0.37385  -0.36708  -0.36361
 Alpha  occ. eigenvalues --   -0.35941  -0.35453  -0.34992  -0.33408  -0.32945
 Alpha  occ. eigenvalues --   -0.32921  -0.32776  -0.32276  -0.31857  -0.25392
 Alpha  occ. eigenvalues --   -0.22514
 Alpha virt. eigenvalues --   -0.06270   0.00322   0.02655   0.04689   0.04835
 Alpha virt. eigenvalues --    0.05873   0.07874   0.08473   0.08789   0.09326
 Alpha virt. eigenvalues --    0.10729   0.11056   0.12051   0.12315   0.12628

 Mulliken charges:
               1
     1  Mg   0.973659
     2  C   -0.078923
     3  C   -0.089297
     4  C   -0.046404
     5  C   -0.085967
     6  N   -0.332180
     7  C   -0.021666
     8  C   -0.044838
     9  C   -0.093614
    10  C    0.061544
    11  C    0.008369
    12  C    0.038237
    13  C    0.016434
    14  C    0.164610
    15  O   -0.248951
    16  O   -0.335570
    17  N   -0.426027
    18  C    0.147750
    19  C   -0.145906
    20  C   -0.038515
    21  C    0.111911
    22  C    0.061208
    23  C   -0.006942
    24  O   -0.234467
    25  C   -0.011547
    26  N   -0.316635
    27  C    0.040708
    28  C   -0.077562
    29  C   -0.034154
    30  C    0.026654
    31  C   -0.004942
    32  C   -0.036530
    33  C   -0.067847
    34  N   -0.440105
    35  C    0.144422
    36  C   -0.219707
    37  C   -0.053665
    38  C    0.187326
    39  C    0.084896
    40  C    0.154059
    41  O   -0.193822
    42  C   -0.084970
    43  C    0.237974
    44  O   -0.248051
    45  O   -0.358987
    46  C    0.138229
    47  C    0.246629
    48  C   -0.156590
    49  C   -0.204389
    50  C    0.037821
    51  C    0.018997
    52  C   -0.048295
    53  C    0.027676
    54  C   -0.194713
    55  C   -0.007729
    56  C    0.011617
    57  C   -0.071272
    58  C    0.017374
    59  C   -0.207710
    60  C    0.007423
    61  C    0.047287
    62  C   -0.029666
    63  C   -0.045118
    64  C   -0.172618
    65  C    0.002726
    66  C   -0.029855
    67  H   -0.024141
    68  H    0.013540
    69  H    0.011638
    70  H    0.077787
    71  H    0.042598
    72  H    0.042601
    73  H    0.030111
    74  H    0.056718
    75  H    0.019947
    76  H    0.036217
    77  H    0.037372
    78  H    0.057472
    79  H    0.044527
    80  H    0.042380
    81  H    0.040492
    82  H    0.053254
    83  H    0.064575
    84  H    0.045165
    85  H    0.041476
    86  H    0.040835
    87  H    0.032180
    88  H    0.042863
    89  H    0.044811
    90  H    0.034090
    91  H    0.032710
    92  H    0.033035
    93  H    0.030989
    94  H    0.047403
    95  H    0.047869
    96  H    0.062115
    97  H    0.059608
    98  H    0.067242
    99  H    0.053883
   100  H    0.064698
   101  H    0.046202
   102  H    0.035979
   103  H    0.060991
   104  H    0.022315
   105  H    0.065011
   106  H    0.036961
   107  H    0.049831
   108  H    0.027057
   109  H    0.027552
   110  H    0.024541
   111  H    0.036310
   112  H    0.023453
   113  H    0.012434
   114  H    0.019043
   115  H    0.029018
   116  H    0.035704
   117  H    0.037794
   118  H    0.020271
   119  H    0.016336
   120  H    0.024762
   121  H    0.027023
   122  H    0.016825
   123  H    0.029396
   124  H    0.029326
   125  H   -0.005420
   126  H    0.024480
   127  H    0.035079
   128  H    0.028797
   129  H    0.023223
   130  H    0.018878
   131  H    0.019417
   132  H    0.016048
   133  H    0.010127
   134  H    0.030523
   135  H    0.039463
   136  H    0.017248
   137  H    0.028904
   138  H    0.018032
   139  H    0.021534
   140  H    0.021680
 Sum of Mulliken charges =  -0.00000

 Dipole moment (field-independent basis, Debye):
    X=              4.9579    Y=              1.0383    Z=             -4.9108  Tot=              7.0552
 Quadrupole moment (field-independent basis, Debye-Ang):
   XX=           -366.9706   YY=           -428.9804   ZZ=           -404.9560
   XY=            -19.8434   XZ=              8.0824   YZ=             10.4210

 Normal termination of Gaussian 16 at Tue May  3 23:26:31 2022.
