 Gaussian 16, Revision A.03,
 Gaussian 16:  ES64L-G16RevA.03 25-Dec-2016

 --------------------
 #p ZINDO=(nstates=5)
 --------------------

 -----------------------------
 step_1051_chromophore_9 ZINDO
 -----------------------------
 Symbolic Z-matrix:
 Charge =  0 Multiplicity = 1

                         Standard orientation:
 ---------------------------------------------------------------------
 Center     Atomic      Atomic             Coordinates (Angstroms)
 Number     Number       Type             X           Y           Z
 ---------------------------------------------------------------------
      1         12           0       -4.870759    0.873239   -0.285100
      2          6           0       -4.091525   -2.468369    0.231731
      3          6           0       -1.565067    1.431672   -0.628062
      4          6           0       -5.533980    4.151084   -0.244322
      5          6           0       -8.216162    0.147256    0.457525
      6          7           0       -3.078317   -0.425393   -0.221343
      7          6           0       -2.948327   -1.758684   -0.186550
      8          6           0       -1.457318   -2.246843   -0.441341
      9          6           0       -0.734937   -0.926989   -0.509501
     10          6           0       -1.858595    0.103235   -0.433593
     11          6           0        0.365636   -0.913277    0.605536
     12          6           0       -1.378660   -3.161373   -1.706851
     13          6           0       -0.279636   -4.247482   -1.645052
     14          6           0        0.901224   -4.141156   -0.582501
     15          8           0        0.835313   -4.536064    0.536532
     16          8           0        1.983710   -3.551209   -1.066661
     17          7           0       -3.666401    2.596314   -0.335019
     18          6           0       -2.340932    2.627535   -0.573517
     19          6           0       -1.861089    4.028101   -0.694580
     20          6           0       -3.068356    4.851234   -0.573597
     21          6           0       -4.152657    3.869597   -0.355621
     22          6           0       -0.367070    4.432746   -0.812214
     23          6           0       -3.150069    6.307872   -0.683256
     24          8           0       -4.111004    6.939206   -0.298005
     25          6           0       -1.916060    7.147692   -1.077561
     26          7           0       -6.663634    2.149278    0.038414
     27          6           0       -6.721510    3.415911   -0.153829
     28          6           0       -8.140021    3.937410    0.004810
     29          6           0       -8.926157    2.605392    0.299050
     30          6           0       -7.896281    1.538883    0.226170
     31          6           0       -8.266710    4.969736    1.169190
     32          6           0      -10.152686    2.370979   -0.546113
     33          6           0      -10.027107    1.826140   -2.068597
     34          7           0       -5.969295   -0.786503    0.053237
     35          6           0       -7.291201   -0.942157    0.338014
     36          6           0       -7.564628   -2.335961    0.764093
     37          6           0       -6.359617   -2.957722    0.601283
     38          6           0       -5.403690   -1.973913    0.260611
     39          6           0       -8.845194   -2.962572    1.234787
     40          6           0       -5.735121   -4.260161    0.829784
     41          8           0       -6.166184   -5.301492    1.290631
     42          6           0       -4.202490   -4.019560    0.485825
     43          6           0       -3.474712   -4.469754    1.643526
     44          8           0       -3.531141   -4.069707    2.788227
     45          8           0       -2.578499   -5.410640    1.263209
     46          6           0       -1.829190   -6.017936    2.399987
     47          6           0        3.096960   -3.371413   -0.074031
     48          6           0        4.294147   -2.627717   -0.551955
     49          6           0        5.375419   -3.109635   -1.250907
     50          6           0        5.547590   -4.505100   -1.756833
     51          6           0        6.624932   -2.160909   -1.250966
     52          6           0        6.846672   -1.517698   -2.663638
     53          6           0        8.260162   -1.669116   -3.314467
     54          6           0        8.961827   -0.309813   -3.645952
     55          6           0        9.320898   -0.304588   -5.153920
     56          6           0       10.144417    0.151662   -2.747815
     57          6           0        9.651540    1.087056   -1.632427
     58          6           0       10.498685    1.106091   -0.362811
     59          6           0       10.721493    2.626793    0.100348
     60          6           0       11.950846    3.273796   -0.597235
     61          6           0       11.013011    2.755678    1.601462
     62          6           0        9.760551    2.390161    2.386503
     63          6           0        9.844805    1.126097    3.356526
     64          6           0        9.989093    1.320750    4.919341
     65          6           0        9.062159    2.335051    5.574380
     66          6           0       11.480343    1.842657    5.101351
     67          1           0       -0.501045    1.536079   -0.847618
     68          1           0       -5.672844    5.221087   -0.416483
     69          1           0       -9.215229    0.023418    0.880407
     70          1           0       -1.372922   -2.863181    0.454543
     71          1           0       -0.209726   -0.690073   -1.435173
     72          1           0        0.230453   -0.049385    1.257230
     73          1           0        1.328342   -0.804722    0.105231
     74          1           0        0.388002   -1.848723    1.163438
     75          1           0       -0.985415   -2.689123   -2.606361
     76          1           0       -2.344047   -3.403614   -2.152864
     77          1           0        0.272543   -4.290517   -2.582959
     78          1           0       -0.752756   -5.227208   -1.576208
     79          1           0       -0.135674    4.645985   -1.856058
     80          1           0        0.465209    3.769665   -0.577410
     81          1           0       -0.205757    5.325216   -0.206735
     82          1           0       -1.454150    6.875719   -2.027325
     83          1           0       -1.339553    7.066099   -0.155899
     84          1           0       -2.198459    8.192573   -1.202388
     85          1           0       -8.548285    4.520727   -0.819542
     86          1           0       -9.244984    2.532773    1.338927
     87          1           0       -9.131418    4.779600    1.804384
     88          1           0       -8.352683    6.014101    0.868576
     89          1           0       -7.382508    4.901773    1.803861
     90          1           0      -10.652017    3.328145   -0.695106
     91          1           0      -10.810690    1.663180   -0.042887
     92          1           0       -8.963636    1.709355   -2.277841
     93          1           0      -10.333973    2.571988   -2.800493
     94          1           0      -10.567446    0.904317   -2.285078
     95          1           0       -9.252702   -2.314254    2.011445
     96          1           0       -8.553756   -3.924571    1.656511
     97          1           0       -9.509855   -3.105623    0.383225
     98          1           0       -3.907145   -4.610599   -0.380524
     99          1           0       -2.434021   -6.108820    3.302492
    100          1           0       -0.935701   -5.494214    2.739618
    101          1           0       -1.594716   -7.040775    2.104436
    102          1           0        3.518293   -4.365659    0.070230
    103          1           0        2.794652   -2.982767    0.899006
    104          1           0        4.313858   -1.604316   -0.177948
    105          1           0        6.066004   -5.106814   -1.009251
    106          1           0        6.114911   -4.451947   -2.685383
    107          1           0        4.620874   -5.002792   -2.044162
    108          1           0        7.540159   -2.689711   -0.984635
    109          1           0        6.437454   -1.436612   -0.458490
    110          1           0        6.697655   -0.444251   -2.548155
    111          1           0        6.029557   -1.896959   -3.277921
    112          1           0        8.105384   -2.275961   -4.207296
    113          1           0        8.931117   -2.205557   -2.644082
    114          1           0        8.223293    0.453852   -3.400732
    115          1           0        9.501595    0.707864   -5.513990
    116          1           0        8.494485   -0.731329   -5.723233
    117          1           0       10.259843   -0.857883   -5.180019
    118          1           0       10.883306    0.729965   -3.302639
    119          1           0       10.647709   -0.714261   -2.317363
    120          1           0        8.623214    0.922216   -1.310232
    121          1           0        9.722541    2.043723   -2.148973
    122          1           0       11.431587    0.655733   -0.701185
    123          1           0       10.041199    0.476261    0.400758
    124          1           0        9.841983    3.201786   -0.187237
    125          1           0       12.257869    2.611441   -1.407266
    126          1           0       12.880861    3.259943   -0.029297
    127          1           0       11.894780    4.221023   -1.133654
    128          1           0       11.271174    3.778758    1.874066
    129          1           0       11.793047    2.040767    1.863269
    130          1           0        8.983066    2.045252    1.704852
    131          1           0        9.349650    3.226309    2.952228
    132          1           0       10.617730    0.455187    2.981811
    133          1           0        8.938034    0.537749    3.215189
    134          1           0        9.973735    0.375034    5.461867
    135          1           0        8.666007    2.025903    6.540847
    136          1           0        8.221453    2.449649    4.890290
    137          1           0        9.422589    3.360405    5.654251
    138          1           0       12.077924    1.722440    4.198236
    139          1           0       12.038882    1.301752    5.865306
    140          1           0       11.552230    2.881689    5.420996
 ---------------------------------------------------------------------

 SCF Done:  E(RZINDO/S) =  -474.363556417     A.U. after   20 cycles

 Excitation energies and oscillator strengths:

 Excited State   1:      Singlet-A      1.2790 eV  969.39 nm  f=0.5884  <S**2>=0.000
     175 ->178         0.21015
     176 ->177         0.65827
 This state for optimization and/or second-order correction.
 Total Energy, E(CIS/TDA) =  -474.316554484
 Copying the excited state density for this state as the 1-particle RhoCI density.

 Excited State   2:      Singlet-A      1.9147 eV  647.54 nm  f=0.0237  <S**2>=0.000
     175 ->177         0.53163
     176 ->178        -0.44564

 Excited State   3:      Singlet-A      2.9400 eV  421.71 nm  f=0.0326  <S**2>=0.000
     169 ->179        -0.10138
     169 ->180        -0.11738
     170 ->177         0.27041
     170 ->178         0.11988
     170 ->179        -0.27527
     170 ->180        -0.34355
     170 ->186        -0.16424
     170 ->188        -0.18055
     171 ->180         0.10351
     176 ->179        -0.11706

 Excited State   4:      Singlet-A      3.0119 eV  411.64 nm  f=0.3507  <S**2>=0.000
     168 ->177         0.27533
     168 ->179         0.37412
     168 ->180        -0.24908
     168 ->186         0.18278
     175 ->177        -0.21379
     176 ->178        -0.26540

 Excited State   5:      Singlet-A      3.0354 eV  408.46 nm  f=0.6518  <S**2>=0.000
     168 ->177        -0.12783
     168 ->179        -0.16690
     168 ->180         0.12686
     175 ->177        -0.28780
     176 ->178        -0.34978
     176 ->179         0.37648
     176 ->180         0.12338

 The electronic state is 1-A.
 Alpha  occ. eigenvalues --   -1.86107  -1.82402  -1.80648  -1.75396  -1.73996
 Alpha  occ. eigenvalues --   -1.71447  -1.65634  -1.60353  -1.59589  -1.58402
 Alpha  occ. eigenvalues --   -1.54116  -1.51199  -1.48127  -1.47135  -1.46390
 Alpha  occ. eigenvalues --   -1.44606  -1.42724  -1.39047  -1.38767  -1.37587
 Alpha  occ. eigenvalues --   -1.35902  -1.34454  -1.32956  -1.31497  -1.28137
 Alpha  occ. eigenvalues --   -1.27929  -1.24599  -1.21607  -1.19824  -1.18984
 Alpha  occ. eigenvalues --   -1.18068  -1.15881  -1.15397  -1.14734  -1.12945
 Alpha  occ. eigenvalues --   -1.12774  -1.12087  -1.11389  -1.04624  -1.03959
 Alpha  occ. eigenvalues --   -1.02435  -1.00168  -0.99143  -0.98507  -0.97853
 Alpha  occ. eigenvalues --   -0.96867  -0.95592  -0.95057  -0.93788  -0.91765
 Alpha  occ. eigenvalues --   -0.90307  -0.89356  -0.88920  -0.88053  -0.85605
 Alpha  occ. eigenvalues --   -0.84740  -0.84445  -0.83624  -0.81584  -0.80619
 Alpha  occ. eigenvalues --   -0.79234  -0.78853  -0.78573  -0.77297  -0.76694
 Alpha  occ. eigenvalues --   -0.75847  -0.75393  -0.75087  -0.74338  -0.74029
 Alpha  occ. eigenvalues --   -0.73862  -0.73020  -0.72249  -0.71020  -0.70442
 Alpha  occ. eigenvalues --   -0.69563  -0.69153  -0.68607  -0.68115  -0.67910
 Alpha  occ. eigenvalues --   -0.67577  -0.66992  -0.65979  -0.65893  -0.65559
 Alpha  occ. eigenvalues --   -0.65004  -0.64908  -0.64263  -0.63809  -0.63557
 Alpha  occ. eigenvalues --   -0.63057  -0.63019  -0.62528  -0.61908  -0.61577
 Alpha  occ. eigenvalues --   -0.60987  -0.60378  -0.60347  -0.60071  -0.60010
 Alpha  occ. eigenvalues --   -0.59555  -0.59507  -0.59255  -0.58797  -0.57755
 Alpha  occ. eigenvalues --   -0.57637  -0.57195  -0.56858  -0.56839  -0.56263
 Alpha  occ. eigenvalues --   -0.56153  -0.55769  -0.55283  -0.55011  -0.54531
 Alpha  occ. eigenvalues --   -0.54355  -0.53641  -0.53246  -0.53088  -0.52646
 Alpha  occ. eigenvalues --   -0.52452  -0.51959  -0.51641  -0.51520  -0.51371
 Alpha  occ. eigenvalues --   -0.51098  -0.50844  -0.50264  -0.50122  -0.49924
 Alpha  occ. eigenvalues --   -0.49575  -0.49441  -0.49254  -0.49240  -0.48944
 Alpha  occ. eigenvalues --   -0.48799  -0.48575  -0.47789  -0.47645  -0.47487
 Alpha  occ. eigenvalues --   -0.47400  -0.47288  -0.47180  -0.46850  -0.46762
 Alpha  occ. eigenvalues --   -0.46686  -0.45793  -0.45609  -0.45531  -0.45502
 Alpha  occ. eigenvalues --   -0.45240  -0.44729  -0.44606  -0.44496  -0.44379
 Alpha  occ. eigenvalues --   -0.44048  -0.43827  -0.43429  -0.42562  -0.42523
 Alpha  occ. eigenvalues --   -0.42373  -0.41665  -0.40981  -0.38807  -0.38461
 Alpha  occ. eigenvalues --   -0.37335  -0.37138  -0.35254  -0.34806  -0.34267
 Alpha  occ. eigenvalues --   -0.33749  -0.32616  -0.32315  -0.31911  -0.26170
 Alpha  occ. eigenvalues --   -0.21409
 Alpha virt. eigenvalues --   -0.07915  -0.01966  -0.00237   0.01645   0.02407
 Alpha virt. eigenvalues --    0.02516   0.03288   0.03521   0.03593   0.05047
 Alpha virt. eigenvalues --    0.06654   0.06825   0.07426   0.07705   0.07880

 Mulliken charges:
               1
     1  Mg   0.430486
     2  C   -0.068123
     3  C   -0.086593
     4  C   -0.061834
     5  C   -0.079359
     6  N   -0.281895
     7  C    0.129393
     8  C    0.016098
     9  C    0.011370
    10  C    0.122026
    11  C   -0.054332
    12  C   -0.030166
    13  C    0.003376
    14  C    0.472486
    15  O   -0.514766
    16  O   -0.259972
    17  N   -0.306231
    18  C    0.102582
    19  C   -0.017890
    20  C   -0.047618
    21  C    0.124826
    22  C   -0.044014
    23  C    0.329171
    24  O   -0.529324
    25  C   -0.035588
    26  N   -0.252937
    27  C    0.143207
    28  C    0.008217
    29  C    0.015213
    30  C    0.110418
    31  C   -0.055309
    32  C   -0.029521
    33  C   -0.066123
    34  N   -0.305126
    35  C    0.094954
    36  C    0.041184
    37  C   -0.049366
    38  C    0.136834
    39  C   -0.036416
    40  C    0.333575
    41  O   -0.504240
    42  C    0.045176
    43  C    0.501939
    44  O   -0.529387
    45  O   -0.271391
    46  C    0.071805
    47  C    0.101157
    48  C   -0.097485
    49  C    0.001065
    50  C   -0.033393
    51  C   -0.028130
    52  C   -0.038441
    53  C   -0.032699
    54  C   -0.021386
    55  C   -0.058046
    56  C   -0.031259
    57  C   -0.040437
    58  C   -0.038634
    59  C   -0.004823
    60  C   -0.070722
    61  C   -0.025853
    62  C   -0.041223
    63  C   -0.036227
    64  C   -0.005797
    65  C   -0.051484
    66  C   -0.069225
    67  H    0.011230
    68  H    0.029465
    69  H    0.038229
    70  H    0.057677
    71  H    0.031693
    72  H    0.025672
    73  H    0.015256
    74  H    0.036062
    75  H    0.015183
    76  H    0.037048
    77  H    0.023988
    78  H    0.037365
    79  H    0.024080
    80  H    0.029290
    81  H    0.025887
    82  H    0.033904
    83  H    0.047876
    84  H    0.029998
    85  H    0.037885
    86  H    0.033451
    87  H    0.015066
    88  H    0.023602
    89  H    0.023763
    90  H    0.016020
    91  H    0.018821
    92  H    0.018132
    93  H    0.017969
    94  H    0.027358
    95  H    0.033455
    96  H    0.039811
    97  H    0.037455
    98  H    0.050509
    99  H    0.044544
   100  H    0.051351
   101  H    0.026940
   102  H    0.037709
   103  H    0.055712
   104  H    0.023897
   105  H    0.036818
   106  H    0.021425
   107  H    0.024553
   108  H    0.024324
   109  H    0.024239
   110  H    0.018440
   111  H    0.024259
   112  H    0.020778
   113  H    0.019617
   114  H    0.017107
   115  H    0.014292
   116  H    0.022104
   117  H    0.024133
   118  H    0.021143
   119  H    0.016446
   120  H    0.019803
   121  H    0.016524
   122  H    0.021714
   123  H    0.026158
   124  H    0.026433
   125  H    0.000668
   126  H    0.018990
   127  H    0.025325
   128  H    0.021976
   129  H    0.027077
   130  H    0.014798
   131  H    0.021457
   132  H    0.016111
   133  H    0.002200
   134  H    0.028018
   135  H    0.021239
   136  H    0.007970
   137  H    0.023084
   138  H    0.016214
   139  H    0.009594
   140  H    0.017842
 Sum of Mulliken charges =  -0.00000

 Dipole moment (field-independent basis, Debye):
    X=              4.9691    Y=              0.4308    Z=             -7.6047  Tot=              9.0945
 N-N= 4.372545569512D+03 E-N= 0.000000000000D+00  KE=-9.419586533126D+03
 Leave Link  601 at Tue May  3 23:38:23 2022, MaxMem=  6710886400 cpu:               0.8 elap:               0.0
 (Enter /sw/apps/gaussian-16.0/g16/l9999.exe)
 1\1\GINC-BP1-COMPUTE050\SP\RZINDO CIS\STO-3G\C55H74Mg1N4O6\OF15641\03-
 May-2022\0\\#p ZINDO=(nstates=5)\\step_1051_chromophore_9 ZINDO\\0,1\M
 g,0,35.439,1.548,30.167\C,0,33.078,2.672,32.448\C,0,37.63,1.433,32.725
 \C,0,37.857,0.993,27.924\C,0,33.121,2.079,27.595\N,0,35.298,1.991,32.3
 32\C,0,34.245,2.254,33.118\C,0,34.6,2.224,34.667\C,0,36.09,2.011,34.61
 2\C,0,36.371,1.812,33.125\C,0,36.783,3.208,35.348\C,0,33.758,1.137,35.
 411\C,0,33.429,1.478,36.883\C,0,34.238,2.616,37.648\O,0,33.969,3.773,3

 Normal termination of Gaussian 16 at Tue May  3 23:38:23 2022.
