 Gaussian 16, Revision A.03,
 Gaussian 16:  ES64L-G16RevA.03 25-Dec-2016

 ------------------------------
 #p blyp/Def2SVP td=(nstates=5)
 ------------------------------

 --------------------------------------------------
 step_451_chromophore_12 TDDFT with blyp functional
 --------------------------------------------------
 Symbolic Z-matrix:
 Charge =  0 Multiplicity = 1

                         Standard orientation:
 ---------------------------------------------------------------------
 Center     Atomic      Atomic             Coordinates (Angstroms)
 Number     Number       Type             X           Y           Z
 ---------------------------------------------------------------------
      1         12           0       -3.927262    0.454017   -0.419537
      2          6           0       -3.141516   -2.800997    0.675140
      3          6           0       -0.790197    1.203837   -0.513669
      4          6           0       -4.891743    3.653036   -1.137703
      5          6           0       -7.279035   -0.296685    0.455084
      6          7           0       -2.177453   -0.739620    0.023570
      7          6           0       -2.017117   -2.061670    0.413842
      8          6           0       -0.491813   -2.500532    0.278064
      9          6           0        0.230118   -1.147634    0.368485
     10          6           0       -0.999326   -0.102370    0.010180
     11          6           0        1.004459   -0.921210    1.630170
     12          6           0       -0.234225   -3.271611   -1.102102
     13          6           0        0.771546   -4.387368   -0.948185
     14          6           0        1.942643   -4.341464   -1.917757
     15          8           0        1.820773   -4.260748   -3.192591
     16          8           0        3.131914   -4.617033   -1.298251
     17          7           0       -2.962902    2.161682   -0.989210
     18          6           0       -1.674382    2.278566   -1.016048
     19          6           0       -1.197527    3.622415   -1.401882
     20          6           0       -2.425292    4.342585   -1.689608
     21          6           0       -3.514077    3.415496   -1.292968
     22          6           0        0.264013    4.053436   -1.510180
     23          6           0       -2.586749    5.712802   -2.211001
     24          8           0       -3.609546    6.310765   -2.456768
     25          6           0       -1.360562    6.460461   -2.552072
     26          7           0       -5.833124    1.560859   -0.333297
     27          6           0       -5.929117    2.838873   -0.698770
     28          6           0       -7.354130    3.352947   -0.647104
     29          6           0       -8.207981    2.022048   -0.349907
     30          6           0       -7.078227    1.055390   -0.049846
     31          6           0       -7.630748    4.541856    0.308287
     32          6           0       -9.121181    1.528457   -1.600601
     33          6           0      -10.526749    1.032776   -1.233537
     34          7           0       -5.053376   -1.159506    0.417805
     35          6           0       -6.402194   -1.301738    0.662890
     36          6           0       -6.713224   -2.721181    1.099683
     37          6           0       -5.441912   -3.313799    0.928648
     38          6           0       -4.471390   -2.332579    0.683503
     39          6           0       -8.039811   -3.339575    1.677581
     40          6           0       -4.744804   -4.578202    1.121403
     41          8           0       -5.219268   -5.654271    1.502078
     42          6           0       -3.229734   -4.248248    0.989485
     43          6           0       -2.541184   -4.831450    2.205914
     44          8           0       -2.308915   -4.236745    3.258779
     45          8           0       -2.242494   -6.183097    1.875357
     46          6           0       -1.429792   -6.876973    2.887195
     47          6           0        4.248842   -4.884273   -2.261138
     48          6           0        5.558895   -4.560904   -1.541781
     49          6           0        6.789137   -4.174517   -1.989333
     50          6           0        7.016083   -3.998771   -3.476782
     51          6           0        7.920389   -3.850257   -0.999588
     52          6           0        9.021778   -2.725245   -1.464384
     53          6           0        9.731475   -2.068992   -0.182251
     54          6           0       10.076902   -0.620056   -0.412083
     55          6           0       11.592655   -0.467877   -0.567641
     56          6           0        9.487156    0.313130    0.723286
     57          6           0        9.174647    1.727898    0.224180
     58          6           0        8.890053    2.677238    1.407869
     59          6           0        7.840043    3.752552    1.212560
     60          6           0        8.502782    5.160051    1.139866
     61          6           0        6.672606    3.641836    2.245944
     62          6           0        5.304678    4.120611    1.756618
     63          6           0        4.647515    5.177405    2.633588
     64          6           0        3.221067    5.526175    2.198393
     65          6           0        3.039683    7.052733    1.815496
     66          6           0        2.224701    5.122729    3.266150
     67          1           0        0.268302    1.461494   -0.436269
     68          1           0       -5.164210    4.694397   -1.321381
     69          1           0       -8.346292   -0.521589    0.508285
     70          1           0       -0.359030   -3.100896    1.178289
     71          1           0        0.960019   -1.092545   -0.438676
     72          1           0        0.628175   -0.067371    2.194817
     73          1           0        2.066117   -0.909629    1.381136
     74          1           0        0.999890   -1.802033    2.271452
     75          1           0        0.114030   -2.618907   -1.903332
     76          1           0       -1.171830   -3.738373   -1.403034
     77          1           0        0.233780   -5.328994   -1.064123
     78          1           0        1.068253   -4.397956    0.100428
     79          1           0        0.638713    4.080275   -2.533462
     80          1           0        0.989300    3.376746   -1.056972
     81          1           0        0.506517    5.023093   -1.073953
     82          1           0       -1.534857    7.439359   -2.998140
     83          1           0       -0.886041    5.756954   -3.235382
     84          1           0       -0.765092    6.634229   -1.654741
     85          1           0       -7.421260    3.780031   -1.648328
     86          1           0       -8.739542    2.226161    0.580220
     87          1           0       -6.715308    5.129838    0.238450
     88          1           0       -7.721600    4.300440    1.367566
     89          1           0       -8.533687    5.106882    0.076743
     90          1           0       -8.614805    0.773038   -2.200387
     91          1           0       -9.187006    2.356840   -2.305229
     92          1           0      -11.249850    1.665919   -1.749137
     93          1           0      -10.748652    0.929624   -0.171894
     94          1           0      -10.691667    0.021590   -1.604673
     95          1           0       -8.697015   -2.512608    1.946600
     96          1           0       -7.914905   -4.059107    2.486965
     97          1           0       -8.456056   -4.020959    0.935463
     98          1           0       -2.812567   -4.769250    0.127500
     99          1           0       -1.470125   -7.929666    2.606997
    100          1           0       -1.761550   -6.892466    3.925589
    101          1           0       -0.408681   -6.498260    2.913237
    102          1           0        4.138391   -4.201339   -3.103774
    103          1           0        4.301504   -5.956866   -2.445477
    104          1           0        5.551565   -4.609921   -0.452159
    105          1           0        6.182753   -4.540403   -3.925304
    106          1           0        7.975488   -4.372109   -3.834201
    107          1           0        6.980620   -2.939224   -3.733621
    108          1           0        8.412533   -4.812874   -0.864855
    109          1           0        7.524302   -3.646168   -0.005011
    110          1           0        8.639658   -1.952070   -2.131194
    111          1           0        9.749150   -3.310889   -2.026186
    112          1           0       10.601616   -2.649766    0.125537
    113          1           0        9.065931   -2.197712    0.670830
    114          1           0        9.644409   -0.213095   -1.325726
    115          1           0       11.806453    0.274574   -1.336483
    116          1           0       12.207621   -1.329508   -0.828387
    117          1           0       12.065152   -0.198184    0.376359
    118          1           0       10.108158    0.505672    1.597429
    119          1           0        8.587122   -0.128554    1.152969
    120          1           0        8.447595    1.700848   -0.587545
    121          1           0       10.013155    2.090250   -0.370214
    122          1           0        9.837576    3.210397    1.481727
    123          1           0        8.856198    2.251912    2.411106
    124          1           0        7.481510    3.472951    0.222876
    125          1           0        9.555979    5.183440    0.858429
    126          1           0        8.370624    5.664338    2.096688
    127          1           0        7.909981    5.703488    0.404262
    128          1           0        6.937022    4.112785    3.193035
    129          1           0        6.588134    2.595609    2.539048
    130          1           0        4.626431    3.271449    1.670015
    131          1           0        5.426231    4.500784    0.743220
    132          1           0        5.327318    6.028004    2.693181
    133          1           0        4.687671    4.692960    3.609471
    134          1           0        2.988846    4.911695    1.328599
    135          1           0        4.015123    7.523491    1.690637
    136          1           0        2.730319    7.653386    2.670271
    137          1           0        2.381052    7.270517    0.974982
    138          1           0        1.813098    4.137043    3.052358
    139          1           0        1.282505    5.671545    3.250257
    140          1           0        2.566398    5.085188    4.300260
 ---------------------------------------------------------------------

 SCF Done:  E(RB-LYP) =  -3007.36953216     A.U. after   21 cycles

 Excitation energies and oscillator strengths:

 Excited State   1:      Singlet-A      1.7939 eV  691.13 nm  f=0.2571  <S**2>=0.000
     244 -> 247       -0.21081
     245 -> 248        0.17065
     245 -> 249        0.10020
     246 -> 247        0.64929
     246 <- 247       -0.13826
 This state for optimization and/or second-order correction.
 Total Energy, E(TD-HF/TD-DFT) =  -3007.30360588
 Copying the excited state density for this state as the 1-particle RhoCI density.

 Excited State   2:      Singlet-A      1.8190 eV  681.60 nm  f=0.0420  <S**2>=0.000
     244 -> 247        0.66057
     245 -> 247       -0.11015
     246 -> 247        0.21736

 Excited State   3:      Singlet-A      1.9938 eV  621.84 nm  f=0.0759  <S**2>=0.000
     243 -> 247       -0.21849
     244 -> 247        0.12747
     245 -> 247        0.60730
     246 -> 248       -0.20886
     246 -> 249       -0.10239

 Excited State   4:      Singlet-A      2.0106 eV  616.66 nm  f=0.0065  <S**2>=0.000
     243 -> 247        0.67008
     245 -> 247        0.19644

 Excited State   5:      Singlet-A      2.3294 eV  532.25 nm  f=0.0000  <S**2>=0.000
     242 -> 247        0.70710

 The electronic state is 1-A.
 Alpha  occ. eigenvalues --  -46.27836 -18.83217 -18.82207 -18.77755 -18.76914
 Alpha  occ. eigenvalues --  -18.75691 -18.74991 -14.03184 -14.03137 -14.01617
 Alpha  occ. eigenvalues --  -14.00761 -10.04894 -10.04466  -9.99541  -9.99012
 Alpha  occ. eigenvalues --   -9.98757  -9.97481  -9.96949  -9.96726  -9.96438
 Alpha  occ. eigenvalues --   -9.96375  -9.96221  -9.95794  -9.95596  -9.94913
 Alpha  occ. eigenvalues --   -9.94708  -9.94667  -9.94548  -9.94362  -9.94204
 Alpha  occ. eigenvalues --   -9.93918  -9.93824  -9.93753  -9.93568  -9.93511
 Alpha  occ. eigenvalues --   -9.93420  -9.93368  -9.93288  -9.93209  -9.93035
 Alpha  occ. eigenvalues --   -9.92956  -9.92921  -9.92878  -9.92686  -9.92451
 Alpha  occ. eigenvalues --   -9.92312  -9.92295  -9.92259  -9.92088  -9.92087
 Alpha  occ. eigenvalues --   -9.92012  -9.91738  -9.91646  -9.91626  -9.91338
 Alpha  occ. eigenvalues --   -9.91322  -9.91170  -9.91086  -9.90990  -9.90980
 Alpha  occ. eigenvalues --   -9.90978  -9.90971  -9.90967  -9.90930  -9.90559
 Alpha  occ. eigenvalues --   -9.90554  -2.92386  -1.72820  -1.72246  -1.72116
 Alpha  occ. eigenvalues --   -0.97335  -0.96172  -0.91973  -0.90567  -0.89786
 Alpha  occ. eigenvalues --   -0.87753  -0.86982  -0.86328  -0.85976  -0.85033
 Alpha  occ. eigenvalues --   -0.75995  -0.73476  -0.73310  -0.72828  -0.72281
 Alpha  occ. eigenvalues --   -0.71664  -0.71236  -0.71204  -0.70720  -0.70225
 Alpha  occ. eigenvalues --   -0.69501  -0.69164  -0.68051  -0.67690  -0.67237
 Alpha  occ. eigenvalues --   -0.66682  -0.65736  -0.65414  -0.64988  -0.64404
 Alpha  occ. eigenvalues --   -0.64087  -0.62702  -0.62298  -0.62011  -0.60787
 Alpha  occ. eigenvalues --   -0.60632  -0.60256  -0.59917  -0.59762  -0.59282
 Alpha  occ. eigenvalues --   -0.58130  -0.57675  -0.56368  -0.55693  -0.54743
 Alpha  occ. eigenvalues --   -0.54018  -0.53819  -0.53254  -0.52450  -0.52036
 Alpha  occ. eigenvalues --   -0.51532  -0.51285  -0.50991  -0.50775  -0.50192
 Alpha  occ. eigenvalues --   -0.50161  -0.49632  -0.49097  -0.48069  -0.46635
 Alpha  occ. eigenvalues --   -0.46225  -0.45896  -0.45376  -0.44906  -0.44353
 Alpha  occ. eigenvalues --   -0.44019  -0.43697  -0.43090  -0.42941  -0.42112
 Alpha  occ. eigenvalues --   -0.41665  -0.41424  -0.41292  -0.41018  -0.40915
 Alpha  occ. eigenvalues --   -0.40697  -0.40588  -0.40398  -0.40285  -0.40038
 Alpha  occ. eigenvalues --   -0.39774  -0.39593  -0.39356  -0.39253  -0.39190
 Alpha  occ. eigenvalues --   -0.39144  -0.38584  -0.38519  -0.38288  -0.38188
 Alpha  occ. eigenvalues --   -0.38039  -0.37795  -0.37729  -0.37513  -0.37297
 Alpha  occ. eigenvalues --   -0.37003  -0.36870  -0.36695  -0.36619  -0.36517
 Alpha  occ. eigenvalues --   -0.36313  -0.36141  -0.35742  -0.35665  -0.35541
 Alpha  occ. eigenvalues --   -0.35419  -0.35270  -0.34948  -0.34712  -0.34557
 Alpha  occ. eigenvalues --   -0.34474  -0.34341  -0.34103  -0.33988  -0.33923
 Alpha  occ. eigenvalues --   -0.33828  -0.33334  -0.33246  -0.33187  -0.33155
 Alpha  occ. eigenvalues --   -0.33004  -0.32869  -0.32679  -0.32479  -0.32293
 Alpha  occ. eigenvalues --   -0.32208  -0.32107  -0.31871  -0.31717  -0.31595
 Alpha  occ. eigenvalues --   -0.31454  -0.31197  -0.31122  -0.30887  -0.30782
 Alpha  occ. eigenvalues --   -0.30722  -0.30500  -0.30322  -0.30301  -0.30130
 Alpha  occ. eigenvalues --   -0.30063  -0.29998  -0.29320  -0.29098  -0.29072
 Alpha  occ. eigenvalues --   -0.28791  -0.28374  -0.28231  -0.27961  -0.27854
 Alpha  occ. eigenvalues --   -0.27734  -0.27498  -0.27203  -0.27001  -0.26688
 Alpha  occ. eigenvalues --   -0.26550  -0.26456  -0.26173  -0.26033  -0.25734
 Alpha  occ. eigenvalues --   -0.25300  -0.25130  -0.24709  -0.24235  -0.23963
 Alpha  occ. eigenvalues --   -0.23682  -0.22594  -0.21878  -0.21702  -0.21350
 Alpha  occ. eigenvalues --   -0.20506  -0.19942  -0.18623  -0.17992  -0.17061
 Alpha  occ. eigenvalues --   -0.15660
 Alpha virt. eigenvalues --   -0.11382  -0.07137  -0.06135  -0.04829  -0.04526
 Alpha virt. eigenvalues --   -0.03293  -0.02539  -0.01773  -0.01273   0.00424
 Alpha virt. eigenvalues --    0.00917   0.01251   0.01703   0.02535   0.02652

 Mulliken charges:
               1
     1  Mg   0.701311
     2  C    0.061400
     3  C   -0.060747
     4  C   -0.068019
     5  C   -0.080192
     6  N   -0.239888
     7  C   -0.140056
     8  C    0.027476
     9  C   -0.022582
    10  C    0.041674
    11  C    0.153064
    12  C    0.127998
    13  C    0.141726
    14  C    0.101300
    15  O   -0.252489
    16  O   -0.266005
    17  N   -0.268800
    18  C    0.123727
    19  C   -0.118098
    20  C    0.046582
    21  C    0.081549
    22  C    0.147917
    23  C   -0.110412
    24  O   -0.146088
    25  C    0.141573
    26  N   -0.178576
    27  C    0.025215
    28  C   -0.014075
    29  C    0.084544
    30  C   -0.054586
    31  C    0.121889
    32  C    0.097110
    33  C    0.063485
    34  N   -0.221651
    35  C    0.155085
    36  C   -0.165697
    37  C    0.074127
    38  C    0.068087
    39  C    0.168952
    40  C   -0.050222
    41  O   -0.140381
    42  C    0.045379
    43  C    0.144985
    44  O   -0.179204
    45  O   -0.292179
    46  C    0.223914
    47  C    0.338943
    48  C   -0.144604
    49  C   -0.174339
    50  C    0.141147
    51  C    0.110874
    52  C    0.044500
    53  C    0.132682
    54  C   -0.042031
    55  C    0.096369
    56  C    0.073377
    57  C    0.054145
    58  C    0.121257
    59  C   -0.072102
    60  C    0.110877
    61  C    0.118084
    62  C    0.050756
    63  C    0.088599
    64  C   -0.030428
    65  C    0.094372
    66  C    0.097758
    67  H   -0.068241
    68  H   -0.045392
    69  H   -0.066360
    70  H   -0.022132
    71  H   -0.026573
    72  H    0.004677
    73  H   -0.015406
    74  H   -0.018569
    75  H    0.003817
    76  H   -0.020123
    77  H    0.017085
    78  H   -0.018065
    79  H    0.003869
    80  H   -0.018832
    81  H    0.001604
    82  H   -0.012229
    83  H    0.002517
    84  H    0.002012
    85  H   -0.014542
    86  H   -0.022983
    87  H   -0.008910
    88  H   -0.018621
    89  H    0.000980
    90  H   -0.015237
    91  H   -0.020522
    92  H   -0.002859
    93  H   -0.001071
    94  H   -0.012292
    95  H    0.002580
    96  H    0.008562
    97  H    0.003681
    98  H   -0.003332
    99  H    0.012004
   100  H    0.012938
   101  H    0.004091
   102  H    0.029021
   103  H    0.018096
   104  H   -0.040696
   105  H   -0.008287
   106  H   -0.009942
   107  H    0.006226
   108  H   -0.012995
   109  H   -0.023121
   110  H   -0.009553
   111  H   -0.019811
   112  H   -0.035126
   113  H   -0.039040
   114  H   -0.031177
   115  H   -0.017275
   116  H   -0.022975
   117  H   -0.020838
   118  H   -0.028485
   119  H   -0.031526
   120  H   -0.037463
   121  H   -0.043831
   122  H   -0.057595
   123  H   -0.038225
   124  H   -0.042634
   125  H   -0.006757
   126  H   -0.016386
   127  H   -0.018004
   128  H   -0.038361
   129  H   -0.043834
   130  H   -0.036797
   131  H   -0.032293
   132  H   -0.030851
   133  H   -0.033652
   134  H   -0.032848
   135  H   -0.030681
   136  H   -0.024087
   137  H   -0.004517
   138  H   -0.032818
   139  H   -0.029385
   140  H   -0.009963
 Sum of Mulliken charges =  -0.00000

 Dipole moment (field-independent basis, Debye):
    X=              3.5344    Y=              0.4668    Z=             -0.2107  Tot=              3.5713
 Quadrupole moment (field-independent basis, Debye-Ang):
   XX=           -357.9502   YY=           -427.9081   ZZ=           -419.2117
   XY=            -17.2387   XZ=              2.2745   YZ=              6.6872

 Normal termination of Gaussian 16 at Wed May  4 21:54:56 2022.
