 Gaussian 16, Revision A.03,
 Gaussian 16:  ES64L-G16RevA.03 25-Dec-2016

 -----------------------------------
 #p cam-b3lyp/Def2SVP td=(nstates=5)
 -----------------------------------

 -------------------------------------------------------
 step_451_chromophore_12 TDDFT with cam-b3lyp functional
 -------------------------------------------------------
 Symbolic Z-matrix:
 Charge =  0 Multiplicity = 1

                         Standard orientation:
 ---------------------------------------------------------------------
 Center     Atomic      Atomic             Coordinates (Angstroms)
 Number     Number       Type             X           Y           Z
 ---------------------------------------------------------------------
      1         12           0       -3.927262    0.454017   -0.419537
      2          6           0       -3.141516   -2.800997    0.675140
      3          6           0       -0.790197    1.203837   -0.513669
      4          6           0       -4.891743    3.653036   -1.137703
      5          6           0       -7.279035   -0.296685    0.455084
      6          7           0       -2.177453   -0.739620    0.023570
      7          6           0       -2.017117   -2.061670    0.413842
      8          6           0       -0.491813   -2.500532    0.278064
      9          6           0        0.230118   -1.147634    0.368485
     10          6           0       -0.999326   -0.102370    0.010180
     11          6           0        1.004459   -0.921210    1.630170
     12          6           0       -0.234225   -3.271611   -1.102102
     13          6           0        0.771546   -4.387368   -0.948185
     14          6           0        1.942643   -4.341464   -1.917757
     15          8           0        1.820773   -4.260748   -3.192591
     16          8           0        3.131914   -4.617033   -1.298251
     17          7           0       -2.962902    2.161682   -0.989210
     18          6           0       -1.674382    2.278566   -1.016048
     19          6           0       -1.197527    3.622415   -1.401882
     20          6           0       -2.425292    4.342585   -1.689608
     21          6           0       -3.514077    3.415496   -1.292968
     22          6           0        0.264013    4.053436   -1.510180
     23          6           0       -2.586749    5.712802   -2.211001
     24          8           0       -3.609546    6.310765   -2.456768
     25          6           0       -1.360562    6.460461   -2.552072
     26          7           0       -5.833124    1.560859   -0.333297
     27          6           0       -5.929117    2.838873   -0.698770
     28          6           0       -7.354130    3.352947   -0.647104
     29          6           0       -8.207981    2.022048   -0.349907
     30          6           0       -7.078227    1.055390   -0.049846
     31          6           0       -7.630748    4.541856    0.308287
     32          6           0       -9.121181    1.528457   -1.600601
     33          6           0      -10.526749    1.032776   -1.233537
     34          7           0       -5.053376   -1.159506    0.417805
     35          6           0       -6.402194   -1.301738    0.662890
     36          6           0       -6.713224   -2.721181    1.099683
     37          6           0       -5.441912   -3.313799    0.928648
     38          6           0       -4.471390   -2.332579    0.683503
     39          6           0       -8.039811   -3.339575    1.677581
     40          6           0       -4.744804   -4.578202    1.121403
     41          8           0       -5.219268   -5.654271    1.502078
     42          6           0       -3.229734   -4.248248    0.989485
     43          6           0       -2.541184   -4.831450    2.205914
     44          8           0       -2.308915   -4.236745    3.258779
     45          8           0       -2.242494   -6.183097    1.875357
     46          6           0       -1.429792   -6.876973    2.887195
     47          6           0        4.248842   -4.884273   -2.261138
     48          6           0        5.558895   -4.560904   -1.541781
     49          6           0        6.789137   -4.174517   -1.989333
     50          6           0        7.016083   -3.998771   -3.476782
     51          6           0        7.920389   -3.850257   -0.999588
     52          6           0        9.021778   -2.725245   -1.464384
     53          6           0        9.731475   -2.068992   -0.182251
     54          6           0       10.076902   -0.620056   -0.412083
     55          6           0       11.592655   -0.467877   -0.567641
     56          6           0        9.487156    0.313130    0.723286
     57          6           0        9.174647    1.727898    0.224180
     58          6           0        8.890053    2.677238    1.407869
     59          6           0        7.840043    3.752552    1.212560
     60          6           0        8.502782    5.160051    1.139866
     61          6           0        6.672606    3.641836    2.245944
     62          6           0        5.304678    4.120611    1.756618
     63          6           0        4.647515    5.177405    2.633588
     64          6           0        3.221067    5.526175    2.198393
     65          6           0        3.039683    7.052733    1.815496
     66          6           0        2.224701    5.122729    3.266150
     67          1           0        0.268302    1.461494   -0.436269
     68          1           0       -5.164210    4.694397   -1.321381
     69          1           0       -8.346292   -0.521589    0.508285
     70          1           0       -0.359030   -3.100896    1.178289
     71          1           0        0.960019   -1.092545   -0.438676
     72          1           0        0.628175   -0.067371    2.194817
     73          1           0        2.066117   -0.909629    1.381136
     74          1           0        0.999890   -1.802033    2.271452
     75          1           0        0.114030   -2.618907   -1.903332
     76          1           0       -1.171830   -3.738373   -1.403034
     77          1           0        0.233780   -5.328994   -1.064123
     78          1           0        1.068253   -4.397956    0.100428
     79          1           0        0.638713    4.080275   -2.533462
     80          1           0        0.989300    3.376746   -1.056972
     81          1           0        0.506517    5.023093   -1.073953
     82          1           0       -1.534857    7.439359   -2.998140
     83          1           0       -0.886041    5.756954   -3.235382
     84          1           0       -0.765092    6.634229   -1.654741
     85          1           0       -7.421260    3.780031   -1.648328
     86          1           0       -8.739542    2.226161    0.580220
     87          1           0       -6.715308    5.129838    0.238450
     88          1           0       -7.721600    4.300440    1.367566
     89          1           0       -8.533687    5.106882    0.076743
     90          1           0       -8.614805    0.773038   -2.200387
     91          1           0       -9.187006    2.356840   -2.305229
     92          1           0      -11.249850    1.665919   -1.749137
     93          1           0      -10.748652    0.929624   -0.171894
     94          1           0      -10.691667    0.021590   -1.604673
     95          1           0       -8.697015   -2.512608    1.946600
     96          1           0       -7.914905   -4.059107    2.486965
     97          1           0       -8.456056   -4.020959    0.935463
     98          1           0       -2.812567   -4.769250    0.127500
     99          1           0       -1.470125   -7.929666    2.606997
    100          1           0       -1.761550   -6.892466    3.925589
    101          1           0       -0.408681   -6.498260    2.913237
    102          1           0        4.138391   -4.201339   -3.103774
    103          1           0        4.301504   -5.956866   -2.445477
    104          1           0        5.551565   -4.609921   -0.452159
    105          1           0        6.182753   -4.540403   -3.925304
    106          1           0        7.975488   -4.372109   -3.834201
    107          1           0        6.980620   -2.939224   -3.733621
    108          1           0        8.412533   -4.812874   -0.864855
    109          1           0        7.524302   -3.646168   -0.005011
    110          1           0        8.639658   -1.952070   -2.131194
    111          1           0        9.749150   -3.310889   -2.026186
    112          1           0       10.601616   -2.649766    0.125537
    113          1           0        9.065931   -2.197712    0.670830
    114          1           0        9.644409   -0.213095   -1.325726
    115          1           0       11.806453    0.274574   -1.336483
    116          1           0       12.207621   -1.329508   -0.828387
    117          1           0       12.065152   -0.198184    0.376359
    118          1           0       10.108158    0.505672    1.597429
    119          1           0        8.587122   -0.128554    1.152969
    120          1           0        8.447595    1.700848   -0.587545
    121          1           0       10.013155    2.090250   -0.370214
    122          1           0        9.837576    3.210397    1.481727
    123          1           0        8.856198    2.251912    2.411106
    124          1           0        7.481510    3.472951    0.222876
    125          1           0        9.555979    5.183440    0.858429
    126          1           0        8.370624    5.664338    2.096688
    127          1           0        7.909981    5.703488    0.404262
    128          1           0        6.937022    4.112785    3.193035
    129          1           0        6.588134    2.595609    2.539048
    130          1           0        4.626431    3.271449    1.670015
    131          1           0        5.426231    4.500784    0.743220
    132          1           0        5.327318    6.028004    2.693181
    133          1           0        4.687671    4.692960    3.609471
    134          1           0        2.988846    4.911695    1.328599
    135          1           0        4.015123    7.523491    1.690637
    136          1           0        2.730319    7.653386    2.670271
    137          1           0        2.381052    7.270517    0.974982
    138          1           0        1.813098    4.137043    3.052358
    139          1           0        1.282505    5.671545    3.250257
    140          1           0        2.566398    5.085188    4.300260
 ---------------------------------------------------------------------

 SCF Done:  E(RCAM-B3LYP) =  -3007.14785398     A.U. after   19 cycles

 Excitation energies and oscillator strengths:

 Excited State   1:      Singlet-A      1.7121 eV  724.18 nm  f=0.3953  <S**2>=0.000
     245 -> 248        0.17710
     246 -> 247        0.68330
     245 <- 248        0.10361
 This state for optimization and/or second-order correction.
 Total Energy, E(TD-HF/TD-DFT) =  -3007.08493690
 Copying the excited state density for this state as the 1-particle RhoCI density.

 Excited State   2:      Singlet-A      2.2314 eV  555.65 nm  f=0.0828  <S**2>=0.000
     245 -> 247        0.63225
     246 -> 248       -0.30314

 Excited State   3:      Singlet-A      3.4406 eV  360.36 nm  f=0.1011  <S**2>=0.000
     240 -> 247        0.21591
     240 -> 249        0.19191
     241 -> 249        0.11104
     243 -> 247        0.53626
     243 -> 249        0.11631
     245 -> 247       -0.12067
     246 -> 248       -0.19668

 Excited State   4:      Singlet-A      3.4504 eV  359.33 nm  f=0.6028  <S**2>=0.000
     241 -> 247        0.14786
     243 -> 247        0.19034
     245 -> 247        0.27413
     246 -> 248        0.59219
     245 <- 247       -0.10140

 Excited State   5:      Singlet-A      3.5342 eV  350.81 nm  f=0.0010  <S**2>=0.000
     242 -> 247        0.54198
     242 -> 248        0.22081
     242 -> 249       -0.19227
     242 -> 250        0.22241
     242 -> 251       -0.13319

 The electronic state is 1-A.
 Alpha  occ. eigenvalues --  -46.89375 -19.26152 -19.25221 -19.20997 -19.19867
 Alpha  occ. eigenvalues --  -19.19009 -19.18191 -14.42252 -14.41685 -14.40125
 Alpha  occ. eigenvalues --  -14.39231 -10.40355 -10.40150 -10.34986 -10.34091
 Alpha  occ. eigenvalues --  -10.32910 -10.31510 -10.31451 -10.31117 -10.31047
 Alpha  occ. eigenvalues --  -10.30706 -10.30503 -10.30007 -10.29870 -10.29516
 Alpha  occ. eigenvalues --  -10.29513 -10.28873 -10.28794 -10.28503 -10.28250
 Alpha  occ. eigenvalues --  -10.28210 -10.27903 -10.27818 -10.27623 -10.27539
 Alpha  occ. eigenvalues --  -10.27499 -10.27399 -10.27132 -10.27131 -10.27040
 Alpha  occ. eigenvalues --  -10.26989 -10.26852 -10.26734 -10.26685 -10.26348
 Alpha  occ. eigenvalues --  -10.26170 -10.26018 -10.25991 -10.25871 -10.25669
 Alpha  occ. eigenvalues --  -10.25659 -10.25645 -10.25461 -10.25350 -10.25170
 Alpha  occ. eigenvalues --  -10.25021 -10.25008 -10.24957 -10.24852 -10.24730
 Alpha  occ. eigenvalues --  -10.24623 -10.24619 -10.24596 -10.24515 -10.24200
 Alpha  occ. eigenvalues --  -10.24124  -3.17825  -1.92738  -1.92255  -1.92150
 Alpha  occ. eigenvalues --   -1.15724  -1.14762  -1.10415  -1.09046  -1.07781
 Alpha  occ. eigenvalues --   -1.05557  -1.04678  -1.03986  -1.03624  -1.02516
 Alpha  occ. eigenvalues --   -0.93208  -0.90328  -0.90148  -0.89639  -0.89023
 Alpha  occ. eigenvalues --   -0.88352  -0.87806  -0.87762  -0.87477  -0.86745
 Alpha  occ. eigenvalues --   -0.85930  -0.85693  -0.84313  -0.83912  -0.83385
 Alpha  occ. eigenvalues --   -0.82721  -0.81874  -0.81352  -0.80924  -0.80224
 Alpha  occ. eigenvalues --   -0.79846  -0.78413  -0.77934  -0.77518  -0.76195
 Alpha  occ. eigenvalues --   -0.76054  -0.75623  -0.75173  -0.75075  -0.74541
 Alpha  occ. eigenvalues --   -0.73195  -0.72710  -0.71221  -0.70513  -0.69298
 Alpha  occ. eigenvalues --   -0.68709  -0.68425  -0.67739  -0.66801  -0.66140
 Alpha  occ. eigenvalues --   -0.65682  -0.65493  -0.64967  -0.64888  -0.64236
 Alpha  occ. eigenvalues --   -0.64204  -0.63467  -0.63003  -0.61795  -0.60202
 Alpha  occ. eigenvalues --   -0.59906  -0.59463  -0.58929  -0.58190  -0.58015
 Alpha  occ. eigenvalues --   -0.57293  -0.56977  -0.56284  -0.56108  -0.55364
 Alpha  occ. eigenvalues --   -0.54946  -0.54519  -0.54163  -0.54119  -0.53673
 Alpha  occ. eigenvalues --   -0.53526  -0.53248  -0.53188  -0.52878  -0.52809
 Alpha  occ. eigenvalues --   -0.52551  -0.52347  -0.52258  -0.51843  -0.51613
 Alpha  occ. eigenvalues --   -0.51517  -0.51279  -0.51058  -0.50737  -0.50591
 Alpha  occ. eigenvalues --   -0.50421  -0.50305  -0.50070  -0.49823  -0.49662
 Alpha  occ. eigenvalues --   -0.49314  -0.49195  -0.49105  -0.48913  -0.48800
 Alpha  occ. eigenvalues --   -0.48622  -0.48270  -0.48098  -0.47984  -0.47660
 Alpha  occ. eigenvalues --   -0.47503  -0.47361  -0.47194  -0.46620  -0.46487
 Alpha  occ. eigenvalues --   -0.46329  -0.46154  -0.45792  -0.45768  -0.45719
 Alpha  occ. eigenvalues --   -0.45587  -0.45181  -0.45093  -0.45079  -0.44762
 Alpha  occ. eigenvalues --   -0.44705  -0.44618  -0.44359  -0.44226  -0.44139
 Alpha  occ. eigenvalues --   -0.43757  -0.43616  -0.43568  -0.43369  -0.43277
 Alpha  occ. eigenvalues --   -0.42956  -0.42825  -0.42591  -0.42479  -0.42239
 Alpha  occ. eigenvalues --   -0.42110  -0.41976  -0.41902  -0.41641  -0.41518
 Alpha  occ. eigenvalues --   -0.41458  -0.41191  -0.40522  -0.40175  -0.40099
 Alpha  occ. eigenvalues --   -0.39829  -0.39484  -0.39282  -0.39050  -0.38709
 Alpha  occ. eigenvalues --   -0.38646  -0.38386  -0.38046  -0.37808  -0.37800
 Alpha  occ. eigenvalues --   -0.37355  -0.37233  -0.36959  -0.36855  -0.36800
 Alpha  occ. eigenvalues --   -0.36450  -0.36403  -0.35217  -0.34800  -0.34689
 Alpha  occ. eigenvalues --   -0.34668  -0.34019  -0.33154  -0.31329  -0.31098
 Alpha  occ. eigenvalues --   -0.30663  -0.30264  -0.29659  -0.29558  -0.23817
 Alpha  occ. eigenvalues --   -0.20878
 Alpha virt. eigenvalues --   -0.08367  -0.01963   0.00254   0.02057   0.02611
 Alpha virt. eigenvalues --    0.03093   0.04446   0.05680   0.05871   0.06090
 Alpha virt. eigenvalues --    0.07026   0.08060   0.08612   0.08806   0.08981

 Mulliken charges:
               1
     1  Mg   0.834492
     2  C    0.020088
     3  C   -0.082499
     4  C   -0.076031
     5  C   -0.079565
     6  N   -0.317504
     7  C   -0.086472
     8  C   -0.017400
     9  C   -0.069561
    10  C    0.061695
    11  C    0.091286
    12  C    0.070876
    13  C    0.071683
    14  C    0.183901
    15  O   -0.296205
    16  O   -0.331094
    17  N   -0.357455
    18  C    0.138088
    19  C   -0.125882
    20  C   -0.023566
    21  C    0.098947
    22  C    0.095339
    23  C   -0.026366
    24  O   -0.187335
    25  C    0.056958
    26  N   -0.244936
    27  C    0.040078
    28  C   -0.065969
    29  C    0.021531
    30  C   -0.036260
    31  C    0.067679
    32  C    0.043724
    33  C   -0.001354
    34  N   -0.308681
    35  C    0.149540
    36  C   -0.153637
    37  C   -0.005086
    38  C    0.107533
    39  C    0.121759
    40  C    0.049010
    41  O   -0.177816
    42  C   -0.026464
    43  C    0.228470
    44  O   -0.214947
    45  O   -0.356236
    46  C    0.183266
    47  C    0.307702
    48  C   -0.170092
    49  C   -0.190655
    50  C    0.078943
    51  C    0.058297
    52  C   -0.008766
    53  C    0.078727
    54  C   -0.104505
    55  C    0.039437
    56  C    0.025856
    57  C    0.005721
    58  C    0.058717
    59  C   -0.128901
    60  C    0.055659
    61  C    0.061016
    62  C    0.001327
    63  C    0.037082
    64  C   -0.095577
    65  C    0.036597
    66  C    0.036809
    67  H   -0.038297
    68  H   -0.005084
    69  H   -0.031428
    70  H    0.009944
    71  H    0.008320
    72  H    0.030804
    73  H    0.009875
    74  H    0.007081
    75  H    0.036751
    76  H    0.011333
    77  H    0.048852
    78  H    0.017186
    79  H    0.030786
    80  H    0.009030
    81  H    0.024841
    82  H    0.023941
    83  H    0.027585
    84  H    0.028749
    85  H    0.018911
    86  H    0.012046
    87  H    0.013611
    88  H    0.005920
    89  H    0.025209
    90  H    0.014062
    91  H    0.008328
    92  H    0.021153
    93  H    0.020061
    94  H    0.011330
    95  H    0.025750
    96  H    0.037156
    97  H    0.030753
    98  H    0.038265
    99  H    0.036117
   100  H    0.037048
   101  H    0.025034
   102  H    0.059047
   103  H    0.045707
   104  H   -0.006498
   105  H    0.014607
   106  H    0.015652
   107  H    0.030057
   108  H    0.015788
   109  H    0.004886
   110  H    0.015228
   111  H    0.006943
   112  H   -0.005374
   113  H   -0.010512
   114  H   -0.000138
   115  H    0.006097
   116  H    0.002708
   117  H    0.003169
   118  H   -0.002065
   119  H   -0.003371
   120  H   -0.009857
   121  H   -0.015764
   122  H   -0.024940
   123  H   -0.008277
   124  H   -0.010508
   125  H    0.017067
   126  H    0.005956
   127  H    0.005165
   128  H   -0.009693
   129  H   -0.012208
   130  H   -0.008747
   131  H   -0.005986
   132  H   -0.004219
   133  H   -0.005235
   134  H   -0.002492
   135  H   -0.005790
   136  H    0.000655
   137  H    0.017343
   138  H   -0.007715
   139  H   -0.002748
   140  H    0.014027
 Sum of Mulliken charges =  -0.00000

 Dipole moment (field-independent basis, Debye):
    X=              3.6976    Y=              0.5600    Z=             -0.1185  Tot=              3.7416
 Quadrupole moment (field-independent basis, Debye-Ang):
   XX=           -355.1717   YY=           -424.9999   ZZ=           -419.4522
   XY=            -16.4899   XZ=              1.9840   YZ=              5.1865

 Normal termination of Gaussian 16 at Wed May  4 20:45:14 2022.
