 Gaussian 16, Revision A.03,
 Gaussian 16:  ES64L-G16RevA.03 25-Dec-2016

 ---------------------------------
 #p PBE1PBE/Def2SVP td=(nstates=5)
 ---------------------------------

 -----------------------------------------------------
 step_451_chromophore_12 TDDFT with PBE1PBE functional
 -----------------------------------------------------
 Symbolic Z-matrix:
 Charge =  0 Multiplicity = 1

                         Standard orientation:
 ---------------------------------------------------------------------
 Center     Atomic      Atomic             Coordinates (Angstroms)
 Number     Number       Type             X           Y           Z
 ---------------------------------------------------------------------
      1         12           0       -3.927262    0.454017   -0.419537
      2          6           0       -3.141516   -2.800997    0.675140
      3          6           0       -0.790197    1.203837   -0.513669
      4          6           0       -4.891743    3.653036   -1.137703
      5          6           0       -7.279035   -0.296685    0.455084
      6          7           0       -2.177453   -0.739620    0.023570
      7          6           0       -2.017117   -2.061670    0.413842
      8          6           0       -0.491813   -2.500532    0.278064
      9          6           0        0.230118   -1.147634    0.368485
     10          6           0       -0.999326   -0.102370    0.010180
     11          6           0        1.004459   -0.921210    1.630170
     12          6           0       -0.234225   -3.271611   -1.102102
     13          6           0        0.771546   -4.387368   -0.948185
     14          6           0        1.942643   -4.341464   -1.917757
     15          8           0        1.820773   -4.260748   -3.192591
     16          8           0        3.131914   -4.617033   -1.298251
     17          7           0       -2.962902    2.161682   -0.989210
     18          6           0       -1.674382    2.278566   -1.016048
     19          6           0       -1.197527    3.622415   -1.401882
     20          6           0       -2.425292    4.342585   -1.689608
     21          6           0       -3.514077    3.415496   -1.292968
     22          6           0        0.264013    4.053436   -1.510180
     23          6           0       -2.586749    5.712802   -2.211001
     24          8           0       -3.609546    6.310765   -2.456768
     25          6           0       -1.360562    6.460461   -2.552072
     26          7           0       -5.833124    1.560859   -0.333297
     27          6           0       -5.929117    2.838873   -0.698770
     28          6           0       -7.354130    3.352947   -0.647104
     29          6           0       -8.207981    2.022048   -0.349907
     30          6           0       -7.078227    1.055390   -0.049846
     31          6           0       -7.630748    4.541856    0.308287
     32          6           0       -9.121181    1.528457   -1.600601
     33          6           0      -10.526749    1.032776   -1.233537
     34          7           0       -5.053376   -1.159506    0.417805
     35          6           0       -6.402194   -1.301738    0.662890
     36          6           0       -6.713224   -2.721181    1.099683
     37          6           0       -5.441912   -3.313799    0.928648
     38          6           0       -4.471390   -2.332579    0.683503
     39          6           0       -8.039811   -3.339575    1.677581
     40          6           0       -4.744804   -4.578202    1.121403
     41          8           0       -5.219268   -5.654271    1.502078
     42          6           0       -3.229734   -4.248248    0.989485
     43          6           0       -2.541184   -4.831450    2.205914
     44          8           0       -2.308915   -4.236745    3.258779
     45          8           0       -2.242494   -6.183097    1.875357
     46          6           0       -1.429792   -6.876973    2.887195
     47          6           0        4.248842   -4.884273   -2.261138
     48          6           0        5.558895   -4.560904   -1.541781
     49          6           0        6.789137   -4.174517   -1.989333
     50          6           0        7.016083   -3.998771   -3.476782
     51          6           0        7.920389   -3.850257   -0.999588
     52          6           0        9.021778   -2.725245   -1.464384
     53          6           0        9.731475   -2.068992   -0.182251
     54          6           0       10.076902   -0.620056   -0.412083
     55          6           0       11.592655   -0.467877   -0.567641
     56          6           0        9.487156    0.313130    0.723286
     57          6           0        9.174647    1.727898    0.224180
     58          6           0        8.890053    2.677238    1.407869
     59          6           0        7.840043    3.752552    1.212560
     60          6           0        8.502782    5.160051    1.139866
     61          6           0        6.672606    3.641836    2.245944
     62          6           0        5.304678    4.120611    1.756618
     63          6           0        4.647515    5.177405    2.633588
     64          6           0        3.221067    5.526175    2.198393
     65          6           0        3.039683    7.052733    1.815496
     66          6           0        2.224701    5.122729    3.266150
     67          1           0        0.268302    1.461494   -0.436269
     68          1           0       -5.164210    4.694397   -1.321381
     69          1           0       -8.346292   -0.521589    0.508285
     70          1           0       -0.359030   -3.100896    1.178289
     71          1           0        0.960019   -1.092545   -0.438676
     72          1           0        0.628175   -0.067371    2.194817
     73          1           0        2.066117   -0.909629    1.381136
     74          1           0        0.999890   -1.802033    2.271452
     75          1           0        0.114030   -2.618907   -1.903332
     76          1           0       -1.171830   -3.738373   -1.403034
     77          1           0        0.233780   -5.328994   -1.064123
     78          1           0        1.068253   -4.397956    0.100428
     79          1           0        0.638713    4.080275   -2.533462
     80          1           0        0.989300    3.376746   -1.056972
     81          1           0        0.506517    5.023093   -1.073953
     82          1           0       -1.534857    7.439359   -2.998140
     83          1           0       -0.886041    5.756954   -3.235382
     84          1           0       -0.765092    6.634229   -1.654741
     85          1           0       -7.421260    3.780031   -1.648328
     86          1           0       -8.739542    2.226161    0.580220
     87          1           0       -6.715308    5.129838    0.238450
     88          1           0       -7.721600    4.300440    1.367566
     89          1           0       -8.533687    5.106882    0.076743
     90          1           0       -8.614805    0.773038   -2.200387
     91          1           0       -9.187006    2.356840   -2.305229
     92          1           0      -11.249850    1.665919   -1.749137
     93          1           0      -10.748652    0.929624   -0.171894
     94          1           0      -10.691667    0.021590   -1.604673
     95          1           0       -8.697015   -2.512608    1.946600
     96          1           0       -7.914905   -4.059107    2.486965
     97          1           0       -8.456056   -4.020959    0.935463
     98          1           0       -2.812567   -4.769250    0.127500
     99          1           0       -1.470125   -7.929666    2.606997
    100          1           0       -1.761550   -6.892466    3.925589
    101          1           0       -0.408681   -6.498260    2.913237
    102          1           0        4.138391   -4.201339   -3.103774
    103          1           0        4.301504   -5.956866   -2.445477
    104          1           0        5.551565   -4.609921   -0.452159
    105          1           0        6.182753   -4.540403   -3.925304
    106          1           0        7.975488   -4.372109   -3.834201
    107          1           0        6.980620   -2.939224   -3.733621
    108          1           0        8.412533   -4.812874   -0.864855
    109          1           0        7.524302   -3.646168   -0.005011
    110          1           0        8.639658   -1.952070   -2.131194
    111          1           0        9.749150   -3.310889   -2.026186
    112          1           0       10.601616   -2.649766    0.125537
    113          1           0        9.065931   -2.197712    0.670830
    114          1           0        9.644409   -0.213095   -1.325726
    115          1           0       11.806453    0.274574   -1.336483
    116          1           0       12.207621   -1.329508   -0.828387
    117          1           0       12.065152   -0.198184    0.376359
    118          1           0       10.108158    0.505672    1.597429
    119          1           0        8.587122   -0.128554    1.152969
    120          1           0        8.447595    1.700848   -0.587545
    121          1           0       10.013155    2.090250   -0.370214
    122          1           0        9.837576    3.210397    1.481727
    123          1           0        8.856198    2.251912    2.411106
    124          1           0        7.481510    3.472951    0.222876
    125          1           0        9.555979    5.183440    0.858429
    126          1           0        8.370624    5.664338    2.096688
    127          1           0        7.909981    5.703488    0.404262
    128          1           0        6.937022    4.112785    3.193035
    129          1           0        6.588134    2.595609    2.539048
    130          1           0        4.626431    3.271449    1.670015
    131          1           0        5.426231    4.500784    0.743220
    132          1           0        5.327318    6.028004    2.693181
    133          1           0        4.687671    4.692960    3.609471
    134          1           0        2.988846    4.911695    1.328599
    135          1           0        4.015123    7.523491    1.690637
    136          1           0        2.730319    7.653386    2.670271
    137          1           0        2.381052    7.270517    0.974982
    138          1           0        1.813098    4.137043    3.052358
    139          1           0        1.282505    5.671545    3.250257
    140          1           0        2.566398    5.085188    4.300260
 ---------------------------------------------------------------------

 SCF Done:  E(RPBE1PBE) =  -3005.33706120     A.U. after   15 cycles

 Excitation energies and oscillator strengths:

 Excited State   1:      Singlet-A      1.8600 eV  666.59 nm  f=0.3790  <S**2>=0.000
     245 -> 248        0.16860
     246 -> 247        0.69070
     246 <- 247       -0.10526
 This state for optimization and/or second-order correction.
 Total Energy, E(TD-HF/TD-DFT) =  -3005.26870835
 Copying the excited state density for this state as the 1-particle RhoCI density.

 Excited State   2:      Singlet-A      2.2181 eV  558.98 nm  f=0.0915  <S**2>=0.000
     245 -> 247        0.64890
     246 -> 248       -0.26359

 Excited State   3:      Singlet-A      2.9656 eV  418.08 nm  f=0.0008  <S**2>=0.000
     243 -> 247        0.67036
     243 -> 248        0.13884
     243 -> 250       -0.12342

 Excited State   4:      Singlet-A      3.0035 eV  412.80 nm  f=0.0036  <S**2>=0.000
     241 -> 247        0.21403
     241 -> 249        0.12168
     242 -> 247        0.63458

 Excited State   5:      Singlet-A      3.2335 eV  383.44 nm  f=0.2195  <S**2>=0.000
     241 -> 247        0.44996
     242 -> 247       -0.15416
     245 -> 247        0.17830
     246 -> 248        0.44612
     246 -> 249       -0.12448

 The electronic state is 1-A.
 Alpha  occ. eigenvalues --  -46.92787 -19.26873 -19.25903 -19.21200 -19.20249
 Alpha  occ. eigenvalues --  -19.19194 -19.18383 -14.41615 -14.41405 -14.39734
 Alpha  occ. eigenvalues --  -14.38840 -10.37447 -10.37174 -10.32097 -10.31180
 Alpha  occ. eigenvalues --  -10.30341 -10.29227 -10.28943 -10.28776 -10.28729
 Alpha  occ. eigenvalues --  -10.28404 -10.28333 -10.27805 -10.27576 -10.27298
 Alpha  occ. eigenvalues --  -10.27115 -10.26711 -10.26390 -10.26375 -10.26043
 Alpha  occ. eigenvalues --  -10.25815 -10.25530 -10.25493 -10.25390 -10.25175
 Alpha  occ. eigenvalues --  -10.25154 -10.24891 -10.24868 -10.24802 -10.24643
 Alpha  occ. eigenvalues --  -10.24489 -10.24478 -10.24467 -10.24286 -10.23873
 Alpha  occ. eigenvalues --  -10.23837 -10.23737 -10.23390 -10.23372 -10.23226
 Alpha  occ. eigenvalues --  -10.23174 -10.23102 -10.23097 -10.22946 -10.22846
 Alpha  occ. eigenvalues --  -10.22608 -10.22557 -10.22421 -10.22241 -10.22162
 Alpha  occ. eigenvalues --  -10.22135 -10.22133 -10.21999 -10.21921 -10.21793
 Alpha  occ. eigenvalues --  -10.21499  -3.14820  -1.87674  -1.87169  -1.87067
 Alpha  occ. eigenvalues --   -1.10567  -1.09487  -1.05143  -1.03733  -1.02603
 Alpha  occ. eigenvalues --   -1.00427  -0.99343  -0.98659  -0.98258  -0.97209
 Alpha  occ. eigenvalues --   -0.87574  -0.84458  -0.84330  -0.83775  -0.83156
 Alpha  occ. eigenvalues --   -0.82669  -0.82059  -0.81936  -0.81736  -0.81040
 Alpha  occ. eigenvalues --   -0.80236  -0.79993  -0.78452  -0.78188  -0.77676
 Alpha  occ. eigenvalues --   -0.76930  -0.76095  -0.75548  -0.75177  -0.74565
 Alpha  occ. eigenvalues --   -0.74036  -0.72721  -0.72189  -0.71854  -0.70425
 Alpha  occ. eigenvalues --   -0.70291  -0.69702  -0.69534  -0.69211  -0.68727
 Alpha  occ. eigenvalues --   -0.67552  -0.67089  -0.65694  -0.64807  -0.63642
 Alpha  occ. eigenvalues --   -0.63118  -0.62706  -0.62248  -0.61067  -0.60564
 Alpha  occ. eigenvalues --   -0.60094  -0.59703  -0.59579  -0.59036  -0.58791
 Alpha  occ. eigenvalues --   -0.58386  -0.58003  -0.57237  -0.56379  -0.54795
 Alpha  occ. eigenvalues --   -0.54384  -0.53923  -0.53488  -0.52841  -0.52404
 Alpha  occ. eigenvalues --   -0.51867  -0.51504  -0.50895  -0.50528  -0.49864
 Alpha  occ. eigenvalues --   -0.49553  -0.49150  -0.48728  -0.48477  -0.48094
 Alpha  occ. eigenvalues --   -0.48060  -0.47772  -0.47680  -0.47306  -0.47201
 Alpha  occ. eigenvalues --   -0.47163  -0.46900  -0.46701  -0.46464  -0.46188
 Alpha  occ. eigenvalues --   -0.46090  -0.45844  -0.45694  -0.45318  -0.45169
 Alpha  occ. eigenvalues --   -0.45018  -0.44865  -0.44656  -0.44431  -0.44284
 Alpha  occ. eigenvalues --   -0.43903  -0.43760  -0.43692  -0.43507  -0.43421
 Alpha  occ. eigenvalues --   -0.43263  -0.42863  -0.42704  -0.42628  -0.42301
 Alpha  occ. eigenvalues --   -0.42135  -0.42030  -0.41871  -0.41312  -0.41102
 Alpha  occ. eigenvalues --   -0.41005  -0.40800  -0.40548  -0.40481  -0.40411
 Alpha  occ. eigenvalues --   -0.40229  -0.39980  -0.39868  -0.39805  -0.39539
 Alpha  occ. eigenvalues --   -0.39415  -0.39339  -0.39062  -0.38967  -0.38937
 Alpha  occ. eigenvalues --   -0.38471  -0.38434  -0.38384  -0.38175  -0.38037
 Alpha  occ. eigenvalues --   -0.37763  -0.37675  -0.37405  -0.37227  -0.37060
 Alpha  occ. eigenvalues --   -0.36929  -0.36809  -0.36707  -0.36480  -0.36337
 Alpha  occ. eigenvalues --   -0.36319  -0.35944  -0.35429  -0.35014  -0.34934
 Alpha  occ. eigenvalues --   -0.34578  -0.34422  -0.34170  -0.33958  -0.33506
 Alpha  occ. eigenvalues --   -0.33414  -0.33402  -0.32859  -0.32834  -0.32571
 Alpha  occ. eigenvalues --   -0.32322  -0.32161  -0.31903  -0.31775  -0.31624
 Alpha  occ. eigenvalues --   -0.31551  -0.31365  -0.30138  -0.29926  -0.29646
 Alpha  occ. eigenvalues --   -0.29644  -0.28839  -0.28722  -0.26970  -0.26404
 Alpha  occ. eigenvalues --   -0.25976  -0.25064  -0.25007  -0.24859  -0.20740
 Alpha  occ. eigenvalues --   -0.18549
 Alpha virt. eigenvalues --   -0.10908  -0.05474  -0.03934  -0.02249  -0.01484
 Alpha virt. eigenvalues --   -0.00458   0.00007   0.01223   0.01497   0.03027
 Alpha virt. eigenvalues --    0.03655   0.04102   0.04668   0.05398   0.05617

 Mulliken charges:
               1
     1  Mg   0.981939
     2  C   -0.007951
     3  C   -0.080344
     4  C   -0.072356
     5  C   -0.076032
     6  N   -0.414650
     7  C   -0.002972
     8  C   -0.090464
     9  C   -0.141439
    10  C    0.099106
    11  C    0.035847
    12  C    0.020403
    13  C   -0.000218
    14  C    0.243582
    15  O   -0.325125
    16  O   -0.360548
    17  N   -0.478656
    18  C    0.165991
    19  C   -0.145739
    20  C   -0.077569
    21  C    0.134010
    22  C    0.036451
    23  C    0.029518
    24  O   -0.227568
    25  C   -0.021697
    26  N   -0.352086
    27  C    0.082498
    28  C   -0.138478
    29  C   -0.060628
    30  C    0.009212
    31  C    0.008579
    32  C   -0.011628
    33  C   -0.073474
    34  N   -0.433425
    35  C    0.158575
    36  C   -0.158006
    37  C   -0.053694
    38  C    0.155868
    39  C    0.067050
    40  C    0.141204
    41  O   -0.223117
    42  C   -0.124374
    43  C    0.307156
    44  O   -0.249551
    45  O   -0.384762
    46  C    0.127622
    47  C    0.263121
    48  C   -0.181030
    49  C   -0.231834
    50  C    0.014594
    51  C   -0.000303
    52  C   -0.074589
    53  C    0.027675
    54  C   -0.197889
    55  C   -0.014447
    56  C   -0.027000
    57  C   -0.054631
    58  C    0.005679
    59  C   -0.217608
    60  C   -0.003533
    61  C    0.007872
    62  C   -0.061578
    63  C   -0.016043
    64  C   -0.195718
    65  C   -0.023484
    66  C   -0.020424
    67  H   -0.002159
    68  H    0.024734
    69  H    0.002040
    70  H    0.050946
    71  H    0.045086
    72  H    0.057030
    73  H    0.037048
    74  H    0.034297
    75  H    0.066899
    76  H    0.045447
    77  H    0.080399
    78  H    0.048947
    79  H    0.058363
    80  H    0.036205
    81  H    0.052163
    82  H    0.052120
    83  H    0.055387
    84  H    0.055969
    85  H    0.055715
    86  H    0.049039
    87  H    0.042766
    88  H    0.034166
    89  H    0.052933
    90  H    0.045896
    91  H    0.040761
    92  H    0.048822
    93  H    0.046083
    94  H    0.039353
    95  H    0.051272
    96  H    0.063385
    97  H    0.057670
    98  H    0.077180
    99  H    0.058072
   100  H    0.058895
   101  H    0.047349
   102  H    0.083692
   103  H    0.073248
   104  H    0.024262
   105  H    0.043192
   106  H    0.043695
   107  H    0.057776
   108  H    0.049636
   109  H    0.034724
   110  H    0.046225
   111  H    0.040263
   112  H    0.026651
   113  H    0.021191
   114  H    0.037855
   115  H    0.032868
   116  H    0.029898
   117  H    0.030286
   118  H    0.030265
   119  H    0.030030
   120  H    0.020969
   121  H    0.017897
   122  H    0.010309
   123  H    0.022078
   124  H    0.029211
   125  H    0.043403
   126  H    0.033110
   127  H    0.033060
   128  H    0.021633
   129  H    0.021500
   130  H    0.024244
   131  H    0.027598
   132  H    0.028173
   133  H    0.028221
   134  H    0.035820
   135  H    0.021777
   136  H    0.028221
   137  H    0.044053
   138  H    0.020030
   139  H    0.025445
   140  H    0.040324
 Sum of Mulliken charges =  -0.00000

 Dipole moment (field-independent basis, Debye):
    X=              3.7539    Y=              0.6582    Z=             -0.1314  Tot=              3.8135
 Quadrupole moment (field-independent basis, Debye-Ang):
   XX=           -349.5173   YY=           -422.3666   ZZ=           -416.9324
   XY=            -17.4201   XZ=              2.3331   YZ=              5.1929

 Normal termination of Gaussian 16 at Wed May  4 21:09:53 2022.
