 Gaussian 16, Revision A.03,
 Gaussian 16:  ES64L-G16RevA.03 25-Dec-2016

 --------------------------------
 #p wB97XD/Def2SVP td=(nstates=5)
 --------------------------------

 ----------------------------------------------------
 step_451_chromophore_12 TDDFT with wB97XD functional
 ----------------------------------------------------
 Symbolic Z-matrix:
 Charge =  0 Multiplicity = 1

                         Standard orientation:
 ---------------------------------------------------------------------
 Center     Atomic      Atomic             Coordinates (Angstroms)
 Number     Number       Type             X           Y           Z
 ---------------------------------------------------------------------
      1         12           0       -3.927262    0.454017   -0.419537
      2          6           0       -3.141516   -2.800997    0.675140
      3          6           0       -0.790197    1.203837   -0.513669
      4          6           0       -4.891743    3.653036   -1.137703
      5          6           0       -7.279035   -0.296685    0.455084
      6          7           0       -2.177453   -0.739620    0.023570
      7          6           0       -2.017117   -2.061670    0.413842
      8          6           0       -0.491813   -2.500532    0.278064
      9          6           0        0.230118   -1.147634    0.368485
     10          6           0       -0.999326   -0.102370    0.010180
     11          6           0        1.004459   -0.921210    1.630170
     12          6           0       -0.234225   -3.271611   -1.102102
     13          6           0        0.771546   -4.387368   -0.948185
     14          6           0        1.942643   -4.341464   -1.917757
     15          8           0        1.820773   -4.260748   -3.192591
     16          8           0        3.131914   -4.617033   -1.298251
     17          7           0       -2.962902    2.161682   -0.989210
     18          6           0       -1.674382    2.278566   -1.016048
     19          6           0       -1.197527    3.622415   -1.401882
     20          6           0       -2.425292    4.342585   -1.689608
     21          6           0       -3.514077    3.415496   -1.292968
     22          6           0        0.264013    4.053436   -1.510180
     23          6           0       -2.586749    5.712802   -2.211001
     24          8           0       -3.609546    6.310765   -2.456768
     25          6           0       -1.360562    6.460461   -2.552072
     26          7           0       -5.833124    1.560859   -0.333297
     27          6           0       -5.929117    2.838873   -0.698770
     28          6           0       -7.354130    3.352947   -0.647104
     29          6           0       -8.207981    2.022048   -0.349907
     30          6           0       -7.078227    1.055390   -0.049846
     31          6           0       -7.630748    4.541856    0.308287
     32          6           0       -9.121181    1.528457   -1.600601
     33          6           0      -10.526749    1.032776   -1.233537
     34          7           0       -5.053376   -1.159506    0.417805
     35          6           0       -6.402194   -1.301738    0.662890
     36          6           0       -6.713224   -2.721181    1.099683
     37          6           0       -5.441912   -3.313799    0.928648
     38          6           0       -4.471390   -2.332579    0.683503
     39          6           0       -8.039811   -3.339575    1.677581
     40          6           0       -4.744804   -4.578202    1.121403
     41          8           0       -5.219268   -5.654271    1.502078
     42          6           0       -3.229734   -4.248248    0.989485
     43          6           0       -2.541184   -4.831450    2.205914
     44          8           0       -2.308915   -4.236745    3.258779
     45          8           0       -2.242494   -6.183097    1.875357
     46          6           0       -1.429792   -6.876973    2.887195
     47          6           0        4.248842   -4.884273   -2.261138
     48          6           0        5.558895   -4.560904   -1.541781
     49          6           0        6.789137   -4.174517   -1.989333
     50          6           0        7.016083   -3.998771   -3.476782
     51          6           0        7.920389   -3.850257   -0.999588
     52          6           0        9.021778   -2.725245   -1.464384
     53          6           0        9.731475   -2.068992   -0.182251
     54          6           0       10.076902   -0.620056   -0.412083
     55          6           0       11.592655   -0.467877   -0.567641
     56          6           0        9.487156    0.313130    0.723286
     57          6           0        9.174647    1.727898    0.224180
     58          6           0        8.890053    2.677238    1.407869
     59          6           0        7.840043    3.752552    1.212560
     60          6           0        8.502782    5.160051    1.139866
     61          6           0        6.672606    3.641836    2.245944
     62          6           0        5.304678    4.120611    1.756618
     63          6           0        4.647515    5.177405    2.633588
     64          6           0        3.221067    5.526175    2.198393
     65          6           0        3.039683    7.052733    1.815496
     66          6           0        2.224701    5.122729    3.266150
     67          1           0        0.268302    1.461494   -0.436269
     68          1           0       -5.164210    4.694397   -1.321381
     69          1           0       -8.346292   -0.521589    0.508285
     70          1           0       -0.359030   -3.100896    1.178289
     71          1           0        0.960019   -1.092545   -0.438676
     72          1           0        0.628175   -0.067371    2.194817
     73          1           0        2.066117   -0.909629    1.381136
     74          1           0        0.999890   -1.802033    2.271452
     75          1           0        0.114030   -2.618907   -1.903332
     76          1           0       -1.171830   -3.738373   -1.403034
     77          1           0        0.233780   -5.328994   -1.064123
     78          1           0        1.068253   -4.397956    0.100428
     79          1           0        0.638713    4.080275   -2.533462
     80          1           0        0.989300    3.376746   -1.056972
     81          1           0        0.506517    5.023093   -1.073953
     82          1           0       -1.534857    7.439359   -2.998140
     83          1           0       -0.886041    5.756954   -3.235382
     84          1           0       -0.765092    6.634229   -1.654741
     85          1           0       -7.421260    3.780031   -1.648328
     86          1           0       -8.739542    2.226161    0.580220
     87          1           0       -6.715308    5.129838    0.238450
     88          1           0       -7.721600    4.300440    1.367566
     89          1           0       -8.533687    5.106882    0.076743
     90          1           0       -8.614805    0.773038   -2.200387
     91          1           0       -9.187006    2.356840   -2.305229
     92          1           0      -11.249850    1.665919   -1.749137
     93          1           0      -10.748652    0.929624   -0.171894
     94          1           0      -10.691667    0.021590   -1.604673
     95          1           0       -8.697015   -2.512608    1.946600
     96          1           0       -7.914905   -4.059107    2.486965
     97          1           0       -8.456056   -4.020959    0.935463
     98          1           0       -2.812567   -4.769250    0.127500
     99          1           0       -1.470125   -7.929666    2.606997
    100          1           0       -1.761550   -6.892466    3.925589
    101          1           0       -0.408681   -6.498260    2.913237
    102          1           0        4.138391   -4.201339   -3.103774
    103          1           0        4.301504   -5.956866   -2.445477
    104          1           0        5.551565   -4.609921   -0.452159
    105          1           0        6.182753   -4.540403   -3.925304
    106          1           0        7.975488   -4.372109   -3.834201
    107          1           0        6.980620   -2.939224   -3.733621
    108          1           0        8.412533   -4.812874   -0.864855
    109          1           0        7.524302   -3.646168   -0.005011
    110          1           0        8.639658   -1.952070   -2.131194
    111          1           0        9.749150   -3.310889   -2.026186
    112          1           0       10.601616   -2.649766    0.125537
    113          1           0        9.065931   -2.197712    0.670830
    114          1           0        9.644409   -0.213095   -1.325726
    115          1           0       11.806453    0.274574   -1.336483
    116          1           0       12.207621   -1.329508   -0.828387
    117          1           0       12.065152   -0.198184    0.376359
    118          1           0       10.108158    0.505672    1.597429
    119          1           0        8.587122   -0.128554    1.152969
    120          1           0        8.447595    1.700848   -0.587545
    121          1           0       10.013155    2.090250   -0.370214
    122          1           0        9.837576    3.210397    1.481727
    123          1           0        8.856198    2.251912    2.411106
    124          1           0        7.481510    3.472951    0.222876
    125          1           0        9.555979    5.183440    0.858429
    126          1           0        8.370624    5.664338    2.096688
    127          1           0        7.909981    5.703488    0.404262
    128          1           0        6.937022    4.112785    3.193035
    129          1           0        6.588134    2.595609    2.539048
    130          1           0        4.626431    3.271449    1.670015
    131          1           0        5.426231    4.500784    0.743220
    132          1           0        5.327318    6.028004    2.693181
    133          1           0        4.687671    4.692960    3.609471
    134          1           0        2.988846    4.911695    1.328599
    135          1           0        4.015123    7.523491    1.690637
    136          1           0        2.730319    7.653386    2.670271
    137          1           0        2.381052    7.270517    0.974982
    138          1           0        1.813098    4.137043    3.052358
    139          1           0        1.282505    5.671545    3.250257
    140          1           0        2.566398    5.085188    4.300260
 ---------------------------------------------------------------------

 SCF Done:  E(RwB97XD) =  -3007.84188097     A.U. after   19 cycles

 Excitation energies and oscillator strengths:

 Excited State   1:      Singlet-A      1.6547 eV  749.27 nm  f=0.3929  <S**2>=0.000
     245 -> 248        0.18312
     246 -> 247        0.68090
     245 <- 248        0.11312
 This state for optimization and/or second-order correction.
 Total Energy, E(TD-HF/TD-DFT) =  -3007.78107078
 Copying the excited state density for this state as the 1-particle RhoCI density.

 Excited State   2:      Singlet-A      2.1826 eV  568.07 nm  f=0.0800  <S**2>=0.000
     245 -> 247        0.63026
     246 -> 248       -0.30608

 Excited State   3:      Singlet-A      3.4589 eV  358.45 nm  f=0.0378  <S**2>=0.000
     240 -> 247        0.13755
     240 -> 249        0.17784
     241 -> 247        0.11443
     241 -> 249        0.13083
     243 -> 247        0.55277
     243 -> 249        0.17213
     246 -> 248        0.18569

 Excited State   4:      Singlet-A      3.4719 eV  357.11 nm  f=0.6962  <S**2>=0.000
     240 -> 247       -0.14405
     243 -> 247       -0.13979
     245 -> 247        0.29609
     246 -> 248        0.59368
     245 <- 247       -0.11093

 Excited State   5:      Singlet-A      3.5438 eV  349.86 nm  f=0.0015  <S**2>=0.000
     242 -> 247        0.52982
     242 -> 248        0.23784
     242 -> 249       -0.21880
     242 -> 250       -0.27950

 The electronic state is 1-A.
 Alpha  occ. eigenvalues --  -46.95711 -19.31423 -19.30488 -19.25953 -19.24879
 Alpha  occ. eigenvalues --  -19.24084 -19.23210 -14.46860 -14.46243 -14.44720
 Alpha  occ. eigenvalues --  -14.43839 -10.44209 -10.44041 -10.39022 -10.38023
 Alpha  occ. eigenvalues --  -10.36837 -10.35509 -10.35264 -10.35121 -10.35116
 Alpha  occ. eigenvalues --  -10.34739 -10.34551 -10.33979 -10.33897 -10.33732
 Alpha  occ. eigenvalues --  -10.33694 -10.32960 -10.32807 -10.32567 -10.32274
 Alpha  occ. eigenvalues --  -10.32255 -10.31934 -10.31808 -10.31660 -10.31523
 Alpha  occ. eigenvalues --  -10.31518 -10.31354 -10.31104 -10.31066 -10.31055
 Alpha  occ. eigenvalues --  -10.31042 -10.30825 -10.30792 -10.30653 -10.30436
 Alpha  occ. eigenvalues --  -10.30121 -10.30013 -10.29829 -10.29726 -10.29608
 Alpha  occ. eigenvalues --  -10.29477 -10.29472 -10.29441 -10.29301 -10.29238
 Alpha  occ. eigenvalues --  -10.28962 -10.28922 -10.28814 -10.28779 -10.28556
 Alpha  occ. eigenvalues --  -10.28526 -10.28510 -10.28420 -10.28350 -10.28135
 Alpha  occ. eigenvalues --  -10.27924  -3.21612  -1.95214  -1.94706  -1.94605
 Alpha  occ. eigenvalues --   -1.17944  -1.16938  -1.12626  -1.11299  -1.10007
 Alpha  occ. eigenvalues --   -1.07779  -1.06693  -1.06032  -1.05632  -1.04536
 Alpha  occ. eigenvalues --   -0.95206  -0.92113  -0.91971  -0.91441  -0.90817
 Alpha  occ. eigenvalues --   -0.90281  -0.89624  -0.89584  -0.89415  -0.88646
 Alpha  occ. eigenvalues --   -0.87852  -0.87664  -0.86119  -0.85823  -0.85291
 Alpha  occ. eigenvalues --   -0.84584  -0.83797  -0.83212  -0.82852  -0.82180
 Alpha  occ. eigenvalues --   -0.81697  -0.80371  -0.79838  -0.79441  -0.78084
 Alpha  occ. eigenvalues --   -0.77963  -0.77397  -0.77105  -0.76884  -0.76376
 Alpha  occ. eigenvalues --   -0.75142  -0.74683  -0.73205  -0.72431  -0.71199
 Alpha  occ. eigenvalues --   -0.70703  -0.70324  -0.69756  -0.68684  -0.68055
 Alpha  occ. eigenvalues --   -0.67607  -0.67334  -0.66994  -0.66703  -0.66226
 Alpha  occ. eigenvalues --   -0.66040  -0.65472  -0.64843  -0.63807  -0.62200
 Alpha  occ. eigenvalues --   -0.61859  -0.61396  -0.60937  -0.60178  -0.59967
 Alpha  occ. eigenvalues --   -0.59265  -0.58924  -0.58276  -0.58004  -0.57297
 Alpha  occ. eigenvalues --   -0.56943  -0.56515  -0.56122  -0.55954  -0.55530
 Alpha  occ. eigenvalues --   -0.55455  -0.55160  -0.55109  -0.54784  -0.54686
 Alpha  occ. eigenvalues --   -0.54500  -0.54248  -0.54136  -0.53774  -0.53518
 Alpha  occ. eigenvalues --   -0.53407  -0.53218  -0.53000  -0.52660  -0.52515
 Alpha  occ. eigenvalues --   -0.52338  -0.52183  -0.51976  -0.51737  -0.51560
 Alpha  occ. eigenvalues --   -0.51289  -0.51153  -0.51019  -0.50828  -0.50739
 Alpha  occ. eigenvalues --   -0.50531  -0.50180  -0.50015  -0.49901  -0.49612
 Alpha  occ. eigenvalues --   -0.49396  -0.49269  -0.49113  -0.48562  -0.48347
 Alpha  occ. eigenvalues --   -0.48252  -0.48014  -0.47725  -0.47675  -0.47610
 Alpha  occ. eigenvalues --   -0.47457  -0.47102  -0.47034  -0.47015  -0.46645
 Alpha  occ. eigenvalues --   -0.46607  -0.46538  -0.46230  -0.46161  -0.46071
 Alpha  occ. eigenvalues --   -0.45631  -0.45536  -0.45494  -0.45332  -0.45186
 Alpha  occ. eigenvalues --   -0.44873  -0.44745  -0.44504  -0.44488  -0.44127
 Alpha  occ. eigenvalues --   -0.44037  -0.43877  -0.43788  -0.43645  -0.43405
 Alpha  occ. eigenvalues --   -0.43369  -0.43045  -0.42414  -0.42026  -0.41984
 Alpha  occ. eigenvalues --   -0.41673  -0.41395  -0.41176  -0.40939  -0.40542
 Alpha  occ. eigenvalues --   -0.40479  -0.40296  -0.39890  -0.39749  -0.39637
 Alpha  occ. eigenvalues --   -0.39355  -0.39186  -0.38928  -0.38868  -0.38655
 Alpha  occ. eigenvalues --   -0.38426  -0.38325  -0.37039  -0.36802  -0.36662
 Alpha  occ. eigenvalues --   -0.36528  -0.35942  -0.35409  -0.33539  -0.33161
 Alpha  occ. eigenvalues --   -0.32819  -0.32211  -0.31821  -0.31614  -0.25754
 Alpha  occ. eigenvalues --   -0.22690
 Alpha virt. eigenvalues --   -0.06714  -0.00049   0.02283   0.04249   0.05366
 Alpha virt. eigenvalues --    0.05684   0.06625   0.07919   0.08223   0.09099
 Alpha virt. eigenvalues --    0.10435   0.10865   0.11449   0.12192   0.12413

 Mulliken charges:
               1
     1  Mg   0.973416
     2  C   -0.005228
     3  C   -0.094217
     4  C   -0.083301
     5  C   -0.086097
     6  N   -0.388196
     7  C   -0.038016
     8  C   -0.058720
     9  C   -0.115077
    10  C    0.082863
    11  C    0.043076
    12  C    0.030152
    13  C    0.013548
    14  C    0.236741
    15  O   -0.324018
    16  O   -0.360746
    17  N   -0.444151
    18  C    0.157720
    19  C   -0.142148
    20  C   -0.068312
    21  C    0.121042
    22  C    0.049005
    23  C    0.024966
    24  O   -0.220978
    25  C   -0.004712
    26  N   -0.314821
    27  C    0.064368
    28  C   -0.113990
    29  C   -0.033690
    30  C   -0.010498
    31  C    0.020135
    32  C   -0.000229
    33  C   -0.058583
    34  N   -0.395211
    35  C    0.155010
    36  C   -0.160629
    37  C   -0.049266
    38  C    0.141512
    39  C    0.080952
    40  C    0.122936
    41  O   -0.212703
    42  C   -0.087486
    43  C    0.288106
    44  O   -0.243603
    45  O   -0.385669
    46  C    0.142132
    47  C    0.278469
    48  C   -0.189349
    49  C   -0.219710
    50  C    0.027933
    51  C    0.016443
    52  C   -0.056012
    53  C    0.041476
    54  C   -0.164328
    55  C   -0.006433
    56  C   -0.010662
    57  C   -0.037153
    58  C    0.018873
    59  C   -0.185617
    60  C    0.009141
    61  C    0.019993
    62  C   -0.043078
    63  C   -0.000646
    64  C   -0.165284
    65  C   -0.010705
    66  C   -0.010572
    67  H   -0.013656
    68  H    0.019085
    69  H   -0.004438
    70  H    0.033148
    71  H    0.034443
    72  H    0.052778
    73  H    0.032061
    74  H    0.028480
    75  H    0.060361
    76  H    0.036434
    77  H    0.075785
    78  H    0.042521
    79  H    0.053455
    80  H    0.032292
    81  H    0.046188
    82  H    0.051233
    83  H    0.046617
    84  H    0.049219
    85  H    0.045016
    86  H    0.038466
    87  H    0.034453
    88  H    0.028068
    89  H    0.047997
    90  H    0.038210
    91  H    0.032981
    92  H    0.043691
    93  H    0.039782
    94  H    0.033109
    95  H    0.046307
    96  H    0.060358
    97  H    0.053275
    98  H    0.068115
    99  H    0.054838
   100  H    0.054944
   101  H    0.043072
   102  H    0.078251
   103  H    0.069162
   104  H    0.020375
   105  H    0.036653
   106  H    0.038849
   107  H    0.052023
   108  H    0.041550
   109  H    0.026495
   110  H    0.036355
   111  H    0.031462
   112  H    0.019373
   113  H    0.010450
   114  H    0.023499
   115  H    0.027742
   116  H    0.024225
   117  H    0.023829
   118  H    0.019670
   119  H    0.020199
   120  H    0.012093
   121  H    0.008103
   122  H   -0.000456
   123  H    0.013653
   124  H    0.014012
   125  H    0.037950
   126  H    0.026322
   127  H    0.026795
   128  H    0.012287
   129  H    0.013275
   130  H    0.015794
   131  H    0.016551
   132  H    0.018250
   133  H    0.017343
   134  H    0.024786
   135  H    0.014889
   136  H    0.021577
   137  H    0.039436
   138  H    0.014130
   139  H    0.019490
   140  H    0.034706
 Sum of Mulliken charges =  -0.00000

 Dipole moment (field-independent basis, Debye):
    X=              3.7350    Y=              0.5834    Z=             -0.1175  Tot=              3.7821
 Quadrupole moment (field-independent basis, Debye-Ang):
   XX=           -349.6085   YY=           -420.7228   ZZ=           -416.6442
   XY=            -16.2962   XZ=              1.8645   YZ=              4.7280

 Normal termination of Gaussian 16 at Wed May  4 21:39:47 2022.
