 Gaussian 16, Revision A.03,
 Gaussian 16:  ES64L-G16RevA.03 25-Dec-2016

 --------------------
 #p ZINDO=(nstates=5)
 --------------------

 -----------------------------
 step_451_chromophore_12 ZINDO
 -----------------------------
 Symbolic Z-matrix:
 Charge =  0 Multiplicity = 1

                         Standard orientation:
 ---------------------------------------------------------------------
 Center     Atomic      Atomic             Coordinates (Angstroms)
 Number     Number       Type             X           Y           Z
 ---------------------------------------------------------------------
      1         12           0       -3.927262    0.454017   -0.419537
      2          6           0       -3.141516   -2.800997    0.675140
      3          6           0       -0.790197    1.203837   -0.513669
      4          6           0       -4.891743    3.653036   -1.137703
      5          6           0       -7.279035   -0.296685    0.455084
      6          7           0       -2.177453   -0.739620    0.023570
      7          6           0       -2.017117   -2.061670    0.413842
      8          6           0       -0.491813   -2.500532    0.278064
      9          6           0        0.230118   -1.147634    0.368485
     10          6           0       -0.999326   -0.102370    0.010180
     11          6           0        1.004459   -0.921210    1.630170
     12          6           0       -0.234225   -3.271611   -1.102102
     13          6           0        0.771546   -4.387368   -0.948185
     14          6           0        1.942643   -4.341464   -1.917757
     15          8           0        1.820773   -4.260748   -3.192591
     16          8           0        3.131914   -4.617033   -1.298251
     17          7           0       -2.962902    2.161682   -0.989210
     18          6           0       -1.674382    2.278566   -1.016048
     19          6           0       -1.197527    3.622415   -1.401882
     20          6           0       -2.425292    4.342585   -1.689608
     21          6           0       -3.514077    3.415496   -1.292968
     22          6           0        0.264013    4.053436   -1.510180
     23          6           0       -2.586749    5.712802   -2.211001
     24          8           0       -3.609546    6.310765   -2.456768
     25          6           0       -1.360562    6.460461   -2.552072
     26          7           0       -5.833124    1.560859   -0.333297
     27          6           0       -5.929117    2.838873   -0.698770
     28          6           0       -7.354130    3.352947   -0.647104
     29          6           0       -8.207981    2.022048   -0.349907
     30          6           0       -7.078227    1.055390   -0.049846
     31          6           0       -7.630748    4.541856    0.308287
     32          6           0       -9.121181    1.528457   -1.600601
     33          6           0      -10.526749    1.032776   -1.233537
     34          7           0       -5.053376   -1.159506    0.417805
     35          6           0       -6.402194   -1.301738    0.662890
     36          6           0       -6.713224   -2.721181    1.099683
     37          6           0       -5.441912   -3.313799    0.928648
     38          6           0       -4.471390   -2.332579    0.683503
     39          6           0       -8.039811   -3.339575    1.677581
     40          6           0       -4.744804   -4.578202    1.121403
     41          8           0       -5.219268   -5.654271    1.502078
     42          6           0       -3.229734   -4.248248    0.989485
     43          6           0       -2.541184   -4.831450    2.205914
     44          8           0       -2.308915   -4.236745    3.258779
     45          8           0       -2.242494   -6.183097    1.875357
     46          6           0       -1.429792   -6.876973    2.887195
     47          6           0        4.248842   -4.884273   -2.261138
     48          6           0        5.558895   -4.560904   -1.541781
     49          6           0        6.789137   -4.174517   -1.989333
     50          6           0        7.016083   -3.998771   -3.476782
     51          6           0        7.920389   -3.850257   -0.999588
     52          6           0        9.021778   -2.725245   -1.464384
     53          6           0        9.731475   -2.068992   -0.182251
     54          6           0       10.076902   -0.620056   -0.412083
     55          6           0       11.592655   -0.467877   -0.567641
     56          6           0        9.487156    0.313130    0.723286
     57          6           0        9.174647    1.727898    0.224180
     58          6           0        8.890053    2.677238    1.407869
     59          6           0        7.840043    3.752552    1.212560
     60          6           0        8.502782    5.160051    1.139866
     61          6           0        6.672606    3.641836    2.245944
     62          6           0        5.304678    4.120611    1.756618
     63          6           0        4.647515    5.177405    2.633588
     64          6           0        3.221067    5.526175    2.198393
     65          6           0        3.039683    7.052733    1.815496
     66          6           0        2.224701    5.122729    3.266150
     67          1           0        0.268302    1.461494   -0.436269
     68          1           0       -5.164210    4.694397   -1.321381
     69          1           0       -8.346292   -0.521589    0.508285
     70          1           0       -0.359030   -3.100896    1.178289
     71          1           0        0.960019   -1.092545   -0.438676
     72          1           0        0.628175   -0.067371    2.194817
     73          1           0        2.066117   -0.909629    1.381136
     74          1           0        0.999890   -1.802033    2.271452
     75          1           0        0.114030   -2.618907   -1.903332
     76          1           0       -1.171830   -3.738373   -1.403034
     77          1           0        0.233780   -5.328994   -1.064123
     78          1           0        1.068253   -4.397956    0.100428
     79          1           0        0.638713    4.080275   -2.533462
     80          1           0        0.989300    3.376746   -1.056972
     81          1           0        0.506517    5.023093   -1.073953
     82          1           0       -1.534857    7.439359   -2.998140
     83          1           0       -0.886041    5.756954   -3.235382
     84          1           0       -0.765092    6.634229   -1.654741
     85          1           0       -7.421260    3.780031   -1.648328
     86          1           0       -8.739542    2.226161    0.580220
     87          1           0       -6.715308    5.129838    0.238450
     88          1           0       -7.721600    4.300440    1.367566
     89          1           0       -8.533687    5.106882    0.076743
     90          1           0       -8.614805    0.773038   -2.200387
     91          1           0       -9.187006    2.356840   -2.305229
     92          1           0      -11.249850    1.665919   -1.749137
     93          1           0      -10.748652    0.929624   -0.171894
     94          1           0      -10.691667    0.021590   -1.604673
     95          1           0       -8.697015   -2.512608    1.946600
     96          1           0       -7.914905   -4.059107    2.486965
     97          1           0       -8.456056   -4.020959    0.935463
     98          1           0       -2.812567   -4.769250    0.127500
     99          1           0       -1.470125   -7.929666    2.606997
    100          1           0       -1.761550   -6.892466    3.925589
    101          1           0       -0.408681   -6.498260    2.913237
    102          1           0        4.138391   -4.201339   -3.103774
    103          1           0        4.301504   -5.956866   -2.445477
    104          1           0        5.551565   -4.609921   -0.452159
    105          1           0        6.182753   -4.540403   -3.925304
    106          1           0        7.975488   -4.372109   -3.834201
    107          1           0        6.980620   -2.939224   -3.733621
    108          1           0        8.412533   -4.812874   -0.864855
    109          1           0        7.524302   -3.646168   -0.005011
    110          1           0        8.639658   -1.952070   -2.131194
    111          1           0        9.749150   -3.310889   -2.026186
    112          1           0       10.601616   -2.649766    0.125537
    113          1           0        9.065931   -2.197712    0.670830
    114          1           0        9.644409   -0.213095   -1.325726
    115          1           0       11.806453    0.274574   -1.336483
    116          1           0       12.207621   -1.329508   -0.828387
    117          1           0       12.065152   -0.198184    0.376359
    118          1           0       10.108158    0.505672    1.597429
    119          1           0        8.587122   -0.128554    1.152969
    120          1           0        8.447595    1.700848   -0.587545
    121          1           0       10.013155    2.090250   -0.370214
    122          1           0        9.837576    3.210397    1.481727
    123          1           0        8.856198    2.251912    2.411106
    124          1           0        7.481510    3.472951    0.222876
    125          1           0        9.555979    5.183440    0.858429
    126          1           0        8.370624    5.664338    2.096688
    127          1           0        7.909981    5.703488    0.404262
    128          1           0        6.937022    4.112785    3.193035
    129          1           0        6.588134    2.595609    2.539048
    130          1           0        4.626431    3.271449    1.670015
    131          1           0        5.426231    4.500784    0.743220
    132          1           0        5.327318    6.028004    2.693181
    133          1           0        4.687671    4.692960    3.609471
    134          1           0        2.988846    4.911695    1.328599
    135          1           0        4.015123    7.523491    1.690637
    136          1           0        2.730319    7.653386    2.670271
    137          1           0        2.381052    7.270517    0.974982
    138          1           0        1.813098    4.137043    3.052358
    139          1           0        1.282505    5.671545    3.250257
    140          1           0        2.566398    5.085188    4.300260
 ---------------------------------------------------------------------

 SCF Done:  E(RZINDO/S) =  -473.990676640     A.U. after   19 cycles

 Excitation energies and oscillator strengths:

 Excited State   1:      Singlet-A      1.2621 eV  982.35 nm  f=0.6125  <S**2>=0.000
     175 ->178        -0.19239
     176 ->177         0.66068
 This state for optimization and/or second-order correction.
 Total Energy, E(CIS/TDA) =  -473.944294496
 Copying the excited state density for this state as the 1-particle RhoCI density.

 Excited State   2:      Singlet-A      1.9438 eV  637.84 nm  f=0.0098  <S**2>=0.000
     175 ->177         0.51679
     176 ->178         0.46011

 Excited State   3:      Singlet-A      2.8905 eV  428.93 nm  f=0.0257  <S**2>=0.000
     170 ->177         0.28126
     170 ->178        -0.18453
     170 ->179         0.19011
     170 ->181         0.35034
     170 ->182        -0.21192
     170 ->186         0.14797
     170 ->187         0.21890
     176 ->179        -0.13981

 Excited State   4:      Singlet-A      2.9049 eV  426.81 nm  f=0.0420  <S**2>=0.000
     168 ->177        -0.20205
     168 ->179         0.33156
     168 ->186         0.13750
     170 ->181         0.11246
     171 ->177        -0.11771
     171 ->179         0.13974
     176 ->179         0.38298

 Excited State   5:      Singlet-A      2.9455 eV  420.92 nm  f=0.3890  <S**2>=0.000
     168 ->177         0.16396
     168 ->179        -0.26692
     168 ->186        -0.10811
     171 ->177         0.11018
     171 ->179        -0.10124
     175 ->177         0.24492
     176 ->178        -0.29975
     176 ->179         0.35295
     176 ->181         0.15962

 The electronic state is 1-A.
 Alpha  occ. eigenvalues --   -1.84135  -1.80835  -1.78627  -1.71719  -1.70096
 Alpha  occ. eigenvalues --   -1.69394  -1.64614  -1.60956  -1.60115  -1.57698
 Alpha  occ. eigenvalues --   -1.54614  -1.51365  -1.48824  -1.48412  -1.44756
 Alpha  occ. eigenvalues --   -1.44252  -1.42020  -1.39919  -1.39677  -1.37610
 Alpha  occ. eigenvalues --   -1.36296  -1.32872  -1.32447  -1.31042  -1.29068
 Alpha  occ. eigenvalues --   -1.27313  -1.25344  -1.21069  -1.19763  -1.18273
 Alpha  occ. eigenvalues --   -1.17354  -1.15873  -1.15589  -1.14676  -1.13647
 Alpha  occ. eigenvalues --   -1.12215  -1.11468  -1.10688  -1.05732  -1.04133
 Alpha  occ. eigenvalues --   -1.03527  -1.02052  -0.98869  -0.97494  -0.96883
 Alpha  occ. eigenvalues --   -0.96414  -0.94813  -0.94728  -0.93240  -0.92510
 Alpha  occ. eigenvalues --   -0.90907  -0.90414  -0.89296  -0.88665  -0.86895
 Alpha  occ. eigenvalues --   -0.86400  -0.84210  -0.83357  -0.82358  -0.79973
 Alpha  occ. eigenvalues --   -0.79204  -0.78522  -0.76793  -0.76521  -0.76161
 Alpha  occ. eigenvalues --   -0.75088  -0.74540  -0.74455  -0.74109  -0.73330
 Alpha  occ. eigenvalues --   -0.72247  -0.72053  -0.71839  -0.70971  -0.70525
 Alpha  occ. eigenvalues --   -0.69494  -0.69371  -0.68780  -0.68444  -0.67930
 Alpha  occ. eigenvalues --   -0.67202  -0.67036  -0.66857  -0.66406  -0.65981
 Alpha  occ. eigenvalues --   -0.65739  -0.65267  -0.65023  -0.63939  -0.63705
 Alpha  occ. eigenvalues --   -0.63156  -0.62930  -0.62677  -0.61866  -0.61413
 Alpha  occ. eigenvalues --   -0.60846  -0.60490  -0.60281  -0.60138  -0.59922
 Alpha  occ. eigenvalues --   -0.59462  -0.59422  -0.59336  -0.59127  -0.58646
 Alpha  occ. eigenvalues --   -0.57841  -0.57647  -0.57432  -0.57042  -0.56379
 Alpha  occ. eigenvalues --   -0.56131  -0.55821  -0.55363  -0.54680  -0.54361
 Alpha  occ. eigenvalues --   -0.54342  -0.53992  -0.53763  -0.53357  -0.53108
 Alpha  occ. eigenvalues --   -0.52829  -0.52126  -0.52076  -0.51775  -0.51664
 Alpha  occ. eigenvalues --   -0.51298  -0.51284  -0.51092  -0.50918  -0.50722
 Alpha  occ. eigenvalues --   -0.50389  -0.49931  -0.49864  -0.49642  -0.49045
 Alpha  occ. eigenvalues --   -0.48860  -0.48332  -0.48192  -0.47986  -0.47901
 Alpha  occ. eigenvalues --   -0.47421  -0.47087  -0.46901  -0.46642  -0.46455
 Alpha  occ. eigenvalues --   -0.46287  -0.46225  -0.45815  -0.45689  -0.45669
 Alpha  occ. eigenvalues --   -0.45253  -0.45125  -0.44742  -0.44590  -0.44195
 Alpha  occ. eigenvalues --   -0.43992  -0.43896  -0.42906  -0.42807  -0.42672
 Alpha  occ. eigenvalues --   -0.42378  -0.41886  -0.41718  -0.39756  -0.39143
 Alpha  occ. eigenvalues --   -0.38682  -0.37564  -0.35712  -0.34911  -0.34230
 Alpha  occ. eigenvalues --   -0.33261  -0.32716  -0.32383  -0.31929  -0.26584
 Alpha  occ. eigenvalues --   -0.21480
 Alpha virt. eigenvalues --   -0.08101  -0.02263  -0.01026   0.00179   0.01069
 Alpha virt. eigenvalues --    0.01926   0.02256   0.02888   0.04658   0.04943
 Alpha virt. eigenvalues --    0.06478   0.06829   0.07404   0.07551   0.07791

 Mulliken charges:
               1
     1  Mg   0.434827
     2  C   -0.054718
     3  C   -0.114166
     4  C   -0.043970
     5  C   -0.048267
     6  N   -0.300236
     7  C    0.121898
     8  C    0.002697
     9  C    0.008589
    10  C    0.116034
    11  C   -0.047734
    12  C   -0.018258
    13  C    0.009791
    14  C    0.466681
    15  O   -0.542737
    16  O   -0.260119
    17  N   -0.288914
    18  C    0.134964
    19  C   -0.018619
    20  C   -0.042739
    21  C    0.092975
    22  C   -0.039053
    23  C    0.336288
    24  O   -0.531171
    25  C   -0.031032
    26  N   -0.248345
    27  C    0.118803
    28  C   -0.005558
    29  C    0.002072
    30  C    0.110830
    31  C   -0.052644
    32  C   -0.024591
    33  C   -0.055756
    34  N   -0.327548
    35  C    0.105630
    36  C    0.037937
    37  C   -0.050765
    38  C    0.143981
    39  C   -0.032853
    40  C    0.328764
    41  O   -0.518006
    42  C    0.059230
    43  C    0.485745
    44  O   -0.507446
    45  O   -0.266517
    46  C    0.073373
    47  C    0.109716
    48  C   -0.102489
    49  C   -0.016556
    50  C   -0.045249
    51  C   -0.028903
    52  C   -0.043632
    53  C   -0.032061
    54  C   -0.001880
    55  C   -0.057426
    56  C   -0.039119
    57  C   -0.033645
    58  C   -0.039661
    59  C   -0.011521
    60  C   -0.056021
    61  C   -0.032572
    62  C   -0.032556
    63  C   -0.028379
    64  C    0.001222
    65  C   -0.063624
    66  C   -0.055100
    67  H    0.013222
    68  H    0.038194
    69  H    0.019836
    70  H    0.038616
    71  H    0.024405
    72  H    0.032948
    73  H    0.018890
    74  H    0.017262
    75  H    0.042986
    76  H    0.023798
    77  H    0.047675
    78  H    0.032316
    79  H    0.028386
    80  H    0.019796
    81  H    0.027564
    82  H    0.036649
    83  H    0.037041
    84  H    0.033641
    85  H    0.035368
    86  H    0.039982
    87  H    0.025424
    88  H    0.017793
    89  H    0.024031
    90  H    0.026850
    91  H    0.020969
    92  H    0.021955
    93  H    0.024584
    94  H    0.014488
    95  H    0.030476
    96  H    0.045017
    97  H    0.037820
    98  H    0.050639
    99  H    0.028738
   100  H    0.049105
   101  H    0.036964
   102  H    0.069334
   103  H    0.059262
   104  H    0.021843
   105  H    0.023930
   106  H    0.026161
   107  H    0.030884
   108  H    0.026011
   109  H    0.026687
   110  H    0.033583
   111  H    0.018806
   112  H    0.020380
   113  H    0.015945
   114  H    0.023897
   115  H    0.013175
   116  H    0.016939
   117  H    0.015513
   118  H    0.021344
   119  H    0.015061
   120  H    0.017569
   121  H    0.013071
   122  H    0.003761
   123  H    0.024023
   124  H    0.018804
   125  H    0.027005
   126  H    0.019000
   127  H    0.011939
   128  H    0.018918
   129  H    0.010072
   130  H    0.015114
   131  H    0.013124
   132  H    0.020788
   133  H    0.015825
   134  H    0.021454
   135  H    0.013212
   136  H    0.016106
   137  H    0.026853
   138  H    0.006273
   139  H    0.011199
   140  H    0.023816
 Sum of Mulliken charges =  -0.00000

 Dipole moment (field-independent basis, Debye):
    X=              4.3087    Y=             -0.3865    Z=              0.3905  Tot=              4.3436
 N-N= 4.444054476816D+03 E-N= 0.000000000000D+00  KE=-9.561877677001D+03
 Leave Link  601 at Wed May  4 21:55:04 2022, MaxMem=  6710886400 cpu:               0.9 elap:               0.1
 (Enter /sw/apps/gaussian-16.0/g16/l9999.exe)
 1\1\GINC-BP1-COMPUTE179\SP\RZINDO CIS\STO-3G\C55H74Mg1N4O6\OF15641\04-
 May-2022\0\\#p ZINDO=(nstates=5)\\step_451_chromophore_12 ZINDO\\0,1\M
 g,0,47.996,15.565,28.437\C,0,45.821,15.143,31.176\C,0,49.844,17.553,30
 .182\C,0,49.79,16.122,25.582\C,0,45.488,13.997,26.484\N,0,47.812,16.22
 4,30.49\C,0,46.898,15.93,31.492\C,0,47.435,16.441,32.902\C,0,48.406,17
 .554,32.48\C,0,48.679,17.16,30.898\C,0,47.954,18.947,32.793\C,0,48.138
 ,15.254,33.716\C,0,47.877,15.353,35.2\C,0,49.119,15.339,36.078\O,0,50.

 Normal termination of Gaussian 16 at Wed May  4 21:55:05 2022.
