 Gaussian 16, Revision A.03,
 Gaussian 16:  ES64L-G16RevA.03 25-Dec-2016

 ------------------------------
 #p blyp/Def2SVP td=(nstates=5)
 ------------------------------

 --------------------------------------------------
 step_501_chromophore_12 TDDFT with blyp functional
 --------------------------------------------------
 Symbolic Z-matrix:
 Charge =  0 Multiplicity = 1

                         Standard orientation:
 ---------------------------------------------------------------------
 Center     Atomic      Atomic             Coordinates (Angstroms)
 Number     Number       Type             X           Y           Z
 ---------------------------------------------------------------------
      1         12           0        4.211738    0.473088    0.285027
      2          6           0        3.215866   -2.828536   -0.436369
      3          6           0        0.942538    1.358139    0.529388
      4          6           0        5.221326    3.650117    0.857011
      5          6           0        7.489008   -0.429436   -0.424545
      6          7           0        2.326175   -0.564104   -0.020269
      7          6           0        2.154436   -1.939835   -0.196437
      8          6           0        0.699286   -2.278954   -0.073504
      9          6           0        0.019233   -0.901899   -0.260634
     10          6           0        1.187442    0.046376    0.113600
     11          6           0       -0.509168   -0.546017   -1.686092
     12          6           0        0.271699   -3.000895    1.259510
     13          6           0       -0.602832   -4.197997    1.062159
     14          6           0       -1.825638   -4.317271    1.990870
     15          8           0       -1.763368   -4.551109    3.196552
     16          8           0       -3.073415   -4.196366    1.374579
     17          7           0        3.229419    2.178651    0.735423
     18          6           0        1.843141    2.346438    0.889133
     19          6           0        1.557142    3.669846    1.277395
     20          6           0        2.828237    4.406267    1.397092
     21          6           0        3.808589    3.430816    1.013749
     22          6           0        0.187923    4.271827    1.400608
     23          6           0        3.165954    5.922471    1.737626
     24          8           0        4.310561    6.304112    1.800254
     25          6           0        2.063915    6.909659    2.094751
     26          7           0        6.084106    1.488338    0.114824
     27          6           0        6.213254    2.811226    0.393728
     28          6           0        7.730389    3.277927    0.168220
     29          6           0        8.512338    1.897053    0.050510
     30          6           0        7.289304    0.895967   -0.103165
     31          6           0        7.993497    4.197657   -1.056111
     32          6           0        9.417507    1.560383    1.288643
     33          6           0       10.795654    1.251517    0.877540
     34          7           0        5.174495   -1.243369   -0.354865
     35          6           0        6.538990   -1.491308   -0.496488
     36          6           0        6.751883   -2.872807   -0.832337
     37          6           0        5.484805   -3.419337   -0.846155
     38          6           0        4.583588   -2.450202   -0.536071
     39          6           0        8.168232   -3.480055   -1.007723
     40          6           0        4.727723   -4.633979   -1.086983
     41          8           0        5.133604   -5.694641   -1.508327
     42          6           0        3.176459   -4.282101   -0.845688
     43          6           0        2.427491   -4.546295   -2.087908
     44          8           0        2.675744   -4.007843   -3.198556
     45          8           0        1.473272   -5.484475   -1.823138
     46          6           0        0.897214   -6.130384   -3.032260
     47          6           0       -4.220091   -4.474271    2.274302
     48          6           0       -5.552913   -4.430613    1.581472
     49          6           0       -6.606731   -3.880024    2.241729
     50          6           0       -6.620991   -3.311059    3.646946
     51          6           0       -7.923909   -3.603491    1.498043
     52          6           0       -8.501626   -2.172561    1.259397
     53          6           0       -9.332261   -2.237841    0.081429
     54          6           0      -10.040395   -0.803439   -0.151883
     55          6           0      -11.492674   -0.826517    0.288923
     56          6           0       -9.888033   -0.177636   -1.573234
     57          6           0       -8.758325    0.878395   -1.678518
     58          6           0       -9.210290    2.361567   -1.669329
     59          6           0       -8.457099    3.284088   -0.728386
     60          6           0       -9.203643    3.474282    0.669508
     61          6           0       -8.214578    4.696952   -1.339356
     62          6           0       -6.808810    4.770253   -2.152030
     63          6           0       -5.768890    5.841918   -1.876872
     64          6           0       -4.317649    5.264920   -1.706198
     65          6           0       -3.602903    4.729541   -2.971062
     66          6           0       -4.295996    4.193445   -0.591483
     67          1           0       -0.126986    1.577427    0.549623
     68          1           0        5.630597    4.650591    1.010859
     69          1           0        8.511639   -0.679427   -0.712951
     70          1           0        0.308901   -2.867135   -0.904894
     71          1           0       -0.843149   -0.750555    0.388818
     72          1           0       -0.884999   -1.403775   -2.245390
     73          1           0        0.312092   -0.062395   -2.215632
     74          1           0       -1.267437    0.235426   -1.728817
     75          1           0       -0.208061   -2.225766    1.856791
     76          1           0        1.138050   -3.283079    1.858477
     77          1           0        0.115806   -5.004950    1.206154
     78          1           0       -1.043201   -4.168024    0.065611
     79          1           0       -0.158077    4.454845    2.418141
     80          1           0       -0.547513    3.565061    1.018386
     81          1           0       -0.015057    5.207369    0.880087
     82          1           0        2.576537    7.814646    2.418510
     83          1           0        1.349183    6.478266    2.796189
     84          1           0        1.381584    7.019526    1.251358
     85          1           0        8.051246    3.908117    0.997845
     86          1           0        9.103021    1.916240   -0.866576
     87          1           0        7.142609    4.391773   -1.709940
     88          1           0        8.770710    3.815895   -1.718622
     89          1           0        8.343945    5.150832   -0.659308
     90          1           0        9.029449    0.659998    1.766354
     91          1           0        9.505150    2.364257    2.019248
     92          1           0       11.411042    2.137360    1.036831
     93          1           0       10.974541    0.846036   -0.117666
     94          1           0       11.172322    0.421691    1.475647
     95          1           0        8.899027   -2.805848   -0.560452
     96          1           0        8.354185   -3.770303   -2.042796
     97          1           0        8.151397   -4.372734   -0.383578
     98          1           0        2.754519   -4.865921   -0.027235
     99          1           0        0.247136   -6.956881   -2.745683
    100          1           0        1.744955   -6.606836   -3.525110
    101          1           0        0.437120   -5.337143   -3.622148
    102          1           0       -4.364617   -3.746975    3.073570
    103          1           0       -4.048218   -5.359988    2.885414
    104          1           0       -5.608945   -4.636788    0.512695
    105          1           0       -5.911231   -2.539417    3.943343
    106          1           0       -6.352592   -4.121989    4.323500
    107          1           0       -7.660176   -3.085990    3.889505
    108          1           0       -8.567429   -4.369587    1.931572
    109          1           0       -7.689658   -3.905232    0.477189
    110          1           0       -7.816054   -1.326989    1.216725
    111          1           0       -9.068033   -1.977063    2.170221
    112          1           0      -10.080922   -3.018427   -0.052993
    113          1           0       -8.663136   -2.358888   -0.769997
    114          1           0       -9.603438   -0.058601    0.513535
    115          1           0      -11.662929    0.156627    0.727829
    116          1           0      -11.708159   -1.487198    1.128766
    117          1           0      -12.217715   -1.015776   -0.501516
    118          1           0      -10.753167    0.323244   -2.006937
    119          1           0       -9.724383   -1.015926   -2.249797
    120          1           0       -8.390083    0.630767   -2.674305
    121          1           0       -8.112806    0.617770   -0.838974
    122          1           0      -10.273641    2.395075   -1.429124
    123          1           0       -9.164713    2.825220   -2.654069
    124          1           0       -7.481279    2.872257   -0.469629
    125          1           0       -8.379725    3.863818    1.266058
    126          1           0       -9.503573    2.452766    0.903618
    127          1           0      -10.045362    4.165455    0.714559
    128          1           0       -8.240517    5.492565   -0.595114
    129          1           0       -9.042061    4.954478   -1.999700
    130          1           0       -7.224240    4.996348   -3.133277
    131          1           0       -6.371068    3.771853   -2.175459
    132          1           0       -5.940794    6.480467   -1.010555
    133          1           0       -5.636067    6.525238   -2.715968
    134          1           0       -3.727299    6.127785   -1.397578
    135          1           0       -4.387267    4.753736   -3.728271
    136          1           0       -3.135399    3.753174   -2.844135
    137          1           0       -2.887585    5.507091   -3.239037
    138          1           0       -3.489136    4.430453    0.101620
    139          1           0       -4.164177    3.208064   -1.039200
    140          1           0       -5.167799    4.209157    0.061985
 ---------------------------------------------------------------------

 SCF Done:  E(RB-LYP) =  -3007.37819115     A.U. after   21 cycles

 Excitation energies and oscillator strengths:

 Excited State   1:      Singlet-A      1.8537 eV  668.84 nm  f=0.2985  <S**2>=0.000
     245 -> 248       -0.19472
     246 -> 247        0.68989
     246 <- 247       -0.15031
 This state for optimization and/or second-order correction.
 Total Energy, E(TD-HF/TD-DFT) =  -3007.31006830
 Copying the excited state density for this state as the 1-particle RhoCI density.

 Excited State   2:      Singlet-A      2.0023 eV  619.22 nm  f=0.0391  <S**2>=0.000
     244 -> 247        0.56315
     245 -> 247       -0.39867
     246 -> 248       -0.12546

 Excited State   3:      Singlet-A      2.0133 eV  615.81 nm  f=0.0765  <S**2>=0.000
     244 -> 247        0.42628
     245 -> 247        0.52496
     246 -> 248        0.17826

 Excited State   4:      Singlet-A      2.1327 eV  581.34 nm  f=0.0004  <S**2>=0.000
     243 -> 247        0.70598

 Excited State   5:      Singlet-A      2.2042 eV  562.48 nm  f=0.0001  <S**2>=0.000
     242 -> 247        0.70680

 The electronic state is 1-A.
 Alpha  occ. eigenvalues --  -46.25841 -18.82763 -18.82215 -18.76534 -18.76527
 Alpha  occ. eigenvalues --  -18.76509 -18.76048 -14.03189 -14.02832 -14.00849
 Alpha  occ. eigenvalues --  -14.00357 -10.04166 -10.03992 -10.00978  -9.99892
 Alpha  occ. eigenvalues --   -9.98157  -9.97351  -9.96742  -9.96269  -9.96140
 Alpha  occ. eigenvalues --   -9.96137  -9.96019  -9.95464  -9.95189  -9.94143
 Alpha  occ. eigenvalues --   -9.94011  -9.93942  -9.93916  -9.93884  -9.93846
 Alpha  occ. eigenvalues --   -9.93815  -9.93723  -9.93694  -9.93415  -9.93376
 Alpha  occ. eigenvalues --   -9.93197  -9.93165  -9.93149  -9.92744  -9.92594
 Alpha  occ. eigenvalues --   -9.92588  -9.92532  -9.92508  -9.92420  -9.92267
 Alpha  occ. eigenvalues --   -9.92161  -9.92150  -9.92086  -9.92045  -9.92012
 Alpha  occ. eigenvalues --   -9.91911  -9.91821  -9.91733  -9.91683  -9.91533
 Alpha  occ. eigenvalues --   -9.91524  -9.91470  -9.91418  -9.91255  -9.91244
 Alpha  occ. eigenvalues --   -9.91171  -9.91144  -9.91144  -9.91071  -9.90745
 Alpha  occ. eigenvalues --   -9.90596  -2.90655  -1.71085  -1.70525  -1.70378
 Alpha  occ. eigenvalues --   -0.97341  -0.96904  -0.93130  -0.92075  -0.88793
 Alpha  occ. eigenvalues --   -0.88475  -0.87227  -0.85932  -0.85080  -0.83886
 Alpha  occ. eigenvalues --   -0.75598  -0.74148  -0.73449  -0.72916  -0.72201
 Alpha  occ. eigenvalues --   -0.72047  -0.71426  -0.71304  -0.70547  -0.69867
 Alpha  occ. eigenvalues --   -0.69451  -0.69403  -0.68818  -0.67754  -0.67272
 Alpha  occ. eigenvalues --   -0.66411  -0.66094  -0.65444  -0.65101  -0.64870
 Alpha  occ. eigenvalues --   -0.64407  -0.62610  -0.62427  -0.61499  -0.60971
 Alpha  occ. eigenvalues --   -0.60610  -0.60377  -0.59863  -0.59715  -0.59426
 Alpha  occ. eigenvalues --   -0.58230  -0.57687  -0.56193  -0.55560  -0.53980
 Alpha  occ. eigenvalues --   -0.53868  -0.53588  -0.52910  -0.52335  -0.51797
 Alpha  occ. eigenvalues --   -0.51505  -0.51208  -0.50550  -0.50145  -0.50097
 Alpha  occ. eigenvalues --   -0.49721  -0.49323  -0.48308  -0.47244  -0.46848
 Alpha  occ. eigenvalues --   -0.46485  -0.46125  -0.45847  -0.44841  -0.44397
 Alpha  occ. eigenvalues --   -0.44191  -0.43729  -0.42919  -0.42673  -0.42462
 Alpha  occ. eigenvalues --   -0.42267  -0.41943  -0.41898  -0.41396  -0.41326
 Alpha  occ. eigenvalues --   -0.41299  -0.41068  -0.40652  -0.40464  -0.40419
 Alpha  occ. eigenvalues --   -0.39873  -0.39520  -0.39420  -0.39308  -0.39185
 Alpha  occ. eigenvalues --   -0.38875  -0.38809  -0.38671  -0.38612  -0.38434
 Alpha  occ. eigenvalues --   -0.38338  -0.38021  -0.37945  -0.37543  -0.37318
 Alpha  occ. eigenvalues --   -0.37107  -0.36848  -0.36803  -0.36750  -0.36684
 Alpha  occ. eigenvalues --   -0.36476  -0.35892  -0.35769  -0.35632  -0.35552
 Alpha  occ. eigenvalues --   -0.35429  -0.35047  -0.34911  -0.34870  -0.34713
 Alpha  occ. eigenvalues --   -0.34665  -0.34526  -0.34395  -0.34240  -0.34158
 Alpha  occ. eigenvalues --   -0.34092  -0.33848  -0.33502  -0.33401  -0.33331
 Alpha  occ. eigenvalues --   -0.33141  -0.33002  -0.32819  -0.32756  -0.32457
 Alpha  occ. eigenvalues --   -0.32246  -0.32097  -0.32051  -0.31960  -0.31660
 Alpha  occ. eigenvalues --   -0.31547  -0.31450  -0.31143  -0.30957  -0.30793
 Alpha  occ. eigenvalues --   -0.30655  -0.30481  -0.30383  -0.30099  -0.29885
 Alpha  occ. eigenvalues --   -0.29638  -0.29461  -0.29349  -0.29061  -0.29009
 Alpha  occ. eigenvalues --   -0.28310  -0.28236  -0.28083  -0.28050  -0.27832
 Alpha  occ. eigenvalues --   -0.27410  -0.27343  -0.27249  -0.27174  -0.26905
 Alpha  occ. eigenvalues --   -0.26451  -0.26365  -0.25494  -0.25340  -0.25144
 Alpha  occ. eigenvalues --   -0.25052  -0.24929  -0.24793  -0.23953  -0.23538
 Alpha  occ. eigenvalues --   -0.23483  -0.22400  -0.21481  -0.21437  -0.20814
 Alpha  occ. eigenvalues --   -0.20214  -0.19922  -0.19579  -0.19102  -0.17338
 Alpha  occ. eigenvalues --   -0.16198
 Alpha virt. eigenvalues --   -0.11823  -0.06631  -0.06006  -0.04401  -0.03387
 Alpha virt. eigenvalues --   -0.03289  -0.02481  -0.01552  -0.00829   0.00177
 Alpha virt. eigenvalues --    0.00930   0.01411   0.01503   0.02028   0.02854

 Mulliken charges:
               1
     1  Mg   0.703112
     2  C    0.004177
     3  C   -0.085373
     4  C   -0.029281
     5  C   -0.072556
     6  N   -0.177809
     7  C   -0.055059
     8  C    0.013239
     9  C   -0.028908
    10  C   -0.008960
    11  C    0.120769
    12  C    0.124530
    13  C    0.173040
    14  C    0.073240
    15  O   -0.208608
    16  O   -0.285611
    17  N   -0.349063
    18  C    0.223718
    19  C   -0.121937
    20  C    0.017655
    21  C    0.108800
    22  C    0.138982
    23  C   -0.049975
    24  O   -0.141737
    25  C    0.130997
    26  N   -0.211215
    27  C    0.032090
    28  C   -0.014563
    29  C    0.016721
    30  C    0.028254
    31  C    0.110814
    32  C    0.131049
    33  C    0.044667
    34  N   -0.266818
    35  C    0.117577
    36  C   -0.205876
    37  C    0.141682
    38  C    0.049195
    39  C    0.179569
    40  C   -0.071732
    41  O   -0.112661
    42  C    0.101026
    43  C    0.122405
    44  O   -0.216947
    45  O   -0.278348
    46  C    0.224622
    47  C    0.313821
    48  C   -0.056093
    49  C   -0.196971
    50  C    0.153503
    51  C    0.107269
    52  C    0.111534
    53  C    0.117123
    54  C   -0.087579
    55  C    0.104715
    56  C    0.078891
    57  C    0.079225
    58  C    0.140902
    59  C   -0.108691
    60  C    0.084053
    61  C    0.091872
    62  C    0.061827
    63  C    0.118357
    64  C   -0.142789
    65  C    0.124901
    66  C    0.092897
    67  H   -0.071167
    68  H   -0.046682
    69  H   -0.062836
    70  H   -0.024808
    71  H   -0.034953
    72  H    0.000285
    73  H   -0.004096
    74  H   -0.012537
    75  H   -0.018577
    76  H   -0.019029
    77  H    0.016848
    78  H   -0.012007
    79  H    0.000594
    80  H   -0.023803
    81  H   -0.002284
    82  H    0.011398
    83  H   -0.001706
    84  H    0.001207
    85  H   -0.022500
    86  H   -0.018517
    87  H   -0.003469
    88  H   -0.015464
    89  H   -0.007762
    90  H   -0.019619
    91  H   -0.014951
    92  H   -0.006621
    93  H   -0.013793
    94  H   -0.021072
    95  H   -0.011604
    96  H    0.018581
    97  H    0.002199
    98  H   -0.017910
    99  H    0.017871
   100  H    0.023093
   101  H    0.026569
   102  H   -0.034333
   103  H    0.000250
   104  H   -0.036212
   105  H    0.021688
   106  H   -0.009064
   107  H   -0.014785
   108  H   -0.007246
   109  H   -0.045414
   110  H   -0.023094
   111  H   -0.035614
   112  H   -0.024514
   113  H   -0.037816
   114  H   -0.031160
   115  H   -0.025936
   116  H   -0.030435
   117  H   -0.008818
   118  H   -0.042823
   119  H   -0.043451
   120  H   -0.030852
   121  H   -0.018430
   122  H   -0.037967
   123  H   -0.039826
   124  H   -0.027904
   125  H   -0.011444
   126  H   -0.015458
   127  H   -0.004170
   128  H   -0.046248
   129  H   -0.035656
   130  H   -0.030518
   131  H   -0.012824
   132  H   -0.029712
   133  H   -0.041028
   134  H   -0.043007
   135  H   -0.017996
   136  H   -0.006358
   137  H   -0.016006
   138  H   -0.019042
   139  H   -0.008868
   140  H   -0.016445
 Sum of Mulliken charges =  -0.00000

 Dipole moment (field-independent basis, Debye):
    X=             -3.7479    Y=              2.5141    Z=              0.5432  Tot=              4.5456
 Quadrupole moment (field-independent basis, Debye-Ang):
   XX=           -374.5975   YY=           -420.6880   ZZ=           -416.4613
   XY=             11.1127   XZ=              8.1820   YZ=             -0.9784

 Normal termination of Gaussian 16 at Fri Apr 29 22:12:00 2022.
