 Gaussian 16, Revision A.03,
 Gaussian 16:  ES64L-G16RevA.03 25-Dec-2016

 -----------------------------------
 #p cam-b3lyp/Def2SVP td=(nstates=5)
 -----------------------------------

 -------------------------------------------------------
 step_501_chromophore_12 TDDFT with cam-b3lyp functional
 -------------------------------------------------------
 Symbolic Z-matrix:
 Charge =  0 Multiplicity = 1

                         Standard orientation:
 ---------------------------------------------------------------------
 Center     Atomic      Atomic             Coordinates (Angstroms)
 Number     Number       Type             X           Y           Z
 ---------------------------------------------------------------------
      1         12           0        4.211738    0.473088    0.285027
      2          6           0        3.215866   -2.828536   -0.436369
      3          6           0        0.942538    1.358139    0.529388
      4          6           0        5.221326    3.650117    0.857011
      5          6           0        7.489008   -0.429436   -0.424545
      6          7           0        2.326175   -0.564104   -0.020269
      7          6           0        2.154436   -1.939835   -0.196437
      8          6           0        0.699286   -2.278954   -0.073504
      9          6           0        0.019233   -0.901899   -0.260634
     10          6           0        1.187442    0.046376    0.113600
     11          6           0       -0.509168   -0.546017   -1.686092
     12          6           0        0.271699   -3.000895    1.259510
     13          6           0       -0.602832   -4.197997    1.062159
     14          6           0       -1.825638   -4.317271    1.990870
     15          8           0       -1.763368   -4.551109    3.196552
     16          8           0       -3.073415   -4.196366    1.374579
     17          7           0        3.229419    2.178651    0.735423
     18          6           0        1.843141    2.346438    0.889133
     19          6           0        1.557142    3.669846    1.277395
     20          6           0        2.828237    4.406267    1.397092
     21          6           0        3.808589    3.430816    1.013749
     22          6           0        0.187923    4.271827    1.400608
     23          6           0        3.165954    5.922471    1.737626
     24          8           0        4.310561    6.304112    1.800254
     25          6           0        2.063915    6.909659    2.094751
     26          7           0        6.084106    1.488338    0.114824
     27          6           0        6.213254    2.811226    0.393728
     28          6           0        7.730389    3.277927    0.168220
     29          6           0        8.512338    1.897053    0.050510
     30          6           0        7.289304    0.895967   -0.103165
     31          6           0        7.993497    4.197657   -1.056111
     32          6           0        9.417507    1.560383    1.288643
     33          6           0       10.795654    1.251517    0.877540
     34          7           0        5.174495   -1.243369   -0.354865
     35          6           0        6.538990   -1.491308   -0.496488
     36          6           0        6.751883   -2.872807   -0.832337
     37          6           0        5.484805   -3.419337   -0.846155
     38          6           0        4.583588   -2.450202   -0.536071
     39          6           0        8.168232   -3.480055   -1.007723
     40          6           0        4.727723   -4.633979   -1.086983
     41          8           0        5.133604   -5.694641   -1.508327
     42          6           0        3.176459   -4.282101   -0.845688
     43          6           0        2.427491   -4.546295   -2.087908
     44          8           0        2.675744   -4.007843   -3.198556
     45          8           0        1.473272   -5.484475   -1.823138
     46          6           0        0.897214   -6.130384   -3.032260
     47          6           0       -4.220091   -4.474271    2.274302
     48          6           0       -5.552913   -4.430613    1.581472
     49          6           0       -6.606731   -3.880024    2.241729
     50          6           0       -6.620991   -3.311059    3.646946
     51          6           0       -7.923909   -3.603491    1.498043
     52          6           0       -8.501626   -2.172561    1.259397
     53          6           0       -9.332261   -2.237841    0.081429
     54          6           0      -10.040395   -0.803439   -0.151883
     55          6           0      -11.492674   -0.826517    0.288923
     56          6           0       -9.888033   -0.177636   -1.573234
     57          6           0       -8.758325    0.878395   -1.678518
     58          6           0       -9.210290    2.361567   -1.669329
     59          6           0       -8.457099    3.284088   -0.728386
     60          6           0       -9.203643    3.474282    0.669508
     61          6           0       -8.214578    4.696952   -1.339356
     62          6           0       -6.808810    4.770253   -2.152030
     63          6           0       -5.768890    5.841918   -1.876872
     64          6           0       -4.317649    5.264920   -1.706198
     65          6           0       -3.602903    4.729541   -2.971062
     66          6           0       -4.295996    4.193445   -0.591483
     67          1           0       -0.126986    1.577427    0.549623
     68          1           0        5.630597    4.650591    1.010859
     69          1           0        8.511639   -0.679427   -0.712951
     70          1           0        0.308901   -2.867135   -0.904894
     71          1           0       -0.843149   -0.750555    0.388818
     72          1           0       -0.884999   -1.403775   -2.245390
     73          1           0        0.312092   -0.062395   -2.215632
     74          1           0       -1.267437    0.235426   -1.728817
     75          1           0       -0.208061   -2.225766    1.856791
     76          1           0        1.138050   -3.283079    1.858477
     77          1           0        0.115806   -5.004950    1.206154
     78          1           0       -1.043201   -4.168024    0.065611
     79          1           0       -0.158077    4.454845    2.418141
     80          1           0       -0.547513    3.565061    1.018386
     81          1           0       -0.015057    5.207369    0.880087
     82          1           0        2.576537    7.814646    2.418510
     83          1           0        1.349183    6.478266    2.796189
     84          1           0        1.381584    7.019526    1.251358
     85          1           0        8.051246    3.908117    0.997845
     86          1           0        9.103021    1.916240   -0.866576
     87          1           0        7.142609    4.391773   -1.709940
     88          1           0        8.770710    3.815895   -1.718622
     89          1           0        8.343945    5.150832   -0.659308
     90          1           0        9.029449    0.659998    1.766354
     91          1           0        9.505150    2.364257    2.019248
     92          1           0       11.411042    2.137360    1.036831
     93          1           0       10.974541    0.846036   -0.117666
     94          1           0       11.172322    0.421691    1.475647
     95          1           0        8.899027   -2.805848   -0.560452
     96          1           0        8.354185   -3.770303   -2.042796
     97          1           0        8.151397   -4.372734   -0.383578
     98          1           0        2.754519   -4.865921   -0.027235
     99          1           0        0.247136   -6.956881   -2.745683
    100          1           0        1.744955   -6.606836   -3.525110
    101          1           0        0.437120   -5.337143   -3.622148
    102          1           0       -4.364617   -3.746975    3.073570
    103          1           0       -4.048218   -5.359988    2.885414
    104          1           0       -5.608945   -4.636788    0.512695
    105          1           0       -5.911231   -2.539417    3.943343
    106          1           0       -6.352592   -4.121989    4.323500
    107          1           0       -7.660176   -3.085990    3.889505
    108          1           0       -8.567429   -4.369587    1.931572
    109          1           0       -7.689658   -3.905232    0.477189
    110          1           0       -7.816054   -1.326989    1.216725
    111          1           0       -9.068033   -1.977063    2.170221
    112          1           0      -10.080922   -3.018427   -0.052993
    113          1           0       -8.663136   -2.358888   -0.769997
    114          1           0       -9.603438   -0.058601    0.513535
    115          1           0      -11.662929    0.156627    0.727829
    116          1           0      -11.708159   -1.487198    1.128766
    117          1           0      -12.217715   -1.015776   -0.501516
    118          1           0      -10.753167    0.323244   -2.006937
    119          1           0       -9.724383   -1.015926   -2.249797
    120          1           0       -8.390083    0.630767   -2.674305
    121          1           0       -8.112806    0.617770   -0.838974
    122          1           0      -10.273641    2.395075   -1.429124
    123          1           0       -9.164713    2.825220   -2.654069
    124          1           0       -7.481279    2.872257   -0.469629
    125          1           0       -8.379725    3.863818    1.266058
    126          1           0       -9.503573    2.452766    0.903618
    127          1           0      -10.045362    4.165455    0.714559
    128          1           0       -8.240517    5.492565   -0.595114
    129          1           0       -9.042061    4.954478   -1.999700
    130          1           0       -7.224240    4.996348   -3.133277
    131          1           0       -6.371068    3.771853   -2.175459
    132          1           0       -5.940794    6.480467   -1.010555
    133          1           0       -5.636067    6.525238   -2.715968
    134          1           0       -3.727299    6.127785   -1.397578
    135          1           0       -4.387267    4.753736   -3.728271
    136          1           0       -3.135399    3.753174   -2.844135
    137          1           0       -2.887585    5.507091   -3.239037
    138          1           0       -3.489136    4.430453    0.101620
    139          1           0       -4.164177    3.208064   -1.039200
    140          1           0       -5.167799    4.209157    0.061985
 ---------------------------------------------------------------------

 SCF Done:  E(RCAM-B3LYP) =  -3007.16844617     A.U. after   18 cycles

 Excitation energies and oscillator strengths:

 Excited State   1:      Singlet-A      1.7450 eV  710.52 nm  f=0.3932  <S**2>=0.000
     245 -> 248        0.17833
     246 -> 247        0.68454
     245 <- 248        0.10679
 This state for optimization and/or second-order correction.
 Total Energy, E(TD-HF/TD-DFT) =  -3007.10431924
 Copying the excited state density for this state as the 1-particle RhoCI density.

 Excited State   2:      Singlet-A      2.2019 eV  563.07 nm  f=0.1641  <S**2>=0.000
     245 -> 247        0.65371
     246 -> 248       -0.25036

 Excited State   3:      Singlet-A      3.1934 eV  388.25 nm  f=0.0029  <S**2>=0.000
     242 -> 247        0.23219
     243 -> 247        0.61703
     244 -> 247       -0.21910

 Excited State   4:      Singlet-A      3.4549 eV  358.86 nm  f=0.0013  <S**2>=0.000
     242 -> 247        0.63244
     243 -> 247       -0.22482
     246 -> 248        0.16163

 Excited State   5:      Singlet-A      3.6343 eV  341.15 nm  f=0.0026  <S**2>=0.000
     241 -> 247        0.58236
     241 -> 249        0.27760
     241 -> 250        0.22047

 The electronic state is 1-A.
 Alpha  occ. eigenvalues --  -46.87239 -19.25784 -19.25093 -19.19931 -19.19614
 Alpha  occ. eigenvalues --  -19.19571 -19.19095 -14.42150 -14.41555 -14.39342
 Alpha  occ. eigenvalues --  -14.38613 -10.39548 -10.39531 -10.36385 -10.35104
 Alpha  occ. eigenvalues --  -10.32252 -10.31417 -10.31143 -10.30708 -10.30686
 Alpha  occ. eigenvalues --  -10.30678 -10.30483 -10.29982 -10.29146 -10.29000
 Alpha  occ. eigenvalues --  -10.28243 -10.28161 -10.28051 -10.27961 -10.27919
 Alpha  occ. eigenvalues --  -10.27913 -10.27891 -10.27679 -10.27644 -10.27453
 Alpha  occ. eigenvalues --  -10.27358 -10.27298 -10.27244 -10.27013 -10.26765
 Alpha  occ. eigenvalues --  -10.26400 -10.26214 -10.26172 -10.26146 -10.25947
 Alpha  occ. eigenvalues --  -10.25924 -10.25904 -10.25900 -10.25866 -10.25848
 Alpha  occ. eigenvalues --  -10.25773 -10.25730 -10.25370 -10.25359 -10.25339
 Alpha  occ. eigenvalues --  -10.25218 -10.25215 -10.25193 -10.24935 -10.24931
 Alpha  occ. eigenvalues --  -10.24848 -10.24808 -10.24779 -10.24667 -10.24411
 Alpha  occ. eigenvalues --  -10.24341  -3.15967  -1.90871  -1.90411  -1.90291
 Alpha  occ. eigenvalues --   -1.15869  -1.15352  -1.11751  -1.10382  -1.06626
 Alpha  occ. eigenvalues --   -1.06435  -1.05046  -1.03400  -1.02606  -1.01484
 Alpha  occ. eigenvalues --   -0.92677  -0.91060  -0.90284  -0.89761  -0.88974
 Alpha  occ. eigenvalues --   -0.88707  -0.88082  -0.87960  -0.87096  -0.86461
 Alpha  occ. eigenvalues --   -0.85904  -0.85800  -0.85162  -0.83891  -0.83446
 Alpha  occ. eigenvalues --   -0.82483  -0.82269  -0.81536  -0.80933  -0.80742
 Alpha  occ. eigenvalues --   -0.80224  -0.78281  -0.78190  -0.76970  -0.76381
 Alpha  occ. eigenvalues --   -0.75974  -0.75817  -0.75217  -0.74998  -0.74760
 Alpha  occ. eigenvalues --   -0.73268  -0.72658  -0.71017  -0.70354  -0.68609
 Alpha  occ. eigenvalues --   -0.68429  -0.68113  -0.67318  -0.66752  -0.66087
 Alpha  occ. eigenvalues --   -0.65682  -0.65235  -0.64680  -0.64139  -0.64088
 Alpha  occ. eigenvalues --   -0.63570  -0.63312  -0.62032  -0.61042  -0.60578
 Alpha  occ. eigenvalues --   -0.60242  -0.59569  -0.59343  -0.58298  -0.57804
 Alpha  occ. eigenvalues --   -0.57693  -0.56956  -0.56206  -0.55818  -0.55687
 Alpha  occ. eigenvalues --   -0.55513  -0.55075  -0.55044  -0.54386  -0.54113
 Alpha  occ. eigenvalues --   -0.53885  -0.53868  -0.53424  -0.53254  -0.53076
 Alpha  occ. eigenvalues --   -0.52743  -0.52402  -0.52028  -0.51914  -0.51803
 Alpha  occ. eigenvalues --   -0.51624  -0.51294  -0.51126  -0.50963  -0.50926
 Alpha  occ. eigenvalues --   -0.50761  -0.50500  -0.50495  -0.49903  -0.49814
 Alpha  occ. eigenvalues --   -0.49490  -0.49451  -0.49423  -0.49121  -0.48948
 Alpha  occ. eigenvalues --   -0.48837  -0.48454  -0.47923  -0.47795  -0.47615
 Alpha  occ. eigenvalues --   -0.47427  -0.47010  -0.46937  -0.46727  -0.46714
 Alpha  occ. eigenvalues --   -0.46504  -0.46388  -0.46198  -0.46013  -0.45883
 Alpha  occ. eigenvalues --   -0.45822  -0.45758  -0.45512  -0.45109  -0.45093
 Alpha  occ. eigenvalues --   -0.44920  -0.44706  -0.44679  -0.44517  -0.44117
 Alpha  occ. eigenvalues --   -0.43837  -0.43730  -0.43567  -0.43395  -0.43251
 Alpha  occ. eigenvalues --   -0.43018  -0.42941  -0.42861  -0.42624  -0.42401
 Alpha  occ. eigenvalues --   -0.42041  -0.41968  -0.41959  -0.41775  -0.41171
 Alpha  occ. eigenvalues --   -0.41078  -0.40693  -0.40510  -0.40211  -0.40169
 Alpha  occ. eigenvalues --   -0.39455  -0.39240  -0.39031  -0.38974  -0.38723
 Alpha  occ. eigenvalues --   -0.38408  -0.38269  -0.38181  -0.38088  -0.37895
 Alpha  occ. eigenvalues --   -0.37145  -0.37098  -0.36639  -0.36516  -0.36173
 Alpha  occ. eigenvalues --   -0.36078  -0.35491  -0.35379  -0.34389  -0.34233
 Alpha  occ. eigenvalues --   -0.33898  -0.33683  -0.33215  -0.31807  -0.31367
 Alpha  occ. eigenvalues --   -0.30922  -0.30033  -0.29619  -0.29599  -0.24036
 Alpha  occ. eigenvalues --   -0.21600
 Alpha virt. eigenvalues --   -0.09067  -0.01357   0.00678   0.02744   0.03441
 Alpha virt. eigenvalues --    0.04271   0.04441   0.05005   0.06197   0.06590
 Alpha virt. eigenvalues --    0.07068   0.08002   0.08133   0.08796   0.09059

 Mulliken charges:
               1
     1  Mg   0.837741
     2  C   -0.017993
     3  C   -0.093015
     4  C   -0.052331
     5  C   -0.079804
     6  N   -0.248057
     7  C   -0.019195
     8  C   -0.040139
     9  C   -0.079704
    10  C    0.005983
    11  C    0.067497
    12  C    0.072360
    13  C    0.100890
    14  C    0.156357
    15  O   -0.248696
    16  O   -0.351607
    17  N   -0.438843
    18  C    0.227626
    19  C   -0.129461
    20  C   -0.044069
    21  C    0.133450
    22  C    0.086648
    23  C    0.029692
    24  O   -0.181866
    25  C    0.052872
    26  N   -0.286421
    27  C    0.051665
    28  C   -0.061483
    29  C   -0.034525
    30  C    0.042373
    31  C    0.054013
    32  C    0.073631
    33  C   -0.018541
    34  N   -0.355004
    35  C    0.116827
    36  C   -0.202183
    37  C    0.059374
    38  C    0.083827
    39  C    0.134294
    40  C    0.027439
    41  O   -0.152922
    42  C    0.025787
    43  C    0.211136
    44  O   -0.253390
    45  O   -0.342624
    46  C    0.182196
    47  C    0.279453
    48  C   -0.076881
    49  C   -0.206698
    50  C    0.078841
    51  C    0.048879
    52  C    0.054899
    53  C    0.053797
    54  C   -0.139957
    55  C    0.049826
    56  C    0.028449
    57  C    0.023100
    58  C    0.083199
    59  C   -0.162784
    60  C    0.036644
    61  C    0.043480
    62  C   -0.000283
    63  C    0.065513
    64  C   -0.194385
    65  C    0.061804
    66  C    0.033695
    67  H   -0.034831
    68  H   -0.006145
    69  H   -0.028790
    70  H    0.008444
    71  H    0.000723
    72  H    0.024395
    73  H    0.021894
    74  H    0.011436
    75  H    0.012622
    76  H    0.013751
    77  H    0.047965
    78  H    0.022200
    79  H    0.028128
    80  H    0.002131
    81  H    0.023071
    82  H    0.045201
    83  H    0.025467
    84  H    0.027482
    85  H    0.011735
    86  H    0.015329
    87  H    0.022251
    88  H    0.008890
    89  H    0.015566
    90  H    0.011318
    91  H    0.012953
    92  H    0.016537
    93  H    0.008591
    94  H    0.004295
    95  H    0.011186
    96  H    0.043457
    97  H    0.026887
    98  H    0.026045
    99  H    0.042283
   100  H    0.046954
   101  H    0.050715
   102  H   -0.005455
   103  H    0.029706
   104  H    0.000766
   105  H    0.046718
   106  H    0.017442
   107  H    0.012554
   108  H    0.021014
   109  H   -0.016660
   110  H    0.006620
   111  H   -0.009006
   112  H    0.006026
   113  H   -0.008217
   114  H   -0.004020
   115  H   -0.003075
   116  H   -0.004884
   117  H    0.014328
   118  H   -0.012643
   119  H   -0.013281
   120  H    0.000026
   121  H    0.005282
   122  H   -0.009073
   123  H   -0.009221
   124  H    0.000865
   125  H    0.010678
   126  H    0.002503
   127  H    0.018743
   128  H   -0.016464
   129  H   -0.006560
   130  H   -0.000737
   131  H    0.012331
   132  H   -0.001417
   133  H   -0.010671
   134  H   -0.010139
   135  H    0.005860
   136  H    0.017391
   137  H    0.008594
   138  H    0.003074
   139  H    0.012512
   140  H    0.005960
 Sum of Mulliken charges =  -0.00000

 Dipole moment (field-independent basis, Debye):
    X=             -4.3717    Y=              3.1704    Z=              0.6970  Tot=              5.4451
 Quadrupole moment (field-independent basis, Debye-Ang):
   XX=           -375.4860   YY=           -416.2047   ZZ=           -416.7351
   XY=             12.4686   XZ=              9.0662   YZ=              0.5135

 Normal termination of Gaussian 16 at Fri Apr 29 20:57:05 2022.
