 Gaussian 16, Revision A.03,
 Gaussian 16:  ES64L-G16RevA.03 25-Dec-2016

 ---------------------------------
 #p PBE1PBE/Def2SVP td=(nstates=5)
 ---------------------------------

 -----------------------------------------------------
 step_501_chromophore_12 TDDFT with PBE1PBE functional
 -----------------------------------------------------
 Symbolic Z-matrix:
 Charge =  0 Multiplicity = 1

                         Standard orientation:
 ---------------------------------------------------------------------
 Center     Atomic      Atomic             Coordinates (Angstroms)
 Number     Number       Type             X           Y           Z
 ---------------------------------------------------------------------
      1         12           0        4.211738    0.473088    0.285027
      2          6           0        3.215866   -2.828536   -0.436369
      3          6           0        0.942538    1.358139    0.529388
      4          6           0        5.221326    3.650117    0.857011
      5          6           0        7.489008   -0.429436   -0.424545
      6          7           0        2.326175   -0.564104   -0.020269
      7          6           0        2.154436   -1.939835   -0.196437
      8          6           0        0.699286   -2.278954   -0.073504
      9          6           0        0.019233   -0.901899   -0.260634
     10          6           0        1.187442    0.046376    0.113600
     11          6           0       -0.509168   -0.546017   -1.686092
     12          6           0        0.271699   -3.000895    1.259510
     13          6           0       -0.602832   -4.197997    1.062159
     14          6           0       -1.825638   -4.317271    1.990870
     15          8           0       -1.763368   -4.551109    3.196552
     16          8           0       -3.073415   -4.196366    1.374579
     17          7           0        3.229419    2.178651    0.735423
     18          6           0        1.843141    2.346438    0.889133
     19          6           0        1.557142    3.669846    1.277395
     20          6           0        2.828237    4.406267    1.397092
     21          6           0        3.808589    3.430816    1.013749
     22          6           0        0.187923    4.271827    1.400608
     23          6           0        3.165954    5.922471    1.737626
     24          8           0        4.310561    6.304112    1.800254
     25          6           0        2.063915    6.909659    2.094751
     26          7           0        6.084106    1.488338    0.114824
     27          6           0        6.213254    2.811226    0.393728
     28          6           0        7.730389    3.277927    0.168220
     29          6           0        8.512338    1.897053    0.050510
     30          6           0        7.289304    0.895967   -0.103165
     31          6           0        7.993497    4.197657   -1.056111
     32          6           0        9.417507    1.560383    1.288643
     33          6           0       10.795654    1.251517    0.877540
     34          7           0        5.174495   -1.243369   -0.354865
     35          6           0        6.538990   -1.491308   -0.496488
     36          6           0        6.751883   -2.872807   -0.832337
     37          6           0        5.484805   -3.419337   -0.846155
     38          6           0        4.583588   -2.450202   -0.536071
     39          6           0        8.168232   -3.480055   -1.007723
     40          6           0        4.727723   -4.633979   -1.086983
     41          8           0        5.133604   -5.694641   -1.508327
     42          6           0        3.176459   -4.282101   -0.845688
     43          6           0        2.427491   -4.546295   -2.087908
     44          8           0        2.675744   -4.007843   -3.198556
     45          8           0        1.473272   -5.484475   -1.823138
     46          6           0        0.897214   -6.130384   -3.032260
     47          6           0       -4.220091   -4.474271    2.274302
     48          6           0       -5.552913   -4.430613    1.581472
     49          6           0       -6.606731   -3.880024    2.241729
     50          6           0       -6.620991   -3.311059    3.646946
     51          6           0       -7.923909   -3.603491    1.498043
     52          6           0       -8.501626   -2.172561    1.259397
     53          6           0       -9.332261   -2.237841    0.081429
     54          6           0      -10.040395   -0.803439   -0.151883
     55          6           0      -11.492674   -0.826517    0.288923
     56          6           0       -9.888033   -0.177636   -1.573234
     57          6           0       -8.758325    0.878395   -1.678518
     58          6           0       -9.210290    2.361567   -1.669329
     59          6           0       -8.457099    3.284088   -0.728386
     60          6           0       -9.203643    3.474282    0.669508
     61          6           0       -8.214578    4.696952   -1.339356
     62          6           0       -6.808810    4.770253   -2.152030
     63          6           0       -5.768890    5.841918   -1.876872
     64          6           0       -4.317649    5.264920   -1.706198
     65          6           0       -3.602903    4.729541   -2.971062
     66          6           0       -4.295996    4.193445   -0.591483
     67          1           0       -0.126986    1.577427    0.549623
     68          1           0        5.630597    4.650591    1.010859
     69          1           0        8.511639   -0.679427   -0.712951
     70          1           0        0.308901   -2.867135   -0.904894
     71          1           0       -0.843149   -0.750555    0.388818
     72          1           0       -0.884999   -1.403775   -2.245390
     73          1           0        0.312092   -0.062395   -2.215632
     74          1           0       -1.267437    0.235426   -1.728817
     75          1           0       -0.208061   -2.225766    1.856791
     76          1           0        1.138050   -3.283079    1.858477
     77          1           0        0.115806   -5.004950    1.206154
     78          1           0       -1.043201   -4.168024    0.065611
     79          1           0       -0.158077    4.454845    2.418141
     80          1           0       -0.547513    3.565061    1.018386
     81          1           0       -0.015057    5.207369    0.880087
     82          1           0        2.576537    7.814646    2.418510
     83          1           0        1.349183    6.478266    2.796189
     84          1           0        1.381584    7.019526    1.251358
     85          1           0        8.051246    3.908117    0.997845
     86          1           0        9.103021    1.916240   -0.866576
     87          1           0        7.142609    4.391773   -1.709940
     88          1           0        8.770710    3.815895   -1.718622
     89          1           0        8.343945    5.150832   -0.659308
     90          1           0        9.029449    0.659998    1.766354
     91          1           0        9.505150    2.364257    2.019248
     92          1           0       11.411042    2.137360    1.036831
     93          1           0       10.974541    0.846036   -0.117666
     94          1           0       11.172322    0.421691    1.475647
     95          1           0        8.899027   -2.805848   -0.560452
     96          1           0        8.354185   -3.770303   -2.042796
     97          1           0        8.151397   -4.372734   -0.383578
     98          1           0        2.754519   -4.865921   -0.027235
     99          1           0        0.247136   -6.956881   -2.745683
    100          1           0        1.744955   -6.606836   -3.525110
    101          1           0        0.437120   -5.337143   -3.622148
    102          1           0       -4.364617   -3.746975    3.073570
    103          1           0       -4.048218   -5.359988    2.885414
    104          1           0       -5.608945   -4.636788    0.512695
    105          1           0       -5.911231   -2.539417    3.943343
    106          1           0       -6.352592   -4.121989    4.323500
    107          1           0       -7.660176   -3.085990    3.889505
    108          1           0       -8.567429   -4.369587    1.931572
    109          1           0       -7.689658   -3.905232    0.477189
    110          1           0       -7.816054   -1.326989    1.216725
    111          1           0       -9.068033   -1.977063    2.170221
    112          1           0      -10.080922   -3.018427   -0.052993
    113          1           0       -8.663136   -2.358888   -0.769997
    114          1           0       -9.603438   -0.058601    0.513535
    115          1           0      -11.662929    0.156627    0.727829
    116          1           0      -11.708159   -1.487198    1.128766
    117          1           0      -12.217715   -1.015776   -0.501516
    118          1           0      -10.753167    0.323244   -2.006937
    119          1           0       -9.724383   -1.015926   -2.249797
    120          1           0       -8.390083    0.630767   -2.674305
    121          1           0       -8.112806    0.617770   -0.838974
    122          1           0      -10.273641    2.395075   -1.429124
    123          1           0       -9.164713    2.825220   -2.654069
    124          1           0       -7.481279    2.872257   -0.469629
    125          1           0       -8.379725    3.863818    1.266058
    126          1           0       -9.503573    2.452766    0.903618
    127          1           0      -10.045362    4.165455    0.714559
    128          1           0       -8.240517    5.492565   -0.595114
    129          1           0       -9.042061    4.954478   -1.999700
    130          1           0       -7.224240    4.996348   -3.133277
    131          1           0       -6.371068    3.771853   -2.175459
    132          1           0       -5.940794    6.480467   -1.010555
    133          1           0       -5.636067    6.525238   -2.715968
    134          1           0       -3.727299    6.127785   -1.397578
    135          1           0       -4.387267    4.753736   -3.728271
    136          1           0       -3.135399    3.753174   -2.844135
    137          1           0       -2.887585    5.507091   -3.239037
    138          1           0       -3.489136    4.430453    0.101620
    139          1           0       -4.164177    3.208064   -1.039200
    140          1           0       -5.167799    4.209157    0.061985
 ---------------------------------------------------------------------

 SCF Done:  E(RPBE1PBE) =  -3005.35635567     A.U. after   15 cycles

 Excitation energies and oscillator strengths:

 Excited State   1:      Singlet-A      1.9005 eV  652.37 nm  f=0.3760  <S**2>=0.000
     245 -> 248        0.17457
     246 -> 247        0.69179
     246 <- 247       -0.10837
 This state for optimization and/or second-order correction.
 Total Energy, E(TD-HF/TD-DFT) =  -3005.28651237
 Copying the excited state density for this state as the 1-particle RhoCI density.

 Excited State   2:      Singlet-A      2.2143 eV  559.91 nm  f=0.1525  <S**2>=0.000
     245 -> 247        0.66215
     246 -> 248       -0.23038

 Excited State   3:      Singlet-A      2.9183 eV  424.86 nm  f=0.0042  <S**2>=0.000
     243 -> 247        0.70151

 Excited State   4:      Singlet-A      3.0667 eV  404.29 nm  f=0.0013  <S**2>=0.000
     241 -> 247        0.48574
     241 -> 249        0.12461
     242 -> 247        0.48144

 Excited State   5:      Singlet-A      3.1321 eV  395.84 nm  f=0.0102  <S**2>=0.000
     241 -> 247       -0.47913
     242 -> 247        0.49512
     246 -> 248        0.11298

 The electronic state is 1-A.
 Alpha  occ. eigenvalues --  -46.90673 -19.26436 -19.25812 -19.20027 -19.19879
 Alpha  occ. eigenvalues --  -19.19864 -19.19432 -14.41584 -14.41120 -14.39007
 Alpha  occ. eigenvalues --  -14.38382 -10.36628 -10.36553 -10.33431 -10.32367
 Alpha  occ. eigenvalues --  -10.29459 -10.28973 -10.28845 -10.28351 -10.28327
 Alpha  occ. eigenvalues --  -10.28274 -10.28226 -10.27479 -10.27071 -10.26480
 Alpha  occ. eigenvalues --  -10.25946 -10.25885 -10.25864 -10.25792 -10.25671
 Alpha  occ. eigenvalues --  -10.25557 -10.25513 -10.25499 -10.25376 -10.25370
 Alpha  occ. eigenvalues --  -10.25032 -10.24912 -10.24545 -10.24511 -10.24139
 Alpha  occ. eigenvalues --  -10.23968 -10.23718 -10.23695 -10.23623 -10.23602
 Alpha  occ. eigenvalues --  -10.23594 -10.23521 -10.23507 -10.23465 -10.23437
 Alpha  occ. eigenvalues --  -10.23378 -10.23358 -10.22915 -10.22914 -10.22843
 Alpha  occ. eigenvalues --  -10.22759 -10.22743 -10.22724 -10.22461 -10.22426
 Alpha  occ. eigenvalues --  -10.22342 -10.22254 -10.22168 -10.22155 -10.22114
 Alpha  occ. eigenvalues --  -10.21729  -3.12974  -1.85821  -1.85338  -1.85224
 Alpha  occ. eigenvalues --   -1.10643  -1.10172  -1.06392  -1.05243  -1.01513
 Alpha  occ. eigenvalues --   -1.01233  -0.99622  -0.98178  -0.97257  -0.96041
 Alpha  occ. eigenvalues --   -0.87088  -0.85182  -0.84503  -0.83850  -0.83071
 Alpha  occ. eigenvalues --   -0.82984  -0.82357  -0.82069  -0.81440  -0.80701
 Alpha  occ. eigenvalues --   -0.80278  -0.80047  -0.79331  -0.78207  -0.77735
 Alpha  occ. eigenvalues --   -0.76664  -0.76440  -0.75725  -0.75197  -0.75040
 Alpha  occ. eigenvalues --   -0.74389  -0.72556  -0.72439  -0.71302  -0.70565
 Alpha  occ. eigenvalues --   -0.70301  -0.69871  -0.69341  -0.69321  -0.68913
 Alpha  occ. eigenvalues --   -0.67691  -0.67035  -0.65472  -0.64646  -0.63011
 Alpha  occ. eigenvalues --   -0.62753  -0.62460  -0.61569  -0.61141  -0.60281
 Alpha  occ. eigenvalues --   -0.60140  -0.59653  -0.59196  -0.58695  -0.58321
 Alpha  occ. eigenvalues --   -0.57961  -0.57510  -0.56631  -0.55277  -0.55091
 Alpha  occ. eigenvalues --   -0.54704  -0.54062  -0.53890  -0.52811  -0.52508
 Alpha  occ. eigenvalues --   -0.52190  -0.51449  -0.50735  -0.50340  -0.50103
 Alpha  occ. eigenvalues --   -0.50032  -0.49582  -0.49514  -0.48872  -0.48486
 Alpha  occ. eigenvalues --   -0.48439  -0.48361  -0.47935  -0.47700  -0.47516
 Alpha  occ. eigenvalues --   -0.47427  -0.47004  -0.46636  -0.46462  -0.46363
 Alpha  occ. eigenvalues --   -0.45931  -0.45819  -0.45763  -0.45546  -0.45466
 Alpha  occ. eigenvalues --   -0.45312  -0.45073  -0.45040  -0.44424  -0.44411
 Alpha  occ. eigenvalues --   -0.44095  -0.44026  -0.43972  -0.43582  -0.43552
 Alpha  occ. eigenvalues --   -0.43420  -0.43080  -0.42631  -0.42486  -0.42281
 Alpha  occ. eigenvalues --   -0.42055  -0.41652  -0.41564  -0.41375  -0.41296
 Alpha  occ. eigenvalues --   -0.41218  -0.41061  -0.40932  -0.40724  -0.40547
 Alpha  occ. eigenvalues --   -0.40498  -0.40446  -0.40181  -0.39861  -0.39718
 Alpha  occ. eigenvalues --   -0.39642  -0.39456  -0.39434  -0.39279  -0.38892
 Alpha  occ. eigenvalues --   -0.38599  -0.38455  -0.38224  -0.38201  -0.38114
 Alpha  occ. eigenvalues --   -0.37915  -0.37672  -0.37627  -0.37418  -0.37140
 Alpha  occ. eigenvalues --   -0.36888  -0.36795  -0.36767  -0.36571  -0.36084
 Alpha  occ. eigenvalues --   -0.35989  -0.35466  -0.35369  -0.35009  -0.34913
 Alpha  occ. eigenvalues --   -0.34349  -0.34039  -0.33992  -0.33815  -0.33560
 Alpha  occ. eigenvalues --   -0.33402  -0.33055  -0.32984  -0.32904  -0.32852
 Alpha  occ. eigenvalues --   -0.32145  -0.32007  -0.31614  -0.31488  -0.31255
 Alpha  occ. eigenvalues --   -0.31030  -0.30402  -0.30249  -0.29619  -0.29203
 Alpha  occ. eigenvalues --   -0.28811  -0.28683  -0.28475  -0.27030  -0.26516
 Alpha  occ. eigenvalues --   -0.25957  -0.25685  -0.25195  -0.24890  -0.20991
 Alpha  occ. eigenvalues --   -0.19189
 Alpha virt. eigenvalues --   -0.11469  -0.04923  -0.03612  -0.01739  -0.00303
 Alpha virt. eigenvalues --   -0.00227   0.00473   0.00774   0.01970   0.03151
 Alpha virt. eigenvalues --    0.03580   0.04094   0.04577   0.04876   0.05759

 Mulliken charges:
               1
     1  Mg   0.992466
     2  C   -0.032415
     3  C   -0.080962
     4  C   -0.044706
     5  C   -0.073098
     6  N   -0.360027
     7  C    0.049960
     8  C   -0.113956
     9  C   -0.156345
    10  C    0.044581
    11  C    0.015585
    12  C    0.031389
    13  C    0.017674
    14  C    0.223517
    15  O   -0.279760
    16  O   -0.382319
    17  N   -0.551871
    18  C    0.245988
    19  C   -0.164611
    20  C   -0.082133
    21  C    0.157618
    22  C    0.031894
    23  C    0.077534
    24  O   -0.219569
    25  C   -0.019028
    26  N   -0.392126
    27  C    0.083230
    28  C   -0.132100
    29  C   -0.107450
    30  C    0.074511
    31  C    0.000017
    32  C    0.014869
    33  C   -0.088982
    34  N   -0.480738
    35  C    0.139120
    36  C   -0.212541
    37  C   -0.000939
    38  C    0.141747
    39  C    0.080159
    40  C    0.130524
    41  O   -0.198278
    42  C   -0.085925
    43  C    0.302349
    44  O   -0.286946
    45  O   -0.374605
    46  C    0.126484
    47  C    0.236596
    48  C   -0.089516
    49  C   -0.237555
    50  C    0.008342
    51  C   -0.019019
    52  C   -0.011229
    53  C   -0.005184
    54  C   -0.230227
    55  C   -0.008834
    56  C   -0.018550
    57  C   -0.048254
    58  C    0.032821
    59  C   -0.250022
    60  C   -0.032552
    61  C   -0.004646
    62  C   -0.066124
    63  C    0.006893
    64  C   -0.279642
    65  C   -0.001066
    66  C   -0.031386
    67  H   -0.002953
    68  H    0.026328
    69  H    0.004248
    70  H    0.049073
    71  H    0.036320
    72  H    0.050578
    73  H    0.049942
    74  H    0.038229
    75  H    0.045269
    76  H    0.045679
    77  H    0.080086
    78  H    0.054182
    79  H    0.054683
    80  H    0.030736
    81  H    0.049243
    82  H    0.070915
    83  H    0.052623
    84  H    0.054563
    85  H    0.047421
    86  H    0.051161
    87  H    0.049551
    88  H    0.035471
    89  H    0.042336
    90  H    0.044507
    91  H    0.044831
    92  H    0.044920
    93  H    0.034648
    94  H    0.032571
    95  H    0.037642
    96  H    0.071311
    97  H    0.056091
    98  H    0.064717
    99  H    0.063690
   100  H    0.068676
   101  H    0.071746
   102  H    0.024213
   103  H    0.056623
   104  H    0.030118
   105  H    0.072539
   106  H    0.047120
   107  H    0.041106
   108  H    0.054148
   109  H    0.017625
   110  H    0.038420
   111  H    0.025211
   112  H    0.037199
   113  H    0.025874
   114  H    0.038196
   115  H    0.025775
   116  H    0.023252
   117  H    0.041407
   118  H    0.019307
   119  H    0.019494
   120  H    0.033627
   121  H    0.038816
   122  H    0.023314
   123  H    0.023731
   124  H    0.038705
   125  H    0.039667
   126  H    0.036221
   127  H    0.045747
   128  H    0.015598
   129  H    0.025336
   130  H    0.032454
   131  H    0.044516
   132  H    0.030350
   133  H    0.023140
   134  H    0.028288
   135  H    0.034350
   136  H    0.043398
   137  H    0.036615
   138  H    0.032848
   139  H    0.038059
   140  H    0.035923
 Sum of Mulliken charges =  -0.00000

 Dipole moment (field-independent basis, Debye):
    X=             -4.1393    Y=              3.0029    Z=              0.6072  Tot=              5.1498
 Quadrupole moment (field-independent basis, Debye-Ang):
   XX=           -367.4698   YY=           -414.0183   ZZ=           -414.2846
   XY=             11.6822   XZ=              8.7169   YZ=              0.2932

 Normal termination of Gaussian 16 at Fri Apr 29 21:19:39 2022.
