 Gaussian 16, Revision A.03,
 Gaussian 16:  ES64L-G16RevA.03 25-Dec-2016

 --------------------------------
 #p wB97XD/Def2SVP td=(nstates=5)
 --------------------------------

 ----------------------------------------------------
 step_501_chromophore_12 TDDFT with wB97XD functional
 ----------------------------------------------------
 Symbolic Z-matrix:
 Charge =  0 Multiplicity = 1

                         Standard orientation:
 ---------------------------------------------------------------------
 Center     Atomic      Atomic             Coordinates (Angstroms)
 Number     Number       Type             X           Y           Z
 ---------------------------------------------------------------------
      1         12           0        4.211738    0.473088    0.285027
      2          6           0        3.215866   -2.828536   -0.436369
      3          6           0        0.942538    1.358139    0.529388
      4          6           0        5.221326    3.650117    0.857011
      5          6           0        7.489008   -0.429436   -0.424545
      6          7           0        2.326175   -0.564104   -0.020269
      7          6           0        2.154436   -1.939835   -0.196437
      8          6           0        0.699286   -2.278954   -0.073504
      9          6           0        0.019233   -0.901899   -0.260634
     10          6           0        1.187442    0.046376    0.113600
     11          6           0       -0.509168   -0.546017   -1.686092
     12          6           0        0.271699   -3.000895    1.259510
     13          6           0       -0.602832   -4.197997    1.062159
     14          6           0       -1.825638   -4.317271    1.990870
     15          8           0       -1.763368   -4.551109    3.196552
     16          8           0       -3.073415   -4.196366    1.374579
     17          7           0        3.229419    2.178651    0.735423
     18          6           0        1.843141    2.346438    0.889133
     19          6           0        1.557142    3.669846    1.277395
     20          6           0        2.828237    4.406267    1.397092
     21          6           0        3.808589    3.430816    1.013749
     22          6           0        0.187923    4.271827    1.400608
     23          6           0        3.165954    5.922471    1.737626
     24          8           0        4.310561    6.304112    1.800254
     25          6           0        2.063915    6.909659    2.094751
     26          7           0        6.084106    1.488338    0.114824
     27          6           0        6.213254    2.811226    0.393728
     28          6           0        7.730389    3.277927    0.168220
     29          6           0        8.512338    1.897053    0.050510
     30          6           0        7.289304    0.895967   -0.103165
     31          6           0        7.993497    4.197657   -1.056111
     32          6           0        9.417507    1.560383    1.288643
     33          6           0       10.795654    1.251517    0.877540
     34          7           0        5.174495   -1.243369   -0.354865
     35          6           0        6.538990   -1.491308   -0.496488
     36          6           0        6.751883   -2.872807   -0.832337
     37          6           0        5.484805   -3.419337   -0.846155
     38          6           0        4.583588   -2.450202   -0.536071
     39          6           0        8.168232   -3.480055   -1.007723
     40          6           0        4.727723   -4.633979   -1.086983
     41          8           0        5.133604   -5.694641   -1.508327
     42          6           0        3.176459   -4.282101   -0.845688
     43          6           0        2.427491   -4.546295   -2.087908
     44          8           0        2.675744   -4.007843   -3.198556
     45          8           0        1.473272   -5.484475   -1.823138
     46          6           0        0.897214   -6.130384   -3.032260
     47          6           0       -4.220091   -4.474271    2.274302
     48          6           0       -5.552913   -4.430613    1.581472
     49          6           0       -6.606731   -3.880024    2.241729
     50          6           0       -6.620991   -3.311059    3.646946
     51          6           0       -7.923909   -3.603491    1.498043
     52          6           0       -8.501626   -2.172561    1.259397
     53          6           0       -9.332261   -2.237841    0.081429
     54          6           0      -10.040395   -0.803439   -0.151883
     55          6           0      -11.492674   -0.826517    0.288923
     56          6           0       -9.888033   -0.177636   -1.573234
     57          6           0       -8.758325    0.878395   -1.678518
     58          6           0       -9.210290    2.361567   -1.669329
     59          6           0       -8.457099    3.284088   -0.728386
     60          6           0       -9.203643    3.474282    0.669508
     61          6           0       -8.214578    4.696952   -1.339356
     62          6           0       -6.808810    4.770253   -2.152030
     63          6           0       -5.768890    5.841918   -1.876872
     64          6           0       -4.317649    5.264920   -1.706198
     65          6           0       -3.602903    4.729541   -2.971062
     66          6           0       -4.295996    4.193445   -0.591483
     67          1           0       -0.126986    1.577427    0.549623
     68          1           0        5.630597    4.650591    1.010859
     69          1           0        8.511639   -0.679427   -0.712951
     70          1           0        0.308901   -2.867135   -0.904894
     71          1           0       -0.843149   -0.750555    0.388818
     72          1           0       -0.884999   -1.403775   -2.245390
     73          1           0        0.312092   -0.062395   -2.215632
     74          1           0       -1.267437    0.235426   -1.728817
     75          1           0       -0.208061   -2.225766    1.856791
     76          1           0        1.138050   -3.283079    1.858477
     77          1           0        0.115806   -5.004950    1.206154
     78          1           0       -1.043201   -4.168024    0.065611
     79          1           0       -0.158077    4.454845    2.418141
     80          1           0       -0.547513    3.565061    1.018386
     81          1           0       -0.015057    5.207369    0.880087
     82          1           0        2.576537    7.814646    2.418510
     83          1           0        1.349183    6.478266    2.796189
     84          1           0        1.381584    7.019526    1.251358
     85          1           0        8.051246    3.908117    0.997845
     86          1           0        9.103021    1.916240   -0.866576
     87          1           0        7.142609    4.391773   -1.709940
     88          1           0        8.770710    3.815895   -1.718622
     89          1           0        8.343945    5.150832   -0.659308
     90          1           0        9.029449    0.659998    1.766354
     91          1           0        9.505150    2.364257    2.019248
     92          1           0       11.411042    2.137360    1.036831
     93          1           0       10.974541    0.846036   -0.117666
     94          1           0       11.172322    0.421691    1.475647
     95          1           0        8.899027   -2.805848   -0.560452
     96          1           0        8.354185   -3.770303   -2.042796
     97          1           0        8.151397   -4.372734   -0.383578
     98          1           0        2.754519   -4.865921   -0.027235
     99          1           0        0.247136   -6.956881   -2.745683
    100          1           0        1.744955   -6.606836   -3.525110
    101          1           0        0.437120   -5.337143   -3.622148
    102          1           0       -4.364617   -3.746975    3.073570
    103          1           0       -4.048218   -5.359988    2.885414
    104          1           0       -5.608945   -4.636788    0.512695
    105          1           0       -5.911231   -2.539417    3.943343
    106          1           0       -6.352592   -4.121989    4.323500
    107          1           0       -7.660176   -3.085990    3.889505
    108          1           0       -8.567429   -4.369587    1.931572
    109          1           0       -7.689658   -3.905232    0.477189
    110          1           0       -7.816054   -1.326989    1.216725
    111          1           0       -9.068033   -1.977063    2.170221
    112          1           0      -10.080922   -3.018427   -0.052993
    113          1           0       -8.663136   -2.358888   -0.769997
    114          1           0       -9.603438   -0.058601    0.513535
    115          1           0      -11.662929    0.156627    0.727829
    116          1           0      -11.708159   -1.487198    1.128766
    117          1           0      -12.217715   -1.015776   -0.501516
    118          1           0      -10.753167    0.323244   -2.006937
    119          1           0       -9.724383   -1.015926   -2.249797
    120          1           0       -8.390083    0.630767   -2.674305
    121          1           0       -8.112806    0.617770   -0.838974
    122          1           0      -10.273641    2.395075   -1.429124
    123          1           0       -9.164713    2.825220   -2.654069
    124          1           0       -7.481279    2.872257   -0.469629
    125          1           0       -8.379725    3.863818    1.266058
    126          1           0       -9.503573    2.452766    0.903618
    127          1           0      -10.045362    4.165455    0.714559
    128          1           0       -8.240517    5.492565   -0.595114
    129          1           0       -9.042061    4.954478   -1.999700
    130          1           0       -7.224240    4.996348   -3.133277
    131          1           0       -6.371068    3.771853   -2.175459
    132          1           0       -5.940794    6.480467   -1.010555
    133          1           0       -5.636067    6.525238   -2.715968
    134          1           0       -3.727299    6.127785   -1.397578
    135          1           0       -4.387267    4.753736   -3.728271
    136          1           0       -3.135399    3.753174   -2.844135
    137          1           0       -2.887585    5.507091   -3.239037
    138          1           0       -3.489136    4.430453    0.101620
    139          1           0       -4.164177    3.208064   -1.039200
    140          1           0       -5.167799    4.209157    0.061985
 ---------------------------------------------------------------------

 SCF Done:  E(RwB97XD) =  -3007.86428301     A.U. after   19 cycles

 Excitation energies and oscillator strengths:

 Excited State   1:      Singlet-A      1.6911 eV  733.15 nm  f=0.3923  <S**2>=0.000
     245 -> 248        0.18328
     246 -> 247        0.68248
     245 <- 248        0.11535
 This state for optimization and/or second-order correction.
 Total Energy, E(TD-HF/TD-DFT) =  -3007.80213590
 Copying the excited state density for this state as the 1-particle RhoCI density.

 Excited State   2:      Singlet-A      2.1433 eV  578.46 nm  f=0.1589  <S**2>=0.000
     245 -> 247        0.65123
     246 -> 248       -0.25303

 Excited State   3:      Singlet-A      3.1969 eV  387.82 nm  f=0.0024  <S**2>=0.000
     242 -> 247       -0.30435
     243 -> 247        0.61827

 Excited State   4:      Singlet-A      3.4880 eV  355.45 nm  f=0.0022  <S**2>=0.000
     242 -> 247        0.58346
     243 -> 247        0.30910
     246 -> 248        0.19675

 Excited State   5:      Singlet-A      3.6857 eV  336.39 nm  f=0.0088  <S**2>=0.000
     241 -> 247        0.55849
     241 -> 249        0.30014
     241 -> 250       -0.23620

 The electronic state is 1-A.
 Alpha  occ. eigenvalues --  -46.93600 -19.30994 -19.30370 -19.24976 -19.24570
 Alpha  occ. eigenvalues --  -19.24537 -19.24123 -14.46762 -14.46141 -14.44019
 Alpha  occ. eigenvalues --  -14.43204 -10.43395 -10.43377 -10.40399 -10.39099
 Alpha  occ. eigenvalues --  -10.35978 -10.35338 -10.35163 -10.34792 -10.34743
 Alpha  occ. eigenvalues --  -10.34738 -10.34462 -10.34067 -10.33207 -10.33123
 Alpha  occ. eigenvalues --  -10.32281 -10.32255 -10.32119 -10.32088 -10.31971
 Alpha  occ. eigenvalues --  -10.31903 -10.31795 -10.31732 -10.31701 -10.31515
 Alpha  occ. eigenvalues --  -10.31385 -10.31249 -10.31216 -10.31087 -10.30666
 Alpha  occ. eigenvalues --  -10.30395 -10.30072 -10.30036 -10.29992 -10.29964
 Alpha  occ. eigenvalues --  -10.29906 -10.29891 -10.29866 -10.29850 -10.29820
 Alpha  occ. eigenvalues --  -10.29739 -10.29621 -10.29295 -10.29294 -10.29215
 Alpha  occ. eigenvalues --  -10.29143 -10.29138 -10.29135 -10.28860 -10.28788
 Alpha  occ. eigenvalues --  -10.28785 -10.28624 -10.28619 -10.28448 -10.28390
 Alpha  occ. eigenvalues --  -10.28174  -3.19734  -1.93335  -1.92852  -1.92734
 Alpha  occ. eigenvalues --   -1.18041  -1.17549  -1.13998  -1.12599  -1.08859
 Alpha  occ. eigenvalues --   -1.08612  -1.07054  -1.05402  -1.04619  -1.03563
 Alpha  occ. eigenvalues --   -0.94635  -0.92861  -0.92134  -0.91542  -0.90762
 Alpha  occ. eigenvalues --   -0.90602  -0.89983  -0.89753  -0.89025  -0.88425
 Alpha  occ. eigenvalues --   -0.87832  -0.87685  -0.87000  -0.85778  -0.85367
 Alpha  occ. eigenvalues --   -0.84342  -0.84175  -0.83467  -0.82838  -0.82683
 Alpha  occ. eigenvalues --   -0.82069  -0.80273  -0.80090  -0.78890  -0.78238
 Alpha  occ. eigenvalues --   -0.77893  -0.77611  -0.77041  -0.76931  -0.76605
 Alpha  occ. eigenvalues --   -0.75233  -0.74612  -0.72995  -0.72273  -0.70537
 Alpha  occ. eigenvalues --   -0.70377  -0.70015  -0.69206  -0.68740  -0.67943
 Alpha  occ. eigenvalues --   -0.67646  -0.67149  -0.66687  -0.66142  -0.65940
 Alpha  occ. eigenvalues --   -0.65508  -0.65170  -0.64017  -0.62914  -0.62547
 Alpha  occ. eigenvalues --   -0.62261  -0.61509  -0.61335  -0.60236  -0.59791
 Alpha  occ. eigenvalues --   -0.59669  -0.58886  -0.58216  -0.57744  -0.57571
 Alpha  occ. eigenvalues --   -0.57435  -0.56992  -0.56958  -0.56309  -0.55970
 Alpha  occ. eigenvalues --   -0.55806  -0.55742  -0.55376  -0.55151  -0.54947
 Alpha  occ. eigenvalues --   -0.54705  -0.54344  -0.53947  -0.53831  -0.53737
 Alpha  occ. eigenvalues --   -0.53577  -0.53153  -0.53061  -0.52862  -0.52830
 Alpha  occ. eigenvalues --   -0.52656  -0.52483  -0.52412  -0.51848  -0.51751
 Alpha  occ. eigenvalues --   -0.51406  -0.51369  -0.51329  -0.51111  -0.50846
 Alpha  occ. eigenvalues --   -0.50726  -0.50369  -0.49847  -0.49710  -0.49503
 Alpha  occ. eigenvalues --   -0.49310  -0.48943  -0.48860  -0.48649  -0.48587
 Alpha  occ. eigenvalues --   -0.48419  -0.48306  -0.48113  -0.47915  -0.47769
 Alpha  occ. eigenvalues --   -0.47702  -0.47669  -0.47434  -0.47025  -0.46954
 Alpha  occ. eigenvalues --   -0.46823  -0.46613  -0.46588  -0.46460  -0.46035
 Alpha  occ. eigenvalues --   -0.45757  -0.45611  -0.45427  -0.45297  -0.45206
 Alpha  occ. eigenvalues --   -0.44952  -0.44816  -0.44776  -0.44572  -0.44405
 Alpha  occ. eigenvalues --   -0.43965  -0.43906  -0.43854  -0.43689  -0.43093
 Alpha  occ. eigenvalues --   -0.43003  -0.42568  -0.42376  -0.42089  -0.42048
 Alpha  occ. eigenvalues --   -0.41361  -0.41088  -0.40914  -0.40846  -0.40584
 Alpha  occ. eigenvalues --   -0.40328  -0.40115  -0.40030  -0.39929  -0.39880
 Alpha  occ. eigenvalues --   -0.39135  -0.38989  -0.38670  -0.38565  -0.38135
 Alpha  occ. eigenvalues --   -0.37945  -0.37351  -0.37244  -0.36376  -0.36192
 Alpha  occ. eigenvalues --   -0.35761  -0.35616  -0.35434  -0.33791  -0.33576
 Alpha  occ. eigenvalues --   -0.32893  -0.32208  -0.31804  -0.31650  -0.25950
 Alpha  occ. eigenvalues --   -0.23412
 Alpha virt. eigenvalues --   -0.07424   0.00553   0.02723   0.04821   0.06440
 Alpha virt. eigenvalues --    0.06550   0.06704   0.07160   0.08670   0.09557
 Alpha virt. eigenvalues --    0.10247   0.10617   0.11433   0.11513   0.12533

 Mulliken charges:
               1
     1  Mg   0.980040
     2  C   -0.033356
     3  C   -0.099278
     4  C   -0.063167
     5  C   -0.089215
     6  N   -0.321362
     7  C    0.017823
     8  C   -0.082140
     9  C   -0.129343
    10  C    0.029418
    11  C    0.022581
    12  C    0.035630
    13  C    0.036593
    14  C    0.213683
    15  O   -0.277896
    16  O   -0.382141
    17  N   -0.523162
    18  C    0.242039
    19  C   -0.150772
    20  C   -0.080589
    21  C    0.154513
    22  C    0.041735
    23  C    0.076325
    24  O   -0.213580
    25  C   -0.007872
    26  N   -0.359342
    27  C    0.071893
    28  C   -0.108439
    29  C   -0.079688
    30  C    0.063548
    31  C    0.008256
    32  C    0.027349
    33  C   -0.074167
    34  N   -0.443920
    35  C    0.130454
    36  C   -0.214577
    37  C    0.008317
    38  C    0.121142
    39  C    0.094244
    40  C    0.108808
    41  O   -0.190310
    42  C   -0.043529
    43  C    0.276015
    44  O   -0.281303
    45  O   -0.373272
    46  C    0.141254
    47  C    0.255578
    48  C   -0.101697
    49  C   -0.227235
    50  C    0.020958
    51  C    0.006802
    52  C    0.006371
    53  C    0.008736
    54  C   -0.191767
    55  C    0.002471
    56  C   -0.008600
    57  C   -0.025457
    58  C    0.044287
    59  C   -0.217518
    60  C   -0.012132
    61  C    0.006860
    62  C   -0.048393
    63  C    0.022068
    64  C   -0.251809
    65  C    0.009824
    66  C   -0.017324
    67  H   -0.009676
    68  H    0.021871
    69  H   -0.003345
    70  H    0.030363
    71  H    0.027269
    72  H    0.046490
    73  H    0.043241
    74  H    0.033270
    75  H    0.036287
    76  H    0.039497
    77  H    0.075722
    78  H    0.048056
    79  H    0.051185
    80  H    0.025907
    81  H    0.044456
    82  H    0.070959
    83  H    0.046964
    84  H    0.048625
    85  H    0.038058
    86  H    0.037841
    87  H    0.044133
    88  H    0.029865
    89  H    0.037127
    90  H    0.035635
    91  H    0.037719
    92  H    0.038965
    93  H    0.028166
    94  H    0.026899
    95  H    0.030978
    96  H    0.066510
    97  H    0.049766
    98  H    0.057455
    99  H    0.060912
   100  H    0.064589
   101  H    0.068170
   102  H    0.014395
   103  H    0.051533
   104  H    0.029160
   105  H    0.068179
   106  H    0.040666
   107  H    0.035728
   108  H    0.046676
   109  H    0.004263
   110  H    0.031405
   111  H    0.014113
   112  H    0.030847
   113  H    0.014721
   114  H    0.015659
   115  H    0.018746
   116  H    0.017269
   117  H    0.035901
   118  H    0.010373
   119  H    0.011515
   120  H    0.027133
   121  H    0.025126
   122  H    0.012297
   123  H    0.015538
   124  H    0.022729
   125  H    0.032407
   126  H    0.024569
   127  H    0.040531
   128  H    0.007122
   129  H    0.017129
   130  H    0.024902
   131  H    0.031099
   132  H    0.022581
   133  H    0.014932
   134  H    0.018078
   135  H    0.026814
   136  H    0.038345
   137  H    0.031419
   138  H    0.027046
   139  H    0.031197
   140  H    0.026665
 Sum of Mulliken charges =  -0.00000

 Dipole moment (field-independent basis, Debye):
    X=             -4.5205    Y=              3.3545    Z=              0.7289  Tot=              5.6762
 Quadrupole moment (field-independent basis, Debye-Ang):
   XX=           -370.6025   YY=           -411.8895   ZZ=           -413.9374
   XY=             12.6636   XZ=              9.1550   YZ=              0.9598

 Normal termination of Gaussian 16 at Fri Apr 29 21:54:55 2022.
