 Gaussian 16, Revision A.03,
 Gaussian 16:  ES64L-G16RevA.03 25-Dec-2016

 --------------------
 #p ZINDO=(nstates=5)
 --------------------

 -----------------------------
 step_501_chromophore_12 ZINDO
 -----------------------------
 Symbolic Z-matrix:
 Charge =  0 Multiplicity = 1

                         Standard orientation:
 ---------------------------------------------------------------------
 Center     Atomic      Atomic             Coordinates (Angstroms)
 Number     Number       Type             X           Y           Z
 ---------------------------------------------------------------------
      1         12           0        4.211738    0.473088    0.285027
      2          6           0        3.215866   -2.828536   -0.436369
      3          6           0        0.942538    1.358139    0.529388
      4          6           0        5.221326    3.650117    0.857011
      5          6           0        7.489008   -0.429436   -0.424545
      6          7           0        2.326175   -0.564104   -0.020269
      7          6           0        2.154436   -1.939835   -0.196437
      8          6           0        0.699286   -2.278954   -0.073504
      9          6           0        0.019233   -0.901899   -0.260634
     10          6           0        1.187442    0.046376    0.113600
     11          6           0       -0.509168   -0.546017   -1.686092
     12          6           0        0.271699   -3.000895    1.259510
     13          6           0       -0.602832   -4.197997    1.062159
     14          6           0       -1.825638   -4.317271    1.990870
     15          8           0       -1.763368   -4.551109    3.196552
     16          8           0       -3.073415   -4.196366    1.374579
     17          7           0        3.229419    2.178651    0.735423
     18          6           0        1.843141    2.346438    0.889133
     19          6           0        1.557142    3.669846    1.277395
     20          6           0        2.828237    4.406267    1.397092
     21          6           0        3.808589    3.430816    1.013749
     22          6           0        0.187923    4.271827    1.400608
     23          6           0        3.165954    5.922471    1.737626
     24          8           0        4.310561    6.304112    1.800254
     25          6           0        2.063915    6.909659    2.094751
     26          7           0        6.084106    1.488338    0.114824
     27          6           0        6.213254    2.811226    0.393728
     28          6           0        7.730389    3.277927    0.168220
     29          6           0        8.512338    1.897053    0.050510
     30          6           0        7.289304    0.895967   -0.103165
     31          6           0        7.993497    4.197657   -1.056111
     32          6           0        9.417507    1.560383    1.288643
     33          6           0       10.795654    1.251517    0.877540
     34          7           0        5.174495   -1.243369   -0.354865
     35          6           0        6.538990   -1.491308   -0.496488
     36          6           0        6.751883   -2.872807   -0.832337
     37          6           0        5.484805   -3.419337   -0.846155
     38          6           0        4.583588   -2.450202   -0.536071
     39          6           0        8.168232   -3.480055   -1.007723
     40          6           0        4.727723   -4.633979   -1.086983
     41          8           0        5.133604   -5.694641   -1.508327
     42          6           0        3.176459   -4.282101   -0.845688
     43          6           0        2.427491   -4.546295   -2.087908
     44          8           0        2.675744   -4.007843   -3.198556
     45          8           0        1.473272   -5.484475   -1.823138
     46          6           0        0.897214   -6.130384   -3.032260
     47          6           0       -4.220091   -4.474271    2.274302
     48          6           0       -5.552913   -4.430613    1.581472
     49          6           0       -6.606731   -3.880024    2.241729
     50          6           0       -6.620991   -3.311059    3.646946
     51          6           0       -7.923909   -3.603491    1.498043
     52          6           0       -8.501626   -2.172561    1.259397
     53          6           0       -9.332261   -2.237841    0.081429
     54          6           0      -10.040395   -0.803439   -0.151883
     55          6           0      -11.492674   -0.826517    0.288923
     56          6           0       -9.888033   -0.177636   -1.573234
     57          6           0       -8.758325    0.878395   -1.678518
     58          6           0       -9.210290    2.361567   -1.669329
     59          6           0       -8.457099    3.284088   -0.728386
     60          6           0       -9.203643    3.474282    0.669508
     61          6           0       -8.214578    4.696952   -1.339356
     62          6           0       -6.808810    4.770253   -2.152030
     63          6           0       -5.768890    5.841918   -1.876872
     64          6           0       -4.317649    5.264920   -1.706198
     65          6           0       -3.602903    4.729541   -2.971062
     66          6           0       -4.295996    4.193445   -0.591483
     67          1           0       -0.126986    1.577427    0.549623
     68          1           0        5.630597    4.650591    1.010859
     69          1           0        8.511639   -0.679427   -0.712951
     70          1           0        0.308901   -2.867135   -0.904894
     71          1           0       -0.843149   -0.750555    0.388818
     72          1           0       -0.884999   -1.403775   -2.245390
     73          1           0        0.312092   -0.062395   -2.215632
     74          1           0       -1.267437    0.235426   -1.728817
     75          1           0       -0.208061   -2.225766    1.856791
     76          1           0        1.138050   -3.283079    1.858477
     77          1           0        0.115806   -5.004950    1.206154
     78          1           0       -1.043201   -4.168024    0.065611
     79          1           0       -0.158077    4.454845    2.418141
     80          1           0       -0.547513    3.565061    1.018386
     81          1           0       -0.015057    5.207369    0.880087
     82          1           0        2.576537    7.814646    2.418510
     83          1           0        1.349183    6.478266    2.796189
     84          1           0        1.381584    7.019526    1.251358
     85          1           0        8.051246    3.908117    0.997845
     86          1           0        9.103021    1.916240   -0.866576
     87          1           0        7.142609    4.391773   -1.709940
     88          1           0        8.770710    3.815895   -1.718622
     89          1           0        8.343945    5.150832   -0.659308
     90          1           0        9.029449    0.659998    1.766354
     91          1           0        9.505150    2.364257    2.019248
     92          1           0       11.411042    2.137360    1.036831
     93          1           0       10.974541    0.846036   -0.117666
     94          1           0       11.172322    0.421691    1.475647
     95          1           0        8.899027   -2.805848   -0.560452
     96          1           0        8.354185   -3.770303   -2.042796
     97          1           0        8.151397   -4.372734   -0.383578
     98          1           0        2.754519   -4.865921   -0.027235
     99          1           0        0.247136   -6.956881   -2.745683
    100          1           0        1.744955   -6.606836   -3.525110
    101          1           0        0.437120   -5.337143   -3.622148
    102          1           0       -4.364617   -3.746975    3.073570
    103          1           0       -4.048218   -5.359988    2.885414
    104          1           0       -5.608945   -4.636788    0.512695
    105          1           0       -5.911231   -2.539417    3.943343
    106          1           0       -6.352592   -4.121989    4.323500
    107          1           0       -7.660176   -3.085990    3.889505
    108          1           0       -8.567429   -4.369587    1.931572
    109          1           0       -7.689658   -3.905232    0.477189
    110          1           0       -7.816054   -1.326989    1.216725
    111          1           0       -9.068033   -1.977063    2.170221
    112          1           0      -10.080922   -3.018427   -0.052993
    113          1           0       -8.663136   -2.358888   -0.769997
    114          1           0       -9.603438   -0.058601    0.513535
    115          1           0      -11.662929    0.156627    0.727829
    116          1           0      -11.708159   -1.487198    1.128766
    117          1           0      -12.217715   -1.015776   -0.501516
    118          1           0      -10.753167    0.323244   -2.006937
    119          1           0       -9.724383   -1.015926   -2.249797
    120          1           0       -8.390083    0.630767   -2.674305
    121          1           0       -8.112806    0.617770   -0.838974
    122          1           0      -10.273641    2.395075   -1.429124
    123          1           0       -9.164713    2.825220   -2.654069
    124          1           0       -7.481279    2.872257   -0.469629
    125          1           0       -8.379725    3.863818    1.266058
    126          1           0       -9.503573    2.452766    0.903618
    127          1           0      -10.045362    4.165455    0.714559
    128          1           0       -8.240517    5.492565   -0.595114
    129          1           0       -9.042061    4.954478   -1.999700
    130          1           0       -7.224240    4.996348   -3.133277
    131          1           0       -6.371068    3.771853   -2.175459
    132          1           0       -5.940794    6.480467   -1.010555
    133          1           0       -5.636067    6.525238   -2.715968
    134          1           0       -3.727299    6.127785   -1.397578
    135          1           0       -4.387267    4.753736   -3.728271
    136          1           0       -3.135399    3.753174   -2.844135
    137          1           0       -2.887585    5.507091   -3.239037
    138          1           0       -3.489136    4.430453    0.101620
    139          1           0       -4.164177    3.208064   -1.039200
    140          1           0       -5.167799    4.209157    0.061985
 ---------------------------------------------------------------------

 SCF Done:  E(RZINDO/S) =  -474.230563125     A.U. after   19 cycles

 Excitation energies and oscillator strengths:

 Excited State   1:      Singlet-A      1.2799 eV  968.67 nm  f=0.6115  <S**2>=0.000
     175 ->178        -0.18684
     176 ->177         0.66295
 This state for optimization and/or second-order correction.
 Total Energy, E(CIS/TDA) =  -474.183525910
 Copying the excited state density for this state as the 1-particle RhoCI density.

 Excited State   2:      Singlet-A      1.9397 eV  639.19 nm  f=0.1037  <S**2>=0.000
     175 ->177         0.57709
     176 ->178         0.37689

 Excited State   3:      Singlet-A      3.0502 eV  406.48 nm  f=0.0059  <S**2>=0.000
     168 ->179         0.13456
     170 ->177         0.29305
     170 ->178         0.19361
     170 ->179         0.29713
     170 ->180         0.22223
     170 ->182        -0.26142
     170 ->186         0.19581

 Excited State   4:      Singlet-A      3.0581 eV  405.43 nm  f=0.0295  <S**2>=0.000
     168 ->177         0.28613
     168 ->179        -0.36437
     168 ->180         0.30174
     168 ->182        -0.15796
     168 ->186        -0.21255
     168 ->187        -0.15349
     170 ->179         0.10821
     176 ->178         0.10479

 Excited State   5:      Singlet-A      3.0705 eV  403.80 nm  f=0.8922  <S**2>=0.000
     175 ->177        -0.31684
     176 ->178         0.53235
     176 ->179         0.22193
     176 ->182        -0.10414

 The electronic state is 1-A.
 Alpha  occ. eigenvalues --   -1.85402  -1.81676  -1.78347  -1.72218  -1.71669
 Alpha  occ. eigenvalues --   -1.69949  -1.65337  -1.61260  -1.59754  -1.58736
 Alpha  occ. eigenvalues --   -1.56119  -1.52081  -1.49262  -1.48303  -1.47773
 Alpha  occ. eigenvalues --   -1.43719  -1.42757  -1.39644  -1.39267  -1.38246
 Alpha  occ. eigenvalues --   -1.35981  -1.33393  -1.32425  -1.32263  -1.29275
 Alpha  occ. eigenvalues --   -1.28251  -1.24475  -1.22403  -1.20708  -1.18915
 Alpha  occ. eigenvalues --   -1.17549  -1.15778  -1.15736  -1.15110  -1.14486
 Alpha  occ. eigenvalues --   -1.12169  -1.11872  -1.10560  -1.04651  -1.03646
 Alpha  occ. eigenvalues --   -1.02386  -1.01512  -0.99415  -0.97666  -0.97184
 Alpha  occ. eigenvalues --   -0.95163  -0.94873  -0.94365  -0.92632  -0.92166
 Alpha  occ. eigenvalues --   -0.91122  -0.90847  -0.88698  -0.87548  -0.85375
 Alpha  occ. eigenvalues --   -0.84987  -0.83394  -0.82797  -0.82435  -0.80693
 Alpha  occ. eigenvalues --   -0.80403  -0.79151  -0.77592  -0.76779  -0.76495
 Alpha  occ. eigenvalues --   -0.75666  -0.75126  -0.74689  -0.73703  -0.73119
 Alpha  occ. eigenvalues --   -0.72694  -0.72433  -0.72101  -0.71705  -0.70447
 Alpha  occ. eigenvalues --   -0.70394  -0.69982  -0.69380  -0.68857  -0.68348
 Alpha  occ. eigenvalues --   -0.68232  -0.67835  -0.67203  -0.66616  -0.66191
 Alpha  occ. eigenvalues --   -0.64905  -0.64653  -0.64323  -0.64091  -0.63641
 Alpha  occ. eigenvalues --   -0.63166  -0.62811  -0.62722  -0.62575  -0.61965
 Alpha  occ. eigenvalues --   -0.61790  -0.61501  -0.60616  -0.60536  -0.60114
 Alpha  occ. eigenvalues --   -0.59432  -0.59083  -0.58794  -0.58266  -0.58017
 Alpha  occ. eigenvalues --   -0.57903  -0.57568  -0.57408  -0.57029  -0.56941
 Alpha  occ. eigenvalues --   -0.56160  -0.55788  -0.55419  -0.55120  -0.54786
 Alpha  occ. eigenvalues --   -0.54398  -0.53688  -0.53444  -0.53245  -0.52851
 Alpha  occ. eigenvalues --   -0.52509  -0.52323  -0.52205  -0.51986  -0.51760
 Alpha  occ. eigenvalues --   -0.51354  -0.51125  -0.51008  -0.50617  -0.50483
 Alpha  occ. eigenvalues --   -0.50051  -0.49551  -0.49166  -0.49110  -0.48549
 Alpha  occ. eigenvalues --   -0.48294  -0.48204  -0.48061  -0.47978  -0.47811
 Alpha  occ. eigenvalues --   -0.47476  -0.47451  -0.47223  -0.46926  -0.46613
 Alpha  occ. eigenvalues --   -0.46353  -0.46269  -0.45962  -0.45667  -0.45589
 Alpha  occ. eigenvalues --   -0.45503  -0.44897  -0.44652  -0.44498  -0.44230
 Alpha  occ. eigenvalues --   -0.43497  -0.43259  -0.43038  -0.42748  -0.42630
 Alpha  occ. eigenvalues --   -0.42319  -0.41872  -0.41671  -0.39249  -0.39023
 Alpha  occ. eigenvalues --   -0.38579  -0.37179  -0.35972  -0.34887  -0.34806
 Alpha  occ. eigenvalues --   -0.33441  -0.32739  -0.32465  -0.32214  -0.26631
 Alpha  occ. eigenvalues --   -0.22201
 Alpha virt. eigenvalues --   -0.08879  -0.01890  -0.00278   0.01250   0.01354
 Alpha virt. eigenvalues --    0.02430   0.03111   0.03248   0.03780   0.04703
 Alpha virt. eigenvalues --    0.06187   0.06323   0.07179   0.07665   0.08144

 Mulliken charges:
               1
     1  Mg   0.417747
     2  C   -0.032974
     3  C   -0.073062
     4  C   -0.065285
     5  C   -0.061018
     6  N   -0.261447
     7  C    0.098892
     8  C    0.006681
     9  C   -0.002399
    10  C    0.163274
    11  C   -0.052365
    12  C   -0.015046
    13  C    0.014400
    14  C    0.459267
    15  O   -0.517807
    16  O   -0.271119
    17  N   -0.353874
    18  C    0.127685
    19  C    0.015267
    20  C   -0.055938
    21  C    0.151025
    22  C   -0.044540
    23  C    0.330012
    24  O   -0.500153
    25  C   -0.032204
    26  N   -0.263818
    27  C    0.144339
    28  C   -0.004494
    29  C   -0.006153
    30  C    0.113359
    31  C   -0.051422
    32  C   -0.021042
    33  C   -0.054297
    34  N   -0.331642
    35  C    0.083039
    36  C    0.015672
    37  C   -0.031829
    38  C    0.109426
    39  C   -0.042870
    40  C    0.332943
    41  O   -0.510134
    42  C    0.058789
    43  C    0.494550
    44  O   -0.534345
    45  O   -0.273865
    46  C    0.072012
    47  C    0.096902
    48  C   -0.093121
    49  C   -0.009905
    50  C   -0.045727
    51  C   -0.038205
    52  C   -0.008218
    53  C   -0.021897
    54  C   -0.024767
    55  C   -0.057312
    56  C   -0.041465
    57  C   -0.042517
    58  C   -0.027241
    59  C   -0.013672
    60  C   -0.068796
    61  C   -0.041368
    62  C   -0.042035
    63  C   -0.023553
    64  C   -0.019084
    65  C   -0.059194
    66  C   -0.057862
    67  H    0.022808
    68  H    0.044320
    69  H    0.023534
    70  H    0.028535
    71  H    0.021738
    72  H    0.025870
    73  H    0.023240
    74  H    0.018667
    75  H    0.024681
    76  H    0.026680
    77  H    0.053014
    78  H    0.034243
    79  H    0.029165
    80  H    0.015873
    81  H    0.029762
    82  H    0.049999
    83  H    0.035515
    84  H    0.037241
    85  H    0.031990
    86  H    0.036805
    87  H    0.024983
    88  H    0.019089
    89  H    0.017891
    90  H    0.022460
    91  H    0.026949
    92  H    0.017608
    93  H    0.019316
    94  H    0.008838
    95  H    0.026429
    96  H    0.043704
    97  H    0.027241
    98  H    0.046999
    99  H    0.036337
   100  H    0.047561
   101  H    0.053663
   102  H    0.044454
   103  H    0.053324
   104  H    0.042340
   105  H    0.041495
   106  H    0.018869
   107  H    0.019941
   108  H    0.035381
   109  H    0.006335
   110  H    0.033109
   111  H    0.010156
   112  H    0.031892
   113  H    0.011492
   114  H    0.016854
   115  H    0.008754
   116  H    0.011886
   117  H    0.022647
   118  H    0.018948
   119  H    0.010880
   120  H    0.020689
   121  H    0.028724
   122  H    0.017361
   123  H    0.016800
   124  H    0.021230
   125  H    0.017669
   126  H    0.019839
   127  H    0.029810
   128  H    0.015908
   129  H    0.018733
   130  H    0.010788
   131  H    0.027774
   132  H    0.021058
   133  H    0.012591
   134  H    0.009046
   135  H    0.020471
   136  H    0.030411
   137  H    0.017068
   138  H    0.009564
   139  H    0.022805
   140  H    0.015952
 Sum of Mulliken charges =  -0.00000

 Dipole moment (field-independent basis, Debye):
    X=             -6.9140    Y=              4.6004    Z=              1.8836  Tot=              8.5156
 N-N= 4.459863442260D+03 E-N= 0.000000000000D+00  KE=-9.593624278138D+03
 Leave Link  601 at Fri Apr 29 22:12:08 2022, MaxMem=  6710886400 cpu:               1.0 elap:               0.1
 (Enter /sw/apps/gaussian-16.0/g16/l9999.exe)
 1\1\GINC-BP1-COMPUTE150\SP\RZINDO CIS\STO-3G\C55H74Mg1N4O6\OF15641\29-
 Apr-2022\0\\#p ZINDO=(nstates=5)\\step_501_chromophore_12 ZINDO\\0,1\M
 g,0,46.936,15.625,28.058\C,0,44.932,15.296,30.937\C,0,49.09,17.559,29.
 833\C,0,48.76,16.004,25.235\C,0,44.458,14.021,26.229\N,0,46.958,16.417
 ,30.082\C,0,46.097,16.059,31.123\C,0,46.628,16.601,32.416\C,0,47.629,1
 7.68,31.939\C,0,47.921,17.182,30.5\C,0,47.128,19.158,31.891\C,0,47.277
 ,15.546,33.389\C,0,46.823,15.653,34.81\C,0,47.918,15.572,35.89\O,0,48.

 Normal termination of Gaussian 16 at Fri Apr 29 22:12:08 2022.
