 Gaussian 16, Revision A.03,
 Gaussian 16:  ES64L-G16RevA.03 25-Dec-2016

 ------------------------------
 #p blyp/Def2SVP td=(nstates=5)
 ------------------------------

 -------------------------------------------------
 step_251_chromophore_9 TDDFT with blyp functional
 -------------------------------------------------
 Symbolic Z-matrix:
 Charge =  0 Multiplicity = 1

                         Standard orientation:
 ---------------------------------------------------------------------
 Center     Atomic      Atomic             Coordinates (Angstroms)
 Number     Number       Type             X           Y           Z
 ---------------------------------------------------------------------
      1         12           0       -5.122184    0.813045   -0.188429
      2          6           0       -3.778479   -2.380834    0.287521
      3          6           0       -1.924909    1.807469   -1.097577
      4          6           0       -6.254955    3.860513   -0.220724
      5          6           0       -8.223510   -0.419800    0.997130
      6          7           0       -2.956817   -0.106531    0.002417
      7          6           0       -2.734419   -1.423830    0.054228
      8          6           0       -1.278805   -1.648651   -0.185137
      9          6           0       -0.647846   -0.234631   -0.187589
     10          6           0       -1.900009    0.569642   -0.475755
     11          6           0        0.119567    0.259647    1.039901
     12          6           0       -1.017862   -2.403470   -1.527157
     13          6           0       -0.068677   -3.645093   -1.526216
     14          6           0        1.095410   -3.712147   -0.489005
     15          8           0        0.950497   -4.034998    0.702199
     16          8           0        2.344620   -3.494956   -1.098673
     17          7           0       -4.229659    2.608480   -0.757261
     18          6           0       -2.946838    2.732420   -1.274147
     19          6           0       -2.797165    4.096430   -1.664855
     20          6           0       -4.024642    4.781106   -1.298706
     21          6           0       -4.917722    3.775031   -0.743630
     22          6           0       -1.498746    4.709010   -2.234023
     23          6           0       -4.383482    6.292952   -1.376667
     24          8           0       -5.422277    6.757950   -1.028678
     25          6           0       -3.336126    7.192097   -2.003541
     26          7           0       -6.976723    1.562401    0.309441
     27          6           0       -7.179158    2.898414    0.271094
     28          6           0       -8.611651    3.331283    0.688421
     29          6           0       -9.300811    1.905021    0.813941
     30          6           0       -8.135486    0.932127    0.678529
     31          6           0       -8.567706    4.231079    2.054097
     32          6           0      -10.507644    1.702722   -0.155302
     33          6           0      -10.258617    0.954490   -1.452638
     34          7           0       -5.940386   -1.031772    0.485832
     35          6           0       -7.213838   -1.387117    0.840243
     36          6           0       -7.221558   -2.861932    1.140548
     37          6           0       -5.885508   -3.270619    0.928050
     38          6           0       -5.106236   -2.122175    0.566356
     39          6           0       -8.342249   -3.677520    1.725923
     40          6           0       -4.971376   -4.409679    0.959173
     41          8           0       -5.225095   -5.578721    1.263379
     42          6           0       -3.650904   -3.893186    0.395573
     43          6           0       -2.596059   -4.319597    1.375953
     44          8           0       -2.366593   -3.775330    2.440439
     45          8           0       -2.137912   -5.478010    0.930746
     46          6           0       -1.414693   -6.334003    1.857980
     47          6           0        3.501840   -3.606514   -0.166862
     48          6           0        4.587233   -2.877069   -0.974560
     49          6           0        5.550081   -3.369556   -1.792519
     50          6           0        5.647641   -4.805030   -2.178434
     51          6           0        6.408246   -2.434956   -2.627568
     52          6           0        7.670361   -1.925476   -2.131250
     53          6           0        8.795701   -1.972592   -3.215229
     54          6           0        9.443119   -0.568218   -3.589280
     55          6           0       10.237477   -0.613123   -4.864821
     56          6           0       10.309273   -0.099614   -2.438939
     57          6           0        9.588400    0.920089   -1.528949
     58          6           0       10.498000    2.111324   -1.110127
     59          6           0        9.859109    2.923720    0.084636
     60          6           0        9.554039    4.285648   -0.554085
     61          6           0       10.677671    2.919769    1.371536
     62          6           0        9.999692    2.301448    2.599876
     63          6           0       11.141696    1.963677    3.671334
     64          6           0       10.785807    2.262804    5.166533
     65          6           0       11.246360    3.707679    5.463435
     66          6           0       11.139861    1.269935    6.322615
     67          1           0       -0.901156    2.156640   -1.244300
     68          1           0       -6.704360    4.839703   -0.396937
     69          1           0       -9.184663   -0.801896    1.348220
     70          1           0       -0.885365   -2.264462    0.622994
     71          1           0        0.095438   -0.240342   -0.984938
     72          1           0        0.223979   -0.447373    1.863088
     73          1           0       -0.345697    1.162374    1.436759
     74          1           0        1.116397    0.520358    0.684979
     75          1           0       -0.726625   -1.746402   -2.346368
     76          1           0       -2.037435   -2.721845   -1.743994
     77          1           0        0.363066   -3.631647   -2.527770
     78          1           0       -0.673469   -4.543333   -1.404391
     79          1           0       -1.164818    5.592681   -1.690135
     80          1           0       -1.635670    5.108910   -3.238848
     81          1           0       -0.661331    4.013031   -2.298820
     82          1           0       -2.991261    6.828517   -2.971739
     83          1           0       -2.524943    7.313015   -1.285476
     84          1           0       -3.705912    8.215342   -2.069074
     85          1           0       -9.106256    3.931576   -0.075001
     86          1           0       -9.770813    1.742099    1.783712
     87          1           0       -8.978366    3.574550    2.821306
     88          1           0       -9.264550    5.069478    2.044657
     89          1           0       -7.560809    4.481248    2.390178
     90          1           0      -10.747327    2.714288   -0.483298
     91          1           0      -11.382345    1.289910    0.346863
     92          1           0       -9.315274    1.364825   -1.815014
     93          1           0      -11.126163    1.256028   -2.039147
     94          1           0      -10.081442   -0.120708   -1.452743
     95          1           0       -9.250648   -3.166081    2.044412
     96          1           0       -7.978746   -4.201371    2.610088
     97          1           0       -8.540252   -4.454207    0.987912
     98          1           0       -3.318594   -4.388278   -0.517084
     99          1           0       -1.345036   -6.063135    2.911002
    100          1           0       -0.391208   -6.270632    1.487160
    101          1           0       -1.559748   -7.368627    1.546909
    102          1           0        3.799432   -4.619927    0.103758
    103          1           0        3.241619   -3.143034    0.785793
    104          1           0        4.727652   -1.812201   -0.790236
    105          1           0        5.371551   -5.546682   -1.429523
    106          1           0        6.696857   -4.922701   -2.451403
    107          1           0        4.939379   -4.963271   -2.991135
    108          1           0        5.716367   -1.615991   -2.820719
    109          1           0        6.549618   -2.853013   -3.623785
    110          1           0        8.057299   -2.450407   -1.257975
    111          1           0        7.592025   -0.875216   -1.849675
    112          1           0        8.596198   -2.550155   -4.117723
    113          1           0        9.668060   -2.530029   -2.872946
    114          1           0        8.552842    0.039554   -3.749686
    115          1           0       11.312644   -0.761219   -4.763789
    116          1           0       10.029920    0.341305   -5.348127
    117          1           0        9.867511   -1.438765   -5.472551
    118          1           0       11.311881    0.192015   -2.752634
    119          1           0       10.598517   -0.965269   -1.842737
    120          1           0        9.310777    0.424191   -0.598545
    121          1           0        8.698730    1.308160   -2.025194
    122          1           0       10.754976    2.619655   -2.040194
    123          1           0       11.398085    1.620894   -0.739803
    124          1           0        8.917058    2.432529    0.327975
    125          1           0        8.492035    4.317110   -0.798320
    126          1           0       10.020747    4.587532   -1.492943
    127          1           0        9.724099    5.010237    0.242364
    128          1           0       10.920828    3.946006    1.646626
    129          1           0       11.595940    2.367945    1.174247
    130          1           0        9.572600    1.330513    2.347432
    131          1           0        9.148433    2.907662    2.908239
    132          1           0       12.095236    2.442254    3.448920
    133          1           0       11.292886    0.888290    3.575659
    134          1           0        9.700355    2.177313    5.203635
    135          1           0       10.730928    4.478046    4.888817
    136          1           0       12.301188    3.925582    5.300466
    137          1           0       11.204711    3.874436    6.540326
    138          1           0       10.194539    0.898749    6.718996
    139          1           0       11.674722    1.822183    7.095058
    140          1           0       11.775162    0.512727    5.863017
 ---------------------------------------------------------------------

 SCF Done:  E(RB-LYP) =  -3007.36481512     A.U. after   21 cycles

 Excitation energies and oscillator strengths:

 Excited State   1:      Singlet-A      1.8272 eV  678.55 nm  f=0.3142  <S**2>=0.000
     245 -> 248       -0.19955
     246 -> 247        0.68705
     246 <- 247       -0.14500
 This state for optimization and/or second-order correction.
 Total Energy, E(TD-HF/TD-DFT) =  -3007.29766744
 Copying the excited state density for this state as the 1-particle RhoCI density.

 Excited State   2:      Singlet-A      1.9557 eV  633.97 nm  f=0.0484  <S**2>=0.000
     243 -> 247        0.21336
     244 -> 247        0.28905
     245 -> 247        0.57133
     246 -> 248        0.18245

 Excited State   3:      Singlet-A      2.0182 eV  614.32 nm  f=0.0096  <S**2>=0.000
     243 -> 247       -0.24819
     244 -> 247        0.62532
     245 -> 247       -0.19114

 Excited State   4:      Singlet-A      2.0583 eV  602.36 nm  f=0.0122  <S**2>=0.000
     243 -> 247        0.62533
     244 -> 247        0.14912
     245 -> 247       -0.25858
     246 -> 248       -0.11981

 Excited State   5:      Singlet-A      2.4526 eV  505.52 nm  f=0.0020  <S**2>=0.000
     242 -> 247        0.69024

 The electronic state is 1-A.
 Alpha  occ. eigenvalues --  -46.27116 -18.82838 -18.82322 -18.78223 -18.75611
 Alpha  occ. eigenvalues --  -18.75580 -18.75524 -14.02946 -14.02525 -14.00588
 Alpha  occ. eigenvalues --  -14.00405 -10.05249 -10.02852  -9.99517  -9.99513
 Alpha  occ. eigenvalues --   -9.98527  -9.96759  -9.96453  -9.96417  -9.96326
 Alpha  occ. eigenvalues --   -9.95809  -9.95533  -9.95389  -9.95048  -9.94466
 Alpha  occ. eigenvalues --   -9.94430  -9.94361  -9.94275  -9.93724  -9.93706
 Alpha  occ. eigenvalues --   -9.93536  -9.93526  -9.93371  -9.93231  -9.93110
 Alpha  occ. eigenvalues --   -9.92956  -9.92911  -9.92536  -9.92527  -9.92440
 Alpha  occ. eigenvalues --   -9.92389  -9.92258  -9.92257  -9.92212  -9.91988
 Alpha  occ. eigenvalues --   -9.91922  -9.91864  -9.91819  -9.91791  -9.91746
 Alpha  occ. eigenvalues --   -9.91689  -9.91684  -9.91673  -9.91501  -9.91427
 Alpha  occ. eigenvalues --   -9.91293  -9.91209  -9.91172  -9.91105  -9.91082
 Alpha  occ. eigenvalues --   -9.90988  -9.90981  -9.90859  -9.90855  -9.90699
 Alpha  occ. eigenvalues --   -9.90661  -2.91672  -1.72102  -1.71597  -1.71343
 Alpha  occ. eigenvalues --   -0.98721  -0.96994  -0.93060  -0.90575  -0.89848
 Alpha  occ. eigenvalues --   -0.89644  -0.87077  -0.86007  -0.84784  -0.84428
 Alpha  occ. eigenvalues --   -0.75695  -0.74455  -0.73166  -0.72541  -0.72197
 Alpha  occ. eigenvalues --   -0.71979  -0.71367  -0.70678  -0.70435  -0.69468
 Alpha  occ. eigenvalues --   -0.69144  -0.68894  -0.68283  -0.67586  -0.67032
 Alpha  occ. eigenvalues --   -0.66610  -0.66030  -0.65117  -0.64781  -0.64682
 Alpha  occ. eigenvalues --   -0.64059  -0.62452  -0.62010  -0.61430  -0.60850
 Alpha  occ. eigenvalues --   -0.60640  -0.60075  -0.59863  -0.59362  -0.59098
 Alpha  occ. eigenvalues --   -0.58013  -0.57460  -0.56689  -0.55767  -0.54783
 Alpha  occ. eigenvalues --   -0.53856  -0.53673  -0.52906  -0.52026  -0.51246
 Alpha  occ. eigenvalues --   -0.51107  -0.50833  -0.50462  -0.50282  -0.50207
 Alpha  occ. eigenvalues --   -0.49841  -0.49634  -0.48487  -0.48356  -0.46329
 Alpha  occ. eigenvalues --   -0.46134  -0.45857  -0.45617  -0.44941  -0.43914
 Alpha  occ. eigenvalues --   -0.43743  -0.43385  -0.43195  -0.42882  -0.42626
 Alpha  occ. eigenvalues --   -0.42124  -0.41960  -0.41534  -0.41472  -0.41016
 Alpha  occ. eigenvalues --   -0.40823  -0.40572  -0.40328  -0.40189  -0.39873
 Alpha  occ. eigenvalues --   -0.39693  -0.39510  -0.39411  -0.39373  -0.39142
 Alpha  occ. eigenvalues --   -0.38899  -0.38716  -0.38260  -0.38127  -0.38042
 Alpha  occ. eigenvalues --   -0.37872  -0.37678  -0.37491  -0.37460  -0.37314
 Alpha  occ. eigenvalues --   -0.37055  -0.36702  -0.36647  -0.36446  -0.36193
 Alpha  occ. eigenvalues --   -0.36079  -0.35918  -0.35778  -0.35634  -0.35540
 Alpha  occ. eigenvalues --   -0.35301  -0.35180  -0.34976  -0.34826  -0.34602
 Alpha  occ. eigenvalues --   -0.34403  -0.34339  -0.34050  -0.33978  -0.33881
 Alpha  occ. eigenvalues --   -0.33609  -0.33467  -0.33299  -0.33172  -0.33121
 Alpha  occ. eigenvalues --   -0.33096  -0.32752  -0.32510  -0.32203  -0.32112
 Alpha  occ. eigenvalues --   -0.31895  -0.31836  -0.31659  -0.31625  -0.31594
 Alpha  occ. eigenvalues --   -0.31316  -0.31114  -0.30898  -0.30687  -0.30607
 Alpha  occ. eigenvalues --   -0.30497  -0.30312  -0.30047  -0.29917  -0.29903
 Alpha  occ. eigenvalues --   -0.29834  -0.29635  -0.29455  -0.29125  -0.29002
 Alpha  occ. eigenvalues --   -0.28811  -0.28228  -0.28217  -0.28020  -0.27682
 Alpha  occ. eigenvalues --   -0.27436  -0.27339  -0.27033  -0.26393  -0.26128
 Alpha  occ. eigenvalues --   -0.26091  -0.25842  -0.25687  -0.25308  -0.24927
 Alpha  occ. eigenvalues --   -0.24886  -0.24870  -0.24013  -0.23892  -0.23374
 Alpha  occ. eigenvalues --   -0.23124  -0.22745  -0.21622  -0.20944  -0.20563
 Alpha  occ. eigenvalues --   -0.20228  -0.19769  -0.18659  -0.18587  -0.16901
 Alpha  occ. eigenvalues --   -0.15653
 Alpha virt. eigenvalues --   -0.11279  -0.06535  -0.05987  -0.04647  -0.04106
 Alpha virt. eigenvalues --   -0.03124  -0.02065  -0.01279  -0.01017   0.00498
 Alpha virt. eigenvalues --    0.01181   0.01835   0.02491   0.02661   0.02980

 Mulliken charges:
               1
     1  Mg   0.674469
     2  C    0.045955
     3  C   -0.033350
     4  C   -0.023949
     5  C   -0.066694
     6  N   -0.152490
     7  C   -0.053800
     8  C   -0.030802
     9  C    0.009451
    10  C   -0.048383
    11  C    0.148954
    12  C    0.097364
    13  C    0.158826
    14  C    0.097003
    15  O   -0.208065
    16  O   -0.281474
    17  N   -0.314806
    18  C    0.169517
    19  C   -0.134178
    20  C    0.006017
    21  C    0.078272
    22  C    0.168829
    23  C   -0.077083
    24  O   -0.120725
    25  C    0.124976
    26  N   -0.237561
    27  C    0.037300
    28  C   -0.007554
    29  C    0.054851
    30  C    0.040792
    31  C    0.115171
    32  C    0.065574
    33  C    0.080346
    34  N   -0.255728
    35  C    0.095744
    36  C   -0.172753
    37  C    0.090413
    38  C    0.067119
    39  C    0.166433
    40  C   -0.031177
    41  O   -0.143175
    42  C    0.041370
    43  C    0.080101
    44  O   -0.182742
    45  O   -0.235381
    46  C    0.235724
    47  C    0.316681
    48  C   -0.072345
    49  C   -0.168713
    50  C    0.144774
    51  C    0.134642
    52  C    0.138375
    53  C    0.044552
    54  C   -0.103439
    55  C    0.128786
    56  C    0.154738
    57  C    0.017305
    58  C    0.086241
    59  C   -0.046840
    60  C    0.113268
    61  C    0.106808
    62  C    0.055874
    63  C    0.099317
    64  C   -0.099204
    65  C    0.091743
    66  C    0.118252
    67  H   -0.065403
    68  H   -0.039552
    69  H   -0.069876
    70  H    0.006147
    71  H   -0.043914
    72  H    0.007338
    73  H   -0.007692
    74  H   -0.017386
    75  H   -0.013040
    76  H   -0.029774
    77  H   -0.012178
    78  H    0.011259
    79  H   -0.008991
    80  H   -0.007167
    81  H   -0.016467
    82  H    0.011492
    83  H    0.003363
    84  H   -0.022892
    85  H   -0.008538
    86  H   -0.032602
    87  H   -0.024585
    88  H   -0.000310
    89  H    0.012102
    90  H   -0.031711
    91  H   -0.024081
    92  H   -0.011540
    93  H   -0.002640
    94  H   -0.002871
    95  H   -0.011066
    96  H    0.011768
    97  H    0.008878
    98  H   -0.001607
    99  H    0.037755
   100  H   -0.011703
   101  H    0.003484
   102  H   -0.001932
   103  H   -0.003521
   104  H   -0.044012
   105  H   -0.015195
   106  H   -0.003678
   107  H    0.014550
   108  H   -0.032966
   109  H   -0.035285
   110  H   -0.027463
   111  H   -0.024802
   112  H   -0.044070
   113  H   -0.053599
   114  H   -0.039257
   115  H   -0.012329
   116  H   -0.013574
   117  H   -0.032147
   118  H   -0.042910
   119  H   -0.048659
   120  H   -0.019186
   121  H   -0.020372
   122  H   -0.023529
   123  H   -0.043012
   124  H   -0.035524
   125  H   -0.028840
   126  H   -0.007896
   127  H   -0.030131
   128  H   -0.033027
   129  H   -0.029947
   130  H   -0.033937
   131  H   -0.018844
   132  H   -0.022680
   133  H   -0.043878
   134  H   -0.039520
   135  H   -0.011482
   136  H   -0.025021
   137  H   -0.026690
   138  H   -0.005704
   139  H   -0.019704
   140  H   -0.015743
 Sum of Mulliken charges =  -0.00000

 Dipole moment (field-independent basis, Debye):
    X=              3.3644    Y=              0.1328    Z=             -3.3990  Tot=              4.7844
 Quadrupole moment (field-independent basis, Debye-Ang):
   XX=           -371.1120   YY=           -428.0919   ZZ=           -406.8721
   XY=            -10.4728   XZ=             -2.6240   YZ=             10.6610

 Normal termination of Gaussian 16 at Fri Apr 29 12:01:06 2022.
