 Gaussian 16, Revision A.03,
 Gaussian 16:  ES64L-G16RevA.03 25-Dec-2016

 -----------------------------------
 #p cam-b3lyp/Def2SVP td=(nstates=5)
 -----------------------------------

 ------------------------------------------------------
 step_251_chromophore_9 TDDFT with cam-b3lyp functional
 ------------------------------------------------------
 Symbolic Z-matrix:
 Charge =  0 Multiplicity = 1

                         Standard orientation:
 ---------------------------------------------------------------------
 Center     Atomic      Atomic             Coordinates (Angstroms)
 Number     Number       Type             X           Y           Z
 ---------------------------------------------------------------------
      1         12           0       -5.122184    0.813045   -0.188429
      2          6           0       -3.778479   -2.380834    0.287521
      3          6           0       -1.924909    1.807469   -1.097577
      4          6           0       -6.254955    3.860513   -0.220724
      5          6           0       -8.223510   -0.419800    0.997130
      6          7           0       -2.956817   -0.106531    0.002417
      7          6           0       -2.734419   -1.423830    0.054228
      8          6           0       -1.278805   -1.648651   -0.185137
      9          6           0       -0.647846   -0.234631   -0.187589
     10          6           0       -1.900009    0.569642   -0.475755
     11          6           0        0.119567    0.259647    1.039901
     12          6           0       -1.017862   -2.403470   -1.527157
     13          6           0       -0.068677   -3.645093   -1.526216
     14          6           0        1.095410   -3.712147   -0.489005
     15          8           0        0.950497   -4.034998    0.702199
     16          8           0        2.344620   -3.494956   -1.098673
     17          7           0       -4.229659    2.608480   -0.757261
     18          6           0       -2.946838    2.732420   -1.274147
     19          6           0       -2.797165    4.096430   -1.664855
     20          6           0       -4.024642    4.781106   -1.298706
     21          6           0       -4.917722    3.775031   -0.743630
     22          6           0       -1.498746    4.709010   -2.234023
     23          6           0       -4.383482    6.292952   -1.376667
     24          8           0       -5.422277    6.757950   -1.028678
     25          6           0       -3.336126    7.192097   -2.003541
     26          7           0       -6.976723    1.562401    0.309441
     27          6           0       -7.179158    2.898414    0.271094
     28          6           0       -8.611651    3.331283    0.688421
     29          6           0       -9.300811    1.905021    0.813941
     30          6           0       -8.135486    0.932127    0.678529
     31          6           0       -8.567706    4.231079    2.054097
     32          6           0      -10.507644    1.702722   -0.155302
     33          6           0      -10.258617    0.954490   -1.452638
     34          7           0       -5.940386   -1.031772    0.485832
     35          6           0       -7.213838   -1.387117    0.840243
     36          6           0       -7.221558   -2.861932    1.140548
     37          6           0       -5.885508   -3.270619    0.928050
     38          6           0       -5.106236   -2.122175    0.566356
     39          6           0       -8.342249   -3.677520    1.725923
     40          6           0       -4.971376   -4.409679    0.959173
     41          8           0       -5.225095   -5.578721    1.263379
     42          6           0       -3.650904   -3.893186    0.395573
     43          6           0       -2.596059   -4.319597    1.375953
     44          8           0       -2.366593   -3.775330    2.440439
     45          8           0       -2.137912   -5.478010    0.930746
     46          6           0       -1.414693   -6.334003    1.857980
     47          6           0        3.501840   -3.606514   -0.166862
     48          6           0        4.587233   -2.877069   -0.974560
     49          6           0        5.550081   -3.369556   -1.792519
     50          6           0        5.647641   -4.805030   -2.178434
     51          6           0        6.408246   -2.434956   -2.627568
     52          6           0        7.670361   -1.925476   -2.131250
     53          6           0        8.795701   -1.972592   -3.215229
     54          6           0        9.443119   -0.568218   -3.589280
     55          6           0       10.237477   -0.613123   -4.864821
     56          6           0       10.309273   -0.099614   -2.438939
     57          6           0        9.588400    0.920089   -1.528949
     58          6           0       10.498000    2.111324   -1.110127
     59          6           0        9.859109    2.923720    0.084636
     60          6           0        9.554039    4.285648   -0.554085
     61          6           0       10.677671    2.919769    1.371536
     62          6           0        9.999692    2.301448    2.599876
     63          6           0       11.141696    1.963677    3.671334
     64          6           0       10.785807    2.262804    5.166533
     65          6           0       11.246360    3.707679    5.463435
     66          6           0       11.139861    1.269935    6.322615
     67          1           0       -0.901156    2.156640   -1.244300
     68          1           0       -6.704360    4.839703   -0.396937
     69          1           0       -9.184663   -0.801896    1.348220
     70          1           0       -0.885365   -2.264462    0.622994
     71          1           0        0.095438   -0.240342   -0.984938
     72          1           0        0.223979   -0.447373    1.863088
     73          1           0       -0.345697    1.162374    1.436759
     74          1           0        1.116397    0.520358    0.684979
     75          1           0       -0.726625   -1.746402   -2.346368
     76          1           0       -2.037435   -2.721845   -1.743994
     77          1           0        0.363066   -3.631647   -2.527770
     78          1           0       -0.673469   -4.543333   -1.404391
     79          1           0       -1.164818    5.592681   -1.690135
     80          1           0       -1.635670    5.108910   -3.238848
     81          1           0       -0.661331    4.013031   -2.298820
     82          1           0       -2.991261    6.828517   -2.971739
     83          1           0       -2.524943    7.313015   -1.285476
     84          1           0       -3.705912    8.215342   -2.069074
     85          1           0       -9.106256    3.931576   -0.075001
     86          1           0       -9.770813    1.742099    1.783712
     87          1           0       -8.978366    3.574550    2.821306
     88          1           0       -9.264550    5.069478    2.044657
     89          1           0       -7.560809    4.481248    2.390178
     90          1           0      -10.747327    2.714288   -0.483298
     91          1           0      -11.382345    1.289910    0.346863
     92          1           0       -9.315274    1.364825   -1.815014
     93          1           0      -11.126163    1.256028   -2.039147
     94          1           0      -10.081442   -0.120708   -1.452743
     95          1           0       -9.250648   -3.166081    2.044412
     96          1           0       -7.978746   -4.201371    2.610088
     97          1           0       -8.540252   -4.454207    0.987912
     98          1           0       -3.318594   -4.388278   -0.517084
     99          1           0       -1.345036   -6.063135    2.911002
    100          1           0       -0.391208   -6.270632    1.487160
    101          1           0       -1.559748   -7.368627    1.546909
    102          1           0        3.799432   -4.619927    0.103758
    103          1           0        3.241619   -3.143034    0.785793
    104          1           0        4.727652   -1.812201   -0.790236
    105          1           0        5.371551   -5.546682   -1.429523
    106          1           0        6.696857   -4.922701   -2.451403
    107          1           0        4.939379   -4.963271   -2.991135
    108          1           0        5.716367   -1.615991   -2.820719
    109          1           0        6.549618   -2.853013   -3.623785
    110          1           0        8.057299   -2.450407   -1.257975
    111          1           0        7.592025   -0.875216   -1.849675
    112          1           0        8.596198   -2.550155   -4.117723
    113          1           0        9.668060   -2.530029   -2.872946
    114          1           0        8.552842    0.039554   -3.749686
    115          1           0       11.312644   -0.761219   -4.763789
    116          1           0       10.029920    0.341305   -5.348127
    117          1           0        9.867511   -1.438765   -5.472551
    118          1           0       11.311881    0.192015   -2.752634
    119          1           0       10.598517   -0.965269   -1.842737
    120          1           0        9.310777    0.424191   -0.598545
    121          1           0        8.698730    1.308160   -2.025194
    122          1           0       10.754976    2.619655   -2.040194
    123          1           0       11.398085    1.620894   -0.739803
    124          1           0        8.917058    2.432529    0.327975
    125          1           0        8.492035    4.317110   -0.798320
    126          1           0       10.020747    4.587532   -1.492943
    127          1           0        9.724099    5.010237    0.242364
    128          1           0       10.920828    3.946006    1.646626
    129          1           0       11.595940    2.367945    1.174247
    130          1           0        9.572600    1.330513    2.347432
    131          1           0        9.148433    2.907662    2.908239
    132          1           0       12.095236    2.442254    3.448920
    133          1           0       11.292886    0.888290    3.575659
    134          1           0        9.700355    2.177313    5.203635
    135          1           0       10.730928    4.478046    4.888817
    136          1           0       12.301188    3.925582    5.300466
    137          1           0       11.204711    3.874436    6.540326
    138          1           0       10.194539    0.898749    6.718996
    139          1           0       11.674722    1.822183    7.095058
    140          1           0       11.775162    0.512727    5.863017
 ---------------------------------------------------------------------

 SCF Done:  E(RCAM-B3LYP) =  -3007.15753140     A.U. after   17 cycles

 Excitation energies and oscillator strengths:

 Excited State   1:      Singlet-A      1.7322 eV  715.77 nm  f=0.3852  <S**2>=0.000
     245 -> 248       -0.18705
     246 -> 247        0.68368
     245 <- 248       -0.10942
 This state for optimization and/or second-order correction.
 Total Energy, E(TD-HF/TD-DFT) =  -3007.09387541
 Copying the excited state density for this state as the 1-particle RhoCI density.

 Excited State   2:      Singlet-A      2.2144 eV  559.89 nm  f=0.1066  <S**2>=0.000
     245 -> 247        0.64242
     246 -> 248        0.28217

 Excited State   3:      Singlet-A      3.3378 eV  371.45 nm  f=0.0020  <S**2>=0.000
     243 -> 247       -0.28723
     244 -> 247        0.62570

 Excited State   4:      Singlet-A      3.4427 eV  360.14 nm  f=0.0817  <S**2>=0.000
     239 -> 247        0.34459
     239 -> 249       -0.22848
     243 -> 247        0.37618
     244 -> 247        0.20400
     246 -> 248       -0.32693

 Excited State   5:      Singlet-A      3.5010 eV  354.14 nm  f=0.0429  <S**2>=0.000
     239 -> 247        0.43482
     239 -> 249       -0.28514
     243 -> 247       -0.36103
     246 -> 248        0.23366

 The electronic state is 1-A.
 Alpha  occ. eigenvalues --  -46.88679 -19.25719 -19.25375 -19.21245 -19.19163
 Alpha  occ. eigenvalues --  -19.18788 -19.18532 -14.41660 -14.41496 -14.39182
 Alpha  occ. eigenvalues --  -14.38628 -10.40733 -10.38390 -10.35204 -10.34406
 Alpha  occ. eigenvalues --  -10.32712 -10.31188 -10.30969 -10.30791 -10.30668
 Alpha  occ. eigenvalues --  -10.30527 -10.29630 -10.29439 -10.29239 -10.29111
 Alpha  occ. eigenvalues --  -10.28850 -10.28515 -10.28277 -10.28056 -10.27941
 Alpha  occ. eigenvalues --  -10.27937 -10.27740 -10.27468 -10.27356 -10.27028
 Alpha  occ. eigenvalues --  -10.26987 -10.26625 -10.26568 -10.26507 -10.26352
 Alpha  occ. eigenvalues --  -10.26260 -10.26189 -10.25853 -10.25849 -10.25846
 Alpha  occ. eigenvalues --  -10.25781 -10.25637 -10.25578 -10.25479 -10.25447
 Alpha  occ. eigenvalues --  -10.25442 -10.25388 -10.25331 -10.25228 -10.25225
 Alpha  occ. eigenvalues --  -10.25143 -10.25000 -10.24939 -10.24848 -10.24702
 Alpha  occ. eigenvalues --  -10.24666 -10.24625 -10.24498 -10.24428 -10.24290
 Alpha  occ. eigenvalues --  -10.24228  -3.17136  -1.92044  -1.91627  -1.91396
 Alpha  occ. eigenvalues --   -1.17416  -1.15407  -1.11277  -1.09334  -1.07807
 Alpha  occ. eigenvalues --   -1.07675  -1.04921  -1.03660  -1.02468  -1.01746
 Alpha  occ. eigenvalues --   -0.93119  -0.91352  -0.89965  -0.89354  -0.88906
 Alpha  occ. eigenvalues --   -0.88616  -0.87913  -0.87244  -0.86981  -0.86110
 Alpha  occ. eigenvalues --   -0.85580  -0.85260  -0.84552  -0.83776  -0.83156
 Alpha  occ. eigenvalues --   -0.82662  -0.82005  -0.80918  -0.80640  -0.80548
 Alpha  occ. eigenvalues --   -0.79964  -0.78231  -0.77566  -0.76931  -0.76247
 Alpha  occ. eigenvalues --   -0.76122  -0.75409  -0.75092  -0.74626  -0.74330
 Alpha  occ. eigenvalues --   -0.73067  -0.72531  -0.71567  -0.70612  -0.69400
 Alpha  occ. eigenvalues --   -0.68576  -0.68228  -0.67303  -0.66302  -0.65477
 Alpha  occ. eigenvalues --   -0.65184  -0.64816  -0.64544  -0.64364  -0.64190
 Alpha  occ. eigenvalues --   -0.63644  -0.63619  -0.62346  -0.62202  -0.59988
 Alpha  occ. eigenvalues --   -0.59661  -0.59381  -0.59090  -0.58385  -0.57681
 Alpha  occ. eigenvalues --   -0.57183  -0.56718  -0.56518  -0.56168  -0.55801
 Alpha  occ. eigenvalues --   -0.55126  -0.54773  -0.54626  -0.54337  -0.54090
 Alpha  occ. eigenvalues --   -0.53928  -0.53507  -0.53167  -0.52870  -0.52607
 Alpha  occ. eigenvalues --   -0.52293  -0.52184  -0.51964  -0.51879  -0.51590
 Alpha  occ. eigenvalues --   -0.51327  -0.51217  -0.50979  -0.50815  -0.50646
 Alpha  occ. eigenvalues --   -0.50353  -0.50184  -0.49916  -0.49655  -0.49582
 Alpha  occ. eigenvalues --   -0.49507  -0.49125  -0.48988  -0.48684  -0.48607
 Alpha  occ. eigenvalues --   -0.48560  -0.48187  -0.47932  -0.47802  -0.47767
 Alpha  occ. eigenvalues --   -0.47403  -0.47175  -0.46855  -0.46791  -0.46418
 Alpha  occ. eigenvalues --   -0.46218  -0.46133  -0.45788  -0.45734  -0.45659
 Alpha  occ. eigenvalues --   -0.45486  -0.45288  -0.45112  -0.44866  -0.44721
 Alpha  occ. eigenvalues --   -0.44720  -0.44662  -0.44518  -0.44209  -0.43641
 Alpha  occ. eigenvalues --   -0.43575  -0.43509  -0.43174  -0.43154  -0.43087
 Alpha  occ. eigenvalues --   -0.42821  -0.42720  -0.42596  -0.42260  -0.42138
 Alpha  occ. eigenvalues --   -0.42018  -0.41717  -0.41574  -0.41226  -0.41079
 Alpha  occ. eigenvalues --   -0.40912  -0.40778  -0.40706  -0.40526  -0.40227
 Alpha  occ. eigenvalues --   -0.39824  -0.39224  -0.39135  -0.38915  -0.38645
 Alpha  occ. eigenvalues --   -0.38306  -0.38184  -0.37827  -0.37180  -0.37134
 Alpha  occ. eigenvalues --   -0.36977  -0.36755  -0.36652  -0.36151  -0.35879
 Alpha  occ. eigenvalues --   -0.35491  -0.35453  -0.35439  -0.35043  -0.33961
 Alpha  occ. eigenvalues --   -0.33689  -0.33663  -0.32935  -0.31136  -0.30644
 Alpha  occ. eigenvalues --   -0.30332  -0.30284  -0.29768  -0.28839  -0.23663
 Alpha  occ. eigenvalues --   -0.20957
 Alpha virt. eigenvalues --   -0.08347  -0.01407   0.00392   0.02761   0.03013
 Alpha virt. eigenvalues --    0.03241   0.04280   0.05800   0.06514   0.07075
 Alpha virt. eigenvalues --    0.08043   0.08673   0.08823   0.09154   0.09379

 Mulliken charges:
               1
     1  Mg   0.806901
     2  C    0.010638
     3  C   -0.043124
     4  C   -0.040517
     5  C   -0.078735
     6  N   -0.216950
     7  C   -0.004962
     8  C   -0.091761
     9  C   -0.036412
    10  C   -0.039519
    11  C    0.090513
    12  C    0.048941
    13  C    0.091762
    14  C    0.174941
    15  O   -0.250712
    16  O   -0.346444
    17  N   -0.403030
    18  C    0.175667
    19  C   -0.142790
    20  C   -0.065348
    21  C    0.100735
    22  C    0.112468
    23  C    0.005964
    24  O   -0.163849
    25  C    0.038993
    26  N   -0.314299
    27  C    0.051085
    28  C   -0.056780
    29  C   -0.004283
    30  C    0.059638
    31  C    0.060203
    32  C    0.013168
    33  C    0.020693
    34  N   -0.344697
    35  C    0.108959
    36  C   -0.166863
    37  C    0.013115
    38  C    0.107590
    39  C    0.113984
    40  C    0.068329
    41  O   -0.177351
    42  C   -0.029421
    43  C    0.164906
    44  O   -0.218785
    45  O   -0.297803
    46  C    0.191594
    47  C    0.284608
    48  C   -0.095306
    49  C   -0.183326
    50  C    0.081636
    51  C    0.067214
    52  C    0.079412
    53  C   -0.003478
    54  C   -0.159244
    55  C    0.069641
    56  C    0.092192
    57  C   -0.030008
    58  C    0.037741
    59  C   -0.108236
    60  C    0.056046
    61  C    0.053866
    62  C    0.004264
    63  C    0.042641
    64  C   -0.157097
    65  C    0.032300
    66  C    0.059998
    67  H   -0.031680
    68  H   -0.002207
    69  H   -0.034256
    70  H    0.041204
    71  H   -0.007317
    72  H    0.031739
    73  H    0.019236
    74  H    0.005709
    75  H    0.018266
    76  H    0.001409
    77  H    0.024709
    78  H    0.039995
    79  H    0.015946
    80  H    0.018044
    81  H    0.010500
    82  H    0.037028
    83  H    0.030558
    84  H    0.012706
    85  H    0.024534
    86  H    0.004360
    87  H   -0.001537
    88  H    0.023345
    89  H    0.037608
    90  H   -0.001972
    91  H    0.003965
    92  H    0.009646
    93  H    0.020698
    94  H    0.019971
    95  H    0.015889
    96  H    0.039518
    97  H    0.036116
    98  H    0.040867
    99  H    0.064858
   100  H    0.012450
   101  H    0.028831
   102  H    0.024670
   103  H    0.028807
   104  H   -0.012061
   105  H    0.009445
   106  H    0.018617
   107  H    0.039340
   108  H   -0.000231
   109  H   -0.002908
   110  H    0.003102
   111  H    0.003192
   112  H   -0.015311
   113  H   -0.023734
   114  H   -0.008143
   115  H    0.011162
   116  H    0.011461
   117  H   -0.007134
   118  H   -0.011810
   119  H   -0.017574
   120  H    0.004704
   121  H    0.004411
   122  H    0.003798
   123  H   -0.014999
   124  H   -0.002488
   125  H   -0.003717
   126  H    0.015932
   127  H   -0.005751
   128  H   -0.005507
   129  H   -0.001380
   130  H   -0.006384
   131  H    0.007643
   132  H    0.004292
   133  H   -0.013991
   134  H   -0.007535
   135  H    0.011561
   136  H   -0.000829
   137  H   -0.002248
   138  H    0.017599
   139  H    0.004518
   140  H    0.007525
 Sum of Mulliken charges =  -0.00000

 Dipole moment (field-independent basis, Debye):
    X=              3.4011    Y=             -0.3374    Z=             -3.4777  Tot=              4.8761
 Quadrupole moment (field-independent basis, Debye-Ang):
   XX=           -367.8113   YY=           -425.0806   ZZ=           -406.6066
   XY=             -7.5581   XZ=             -3.5352   YZ=             10.0032

 Normal termination of Gaussian 16 at Fri Apr 29 10:59:09 2022.
