 Gaussian 16, Revision A.03,
 Gaussian 16:  ES64L-G16RevA.03 25-Dec-2016

 ---------------------------------
 #p PBE1PBE/Def2SVP td=(nstates=5)
 ---------------------------------

 ----------------------------------------------------
 step_251_chromophore_9 TDDFT with PBE1PBE functional
 ----------------------------------------------------
 Symbolic Z-matrix:
 Charge =  0 Multiplicity = 1

                         Standard orientation:
 ---------------------------------------------------------------------
 Center     Atomic      Atomic             Coordinates (Angstroms)
 Number     Number       Type             X           Y           Z
 ---------------------------------------------------------------------
      1         12           0       -5.122184    0.813045   -0.188429
      2          6           0       -3.778479   -2.380834    0.287521
      3          6           0       -1.924909    1.807469   -1.097577
      4          6           0       -6.254955    3.860513   -0.220724
      5          6           0       -8.223510   -0.419800    0.997130
      6          7           0       -2.956817   -0.106531    0.002417
      7          6           0       -2.734419   -1.423830    0.054228
      8          6           0       -1.278805   -1.648651   -0.185137
      9          6           0       -0.647846   -0.234631   -0.187589
     10          6           0       -1.900009    0.569642   -0.475755
     11          6           0        0.119567    0.259647    1.039901
     12          6           0       -1.017862   -2.403470   -1.527157
     13          6           0       -0.068677   -3.645093   -1.526216
     14          6           0        1.095410   -3.712147   -0.489005
     15          8           0        0.950497   -4.034998    0.702199
     16          8           0        2.344620   -3.494956   -1.098673
     17          7           0       -4.229659    2.608480   -0.757261
     18          6           0       -2.946838    2.732420   -1.274147
     19          6           0       -2.797165    4.096430   -1.664855
     20          6           0       -4.024642    4.781106   -1.298706
     21          6           0       -4.917722    3.775031   -0.743630
     22          6           0       -1.498746    4.709010   -2.234023
     23          6           0       -4.383482    6.292952   -1.376667
     24          8           0       -5.422277    6.757950   -1.028678
     25          6           0       -3.336126    7.192097   -2.003541
     26          7           0       -6.976723    1.562401    0.309441
     27          6           0       -7.179158    2.898414    0.271094
     28          6           0       -8.611651    3.331283    0.688421
     29          6           0       -9.300811    1.905021    0.813941
     30          6           0       -8.135486    0.932127    0.678529
     31          6           0       -8.567706    4.231079    2.054097
     32          6           0      -10.507644    1.702722   -0.155302
     33          6           0      -10.258617    0.954490   -1.452638
     34          7           0       -5.940386   -1.031772    0.485832
     35          6           0       -7.213838   -1.387117    0.840243
     36          6           0       -7.221558   -2.861932    1.140548
     37          6           0       -5.885508   -3.270619    0.928050
     38          6           0       -5.106236   -2.122175    0.566356
     39          6           0       -8.342249   -3.677520    1.725923
     40          6           0       -4.971376   -4.409679    0.959173
     41          8           0       -5.225095   -5.578721    1.263379
     42          6           0       -3.650904   -3.893186    0.395573
     43          6           0       -2.596059   -4.319597    1.375953
     44          8           0       -2.366593   -3.775330    2.440439
     45          8           0       -2.137912   -5.478010    0.930746
     46          6           0       -1.414693   -6.334003    1.857980
     47          6           0        3.501840   -3.606514   -0.166862
     48          6           0        4.587233   -2.877069   -0.974560
     49          6           0        5.550081   -3.369556   -1.792519
     50          6           0        5.647641   -4.805030   -2.178434
     51          6           0        6.408246   -2.434956   -2.627568
     52          6           0        7.670361   -1.925476   -2.131250
     53          6           0        8.795701   -1.972592   -3.215229
     54          6           0        9.443119   -0.568218   -3.589280
     55          6           0       10.237477   -0.613123   -4.864821
     56          6           0       10.309273   -0.099614   -2.438939
     57          6           0        9.588400    0.920089   -1.528949
     58          6           0       10.498000    2.111324   -1.110127
     59          6           0        9.859109    2.923720    0.084636
     60          6           0        9.554039    4.285648   -0.554085
     61          6           0       10.677671    2.919769    1.371536
     62          6           0        9.999692    2.301448    2.599876
     63          6           0       11.141696    1.963677    3.671334
     64          6           0       10.785807    2.262804    5.166533
     65          6           0       11.246360    3.707679    5.463435
     66          6           0       11.139861    1.269935    6.322615
     67          1           0       -0.901156    2.156640   -1.244300
     68          1           0       -6.704360    4.839703   -0.396937
     69          1           0       -9.184663   -0.801896    1.348220
     70          1           0       -0.885365   -2.264462    0.622994
     71          1           0        0.095438   -0.240342   -0.984938
     72          1           0        0.223979   -0.447373    1.863088
     73          1           0       -0.345697    1.162374    1.436759
     74          1           0        1.116397    0.520358    0.684979
     75          1           0       -0.726625   -1.746402   -2.346368
     76          1           0       -2.037435   -2.721845   -1.743994
     77          1           0        0.363066   -3.631647   -2.527770
     78          1           0       -0.673469   -4.543333   -1.404391
     79          1           0       -1.164818    5.592681   -1.690135
     80          1           0       -1.635670    5.108910   -3.238848
     81          1           0       -0.661331    4.013031   -2.298820
     82          1           0       -2.991261    6.828517   -2.971739
     83          1           0       -2.524943    7.313015   -1.285476
     84          1           0       -3.705912    8.215342   -2.069074
     85          1           0       -9.106256    3.931576   -0.075001
     86          1           0       -9.770813    1.742099    1.783712
     87          1           0       -8.978366    3.574550    2.821306
     88          1           0       -9.264550    5.069478    2.044657
     89          1           0       -7.560809    4.481248    2.390178
     90          1           0      -10.747327    2.714288   -0.483298
     91          1           0      -11.382345    1.289910    0.346863
     92          1           0       -9.315274    1.364825   -1.815014
     93          1           0      -11.126163    1.256028   -2.039147
     94          1           0      -10.081442   -0.120708   -1.452743
     95          1           0       -9.250648   -3.166081    2.044412
     96          1           0       -7.978746   -4.201371    2.610088
     97          1           0       -8.540252   -4.454207    0.987912
     98          1           0       -3.318594   -4.388278   -0.517084
     99          1           0       -1.345036   -6.063135    2.911002
    100          1           0       -0.391208   -6.270632    1.487160
    101          1           0       -1.559748   -7.368627    1.546909
    102          1           0        3.799432   -4.619927    0.103758
    103          1           0        3.241619   -3.143034    0.785793
    104          1           0        4.727652   -1.812201   -0.790236
    105          1           0        5.371551   -5.546682   -1.429523
    106          1           0        6.696857   -4.922701   -2.451403
    107          1           0        4.939379   -4.963271   -2.991135
    108          1           0        5.716367   -1.615991   -2.820719
    109          1           0        6.549618   -2.853013   -3.623785
    110          1           0        8.057299   -2.450407   -1.257975
    111          1           0        7.592025   -0.875216   -1.849675
    112          1           0        8.596198   -2.550155   -4.117723
    113          1           0        9.668060   -2.530029   -2.872946
    114          1           0        8.552842    0.039554   -3.749686
    115          1           0       11.312644   -0.761219   -4.763789
    116          1           0       10.029920    0.341305   -5.348127
    117          1           0        9.867511   -1.438765   -5.472551
    118          1           0       11.311881    0.192015   -2.752634
    119          1           0       10.598517   -0.965269   -1.842737
    120          1           0        9.310777    0.424191   -0.598545
    121          1           0        8.698730    1.308160   -2.025194
    122          1           0       10.754976    2.619655   -2.040194
    123          1           0       11.398085    1.620894   -0.739803
    124          1           0        8.917058    2.432529    0.327975
    125          1           0        8.492035    4.317110   -0.798320
    126          1           0       10.020747    4.587532   -1.492943
    127          1           0        9.724099    5.010237    0.242364
    128          1           0       10.920828    3.946006    1.646626
    129          1           0       11.595940    2.367945    1.174247
    130          1           0        9.572600    1.330513    2.347432
    131          1           0        9.148433    2.907662    2.908239
    132          1           0       12.095236    2.442254    3.448920
    133          1           0       11.292886    0.888290    3.575659
    134          1           0        9.700355    2.177313    5.203635
    135          1           0       10.730928    4.478046    4.888817
    136          1           0       12.301188    3.925582    5.300466
    137          1           0       11.204711    3.874436    6.540326
    138          1           0       10.194539    0.898749    6.718996
    139          1           0       11.674722    1.822183    7.095058
    140          1           0       11.775162    0.512727    5.863017
 ---------------------------------------------------------------------

 SCF Done:  E(RPBE1PBE) =  -3005.34655194     A.U. after   15 cycles

 Excitation energies and oscillator strengths:

 Excited State   1:      Singlet-A      1.8777 eV  660.31 nm  f=0.3759  <S**2>=0.000
     245 -> 248       -0.18218
     246 -> 247        0.69062
     246 <- 247       -0.10265
 This state for optimization and/or second-order correction.
 Total Energy, E(TD-HF/TD-DFT) =  -3005.27754891
 Copying the excited state density for this state as the 1-particle RhoCI density.

 Excited State   2:      Singlet-A      2.2083 eV  561.45 nm  f=0.1014  <S**2>=0.000
     245 -> 247        0.65469
     246 -> 248        0.25307

 Excited State   3:      Singlet-A      2.9765 eV  416.54 nm  f=0.0022  <S**2>=0.000
     240 -> 247       -0.11053
     243 -> 247       -0.13659
     244 -> 247        0.67780

 Excited State   4:      Singlet-A      3.0511 eV  406.36 nm  f=0.0003  <S**2>=0.000
     240 -> 247        0.62512
     240 -> 249       -0.19999
     243 -> 247        0.16450
     244 -> 247        0.14411

 Excited State   5:      Singlet-A      3.1438 eV  394.38 nm  f=0.0011  <S**2>=0.000
     242 -> 247        0.63691
     243 -> 247       -0.25491

 The electronic state is 1-A.
 Alpha  occ. eigenvalues --  -46.92059 -19.26406 -19.25931 -19.21489 -19.19131
 Alpha  occ. eigenvalues --  -19.18900 -19.18893 -14.41261 -14.40871 -14.38733
 Alpha  occ. eigenvalues --  -14.38418 -10.37757 -10.35268 -10.32128 -10.31702
 Alpha  occ. eigenvalues --  -10.30076 -10.28744 -10.28554 -10.28548 -10.27973
 Alpha  occ. eigenvalues --  -10.27960 -10.27504 -10.27329 -10.26824 -10.26673
 Alpha  occ. eigenvalues --  -10.26594 -10.26207 -10.25962 -10.25884 -10.25706
 Alpha  occ. eigenvalues --  -10.25410 -10.25320 -10.25299 -10.25014 -10.24799
 Alpha  occ. eigenvalues --  -10.24774 -10.24216 -10.24210 -10.24189 -10.24125
 Alpha  occ. eigenvalues --  -10.23859 -10.23648 -10.23607 -10.23436 -10.23424
 Alpha  occ. eigenvalues --  -10.23260 -10.23213 -10.23157 -10.23112 -10.23103
 Alpha  occ. eigenvalues --  -10.23034 -10.22969 -10.22868 -10.22817 -10.22724
 Alpha  occ. eigenvalues --  -10.22574 -10.22566 -10.22414 -10.22374 -10.22275
 Alpha  occ. eigenvalues --  -10.22181 -10.22099 -10.22075 -10.21832 -10.21682
 Alpha  occ. eigenvalues --  -10.21641  -3.14099  -1.86948  -1.86509  -1.86282
 Alpha  occ. eigenvalues --   -1.12109  -1.10158  -1.06201  -1.03829  -1.02508
 Alpha  occ. eigenvalues --   -1.02490  -0.99492  -0.98272  -0.97036  -0.96563
 Alpha  occ. eigenvalues --   -0.87325  -0.85492  -0.84085  -0.83536  -0.83031
 Alpha  occ. eigenvalues --   -0.82905  -0.82290  -0.81350  -0.81303  -0.80308
 Alpha  occ. eigenvalues --   -0.79822  -0.79549  -0.78793  -0.78030  -0.77326
 Alpha  occ. eigenvalues --   -0.76924  -0.76265  -0.75193  -0.74959  -0.74711
 Alpha  occ. eigenvalues --   -0.74244  -0.72423  -0.71937  -0.71273  -0.70469
 Alpha  occ. eigenvalues --   -0.70341  -0.69516  -0.69456  -0.68778  -0.68518
 Alpha  occ. eigenvalues --   -0.67373  -0.66916  -0.66033  -0.64903  -0.63734
 Alpha  occ. eigenvalues --   -0.62992  -0.62451  -0.61533  -0.60798  -0.59707
 Alpha  occ. eigenvalues --   -0.59655  -0.59307  -0.59059  -0.58755  -0.58517
 Alpha  occ. eigenvalues --   -0.58139  -0.57777  -0.56685  -0.56565  -0.54410
 Alpha  occ. eigenvalues --   -0.54248  -0.53892  -0.53592  -0.52996  -0.51994
 Alpha  occ. eigenvalues --   -0.51687  -0.51160  -0.50971  -0.50611  -0.50353
 Alpha  occ. eigenvalues --   -0.49585  -0.49326  -0.49223  -0.48721  -0.48553
 Alpha  occ. eigenvalues --   -0.48444  -0.47964  -0.47745  -0.47353  -0.47193
 Alpha  occ. eigenvalues --   -0.46950  -0.46692  -0.46441  -0.46372  -0.46164
 Alpha  occ. eigenvalues --   -0.45888  -0.45720  -0.45525  -0.45369  -0.45041
 Alpha  occ. eigenvalues --   -0.44896  -0.44719  -0.44463  -0.44220  -0.44133
 Alpha  occ. eigenvalues --   -0.44111  -0.43776  -0.43475  -0.43282  -0.43244
 Alpha  occ. eigenvalues --   -0.43113  -0.42892  -0.42568  -0.42459  -0.42418
 Alpha  occ. eigenvalues --   -0.42054  -0.41804  -0.41545  -0.41438  -0.41108
 Alpha  occ. eigenvalues --   -0.40940  -0.40738  -0.40621  -0.40559  -0.40416
 Alpha  occ. eigenvalues --   -0.40126  -0.39949  -0.39769  -0.39608  -0.39497
 Alpha  occ. eigenvalues --   -0.39386  -0.39321  -0.39132  -0.38911  -0.38345
 Alpha  occ. eigenvalues --   -0.38321  -0.38249  -0.38033  -0.37976  -0.37764
 Alpha  occ. eigenvalues --   -0.37708  -0.37449  -0.37304  -0.37028  -0.36909
 Alpha  occ. eigenvalues --   -0.36849  -0.36608  -0.36320  -0.36109  -0.35891
 Alpha  occ. eigenvalues --   -0.35844  -0.35562  -0.35538  -0.35382  -0.35084
 Alpha  occ. eigenvalues --   -0.34590  -0.34197  -0.33965  -0.33740  -0.33595
 Alpha  occ. eigenvalues --   -0.33184  -0.33025  -0.32595  -0.32093  -0.31978
 Alpha  occ. eigenvalues --   -0.31942  -0.31746  -0.31636  -0.31154  -0.30767
 Alpha  occ. eigenvalues --   -0.30356  -0.30300  -0.30285  -0.29864  -0.29255
 Alpha  occ. eigenvalues --   -0.28752  -0.28669  -0.28021  -0.26325  -0.25741
 Alpha  occ. eigenvalues --   -0.25643  -0.25295  -0.25230  -0.24623  -0.20583
 Alpha  occ. eigenvalues --   -0.18583
 Alpha virt. eigenvalues --   -0.10842  -0.04895  -0.03746  -0.01581  -0.01359
 Alpha virt. eigenvalues --   -0.00136   0.00191   0.01523   0.02046   0.03523
 Alpha virt. eigenvalues --    0.03941   0.04756   0.05440   0.05590   0.05934

 Mulliken charges:
               1
     1  Mg   0.951891
     2  C   -0.008644
     3  C   -0.046055
     4  C   -0.033488
     5  C   -0.067862
     6  N   -0.317871
     7  C    0.072651
     8  C   -0.173044
     9  C   -0.106134
    10  C   -0.004349
    11  C    0.037422
    12  C    0.003931
    13  C    0.015149
    14  C    0.234619
    15  O   -0.280940
    16  O   -0.374281
    17  N   -0.518845
    18  C    0.211984
    19  C   -0.172976
    20  C   -0.118043
    21  C    0.141301
    22  C    0.053440
    23  C    0.062876
    24  O   -0.202269
    25  C   -0.038724
    26  N   -0.420575
    27  C    0.078889
    28  C   -0.129178
    29  C   -0.071852
    30  C    0.089252
    31  C    0.002697
    32  C   -0.046604
    33  C   -0.056019
    34  N   -0.466088
    35  C    0.132585
    36  C   -0.188266
    37  C   -0.038280
    38  C    0.161868
    39  C    0.062381
    40  C    0.163068
    41  O   -0.225449
    42  C   -0.136516
    43  C    0.259263
    44  O   -0.255325
    45  O   -0.333068
    46  C    0.136582
    47  C    0.244088
    48  C   -0.112956
    49  C   -0.216869
    50  C    0.016449
    51  C   -0.001004
    52  C    0.015256
    53  C   -0.054860
    54  C   -0.252933
    55  C    0.010521
    56  C    0.047484
    57  C   -0.098823
    58  C   -0.014606
    59  C   -0.194328
    60  C   -0.002583
    61  C    0.000048
    62  C   -0.059660
    63  C   -0.015029
    64  C   -0.243565
    65  C   -0.030669
    66  C   -0.003175
    67  H    0.001226
    68  H    0.030259
    69  H   -0.001217
    70  H    0.082857
    71  H    0.029888
    72  H    0.058615
    73  H    0.046993
    74  H    0.032913
    75  H    0.047732
    76  H    0.037731
    77  H    0.057049
    78  H    0.072672
    79  H    0.044562
    80  H    0.047103
    81  H    0.038680
    82  H    0.063905
    83  H    0.058544
    84  H    0.041971
    85  H    0.059031
    86  H    0.040998
    87  H    0.027511
    88  H    0.050637
    89  H    0.064398
    90  H    0.031182
    91  H    0.035542
    92  H    0.040903
    93  H    0.048849
    94  H    0.048801
    95  H    0.040686
    96  H    0.065928
    97  H    0.063140
    98  H    0.077145
    99  H    0.084768
   100  H    0.035948
   101  H    0.051060
   102  H    0.050275
   103  H    0.054763
   104  H    0.018381
   105  H    0.036900
   106  H    0.047191
   107  H    0.067544
   108  H    0.032676
   109  H    0.029596
   110  H    0.035440
   111  H    0.038820
   112  H    0.014822
   113  H    0.010609
   114  H    0.030275
   115  H    0.037907
   116  H    0.040028
   117  H    0.020712
   118  H    0.018680
   119  H    0.014985
   120  H    0.038378
   121  H    0.036288
   122  H    0.035884
   123  H    0.019327
   124  H    0.035152
   125  H    0.024675
   126  H    0.041904
   127  H    0.022159
   128  H    0.027636
   129  H    0.030886
   130  H    0.027737
   131  H    0.038220
   132  H    0.035289
   133  H    0.019613
   134  H    0.031613
   135  H    0.039604
   136  H    0.026919
   137  H    0.025827
   138  H    0.044311
   139  H    0.031791
   140  H    0.035283
 Sum of Mulliken charges =  -0.00000

 Dipole moment (field-independent basis, Debye):
    X=              3.4890    Y=              0.1528    Z=             -3.5630  Tot=              4.9892
 Quadrupole moment (field-independent basis, Debye-Ang):
   XX=           -363.1025   YY=           -421.7396   ZZ=           -403.8141
   XY=            -10.4626   XZ=             -3.9258   YZ=             10.0975

 Normal termination of Gaussian 16 at Fri Apr 29 11:20:12 2022.
