 Gaussian 16, Revision A.03,
 Gaussian 16:  ES64L-G16RevA.03 25-Dec-2016

 --------------------------------
 #p wB97XD/Def2SVP td=(nstates=5)
 --------------------------------

 ---------------------------------------------------
 step_251_chromophore_9 TDDFT with wB97XD functional
 ---------------------------------------------------
 Symbolic Z-matrix:
 Charge =  0 Multiplicity = 1

                         Standard orientation:
 ---------------------------------------------------------------------
 Center     Atomic      Atomic             Coordinates (Angstroms)
 Number     Number       Type             X           Y           Z
 ---------------------------------------------------------------------
      1         12           0       -5.122184    0.813045   -0.188429
      2          6           0       -3.778479   -2.380834    0.287521
      3          6           0       -1.924909    1.807469   -1.097577
      4          6           0       -6.254955    3.860513   -0.220724
      5          6           0       -8.223510   -0.419800    0.997130
      6          7           0       -2.956817   -0.106531    0.002417
      7          6           0       -2.734419   -1.423830    0.054228
      8          6           0       -1.278805   -1.648651   -0.185137
      9          6           0       -0.647846   -0.234631   -0.187589
     10          6           0       -1.900009    0.569642   -0.475755
     11          6           0        0.119567    0.259647    1.039901
     12          6           0       -1.017862   -2.403470   -1.527157
     13          6           0       -0.068677   -3.645093   -1.526216
     14          6           0        1.095410   -3.712147   -0.489005
     15          8           0        0.950497   -4.034998    0.702199
     16          8           0        2.344620   -3.494956   -1.098673
     17          7           0       -4.229659    2.608480   -0.757261
     18          6           0       -2.946838    2.732420   -1.274147
     19          6           0       -2.797165    4.096430   -1.664855
     20          6           0       -4.024642    4.781106   -1.298706
     21          6           0       -4.917722    3.775031   -0.743630
     22          6           0       -1.498746    4.709010   -2.234023
     23          6           0       -4.383482    6.292952   -1.376667
     24          8           0       -5.422277    6.757950   -1.028678
     25          6           0       -3.336126    7.192097   -2.003541
     26          7           0       -6.976723    1.562401    0.309441
     27          6           0       -7.179158    2.898414    0.271094
     28          6           0       -8.611651    3.331283    0.688421
     29          6           0       -9.300811    1.905021    0.813941
     30          6           0       -8.135486    0.932127    0.678529
     31          6           0       -8.567706    4.231079    2.054097
     32          6           0      -10.507644    1.702722   -0.155302
     33          6           0      -10.258617    0.954490   -1.452638
     34          7           0       -5.940386   -1.031772    0.485832
     35          6           0       -7.213838   -1.387117    0.840243
     36          6           0       -7.221558   -2.861932    1.140548
     37          6           0       -5.885508   -3.270619    0.928050
     38          6           0       -5.106236   -2.122175    0.566356
     39          6           0       -8.342249   -3.677520    1.725923
     40          6           0       -4.971376   -4.409679    0.959173
     41          8           0       -5.225095   -5.578721    1.263379
     42          6           0       -3.650904   -3.893186    0.395573
     43          6           0       -2.596059   -4.319597    1.375953
     44          8           0       -2.366593   -3.775330    2.440439
     45          8           0       -2.137912   -5.478010    0.930746
     46          6           0       -1.414693   -6.334003    1.857980
     47          6           0        3.501840   -3.606514   -0.166862
     48          6           0        4.587233   -2.877069   -0.974560
     49          6           0        5.550081   -3.369556   -1.792519
     50          6           0        5.647641   -4.805030   -2.178434
     51          6           0        6.408246   -2.434956   -2.627568
     52          6           0        7.670361   -1.925476   -2.131250
     53          6           0        8.795701   -1.972592   -3.215229
     54          6           0        9.443119   -0.568218   -3.589280
     55          6           0       10.237477   -0.613123   -4.864821
     56          6           0       10.309273   -0.099614   -2.438939
     57          6           0        9.588400    0.920089   -1.528949
     58          6           0       10.498000    2.111324   -1.110127
     59          6           0        9.859109    2.923720    0.084636
     60          6           0        9.554039    4.285648   -0.554085
     61          6           0       10.677671    2.919769    1.371536
     62          6           0        9.999692    2.301448    2.599876
     63          6           0       11.141696    1.963677    3.671334
     64          6           0       10.785807    2.262804    5.166533
     65          6           0       11.246360    3.707679    5.463435
     66          6           0       11.139861    1.269935    6.322615
     67          1           0       -0.901156    2.156640   -1.244300
     68          1           0       -6.704360    4.839703   -0.396937
     69          1           0       -9.184663   -0.801896    1.348220
     70          1           0       -0.885365   -2.264462    0.622994
     71          1           0        0.095438   -0.240342   -0.984938
     72          1           0        0.223979   -0.447373    1.863088
     73          1           0       -0.345697    1.162374    1.436759
     74          1           0        1.116397    0.520358    0.684979
     75          1           0       -0.726625   -1.746402   -2.346368
     76          1           0       -2.037435   -2.721845   -1.743994
     77          1           0        0.363066   -3.631647   -2.527770
     78          1           0       -0.673469   -4.543333   -1.404391
     79          1           0       -1.164818    5.592681   -1.690135
     80          1           0       -1.635670    5.108910   -3.238848
     81          1           0       -0.661331    4.013031   -2.298820
     82          1           0       -2.991261    6.828517   -2.971739
     83          1           0       -2.524943    7.313015   -1.285476
     84          1           0       -3.705912    8.215342   -2.069074
     85          1           0       -9.106256    3.931576   -0.075001
     86          1           0       -9.770813    1.742099    1.783712
     87          1           0       -8.978366    3.574550    2.821306
     88          1           0       -9.264550    5.069478    2.044657
     89          1           0       -7.560809    4.481248    2.390178
     90          1           0      -10.747327    2.714288   -0.483298
     91          1           0      -11.382345    1.289910    0.346863
     92          1           0       -9.315274    1.364825   -1.815014
     93          1           0      -11.126163    1.256028   -2.039147
     94          1           0      -10.081442   -0.120708   -1.452743
     95          1           0       -9.250648   -3.166081    2.044412
     96          1           0       -7.978746   -4.201371    2.610088
     97          1           0       -8.540252   -4.454207    0.987912
     98          1           0       -3.318594   -4.388278   -0.517084
     99          1           0       -1.345036   -6.063135    2.911002
    100          1           0       -0.391208   -6.270632    1.487160
    101          1           0       -1.559748   -7.368627    1.546909
    102          1           0        3.799432   -4.619927    0.103758
    103          1           0        3.241619   -3.143034    0.785793
    104          1           0        4.727652   -1.812201   -0.790236
    105          1           0        5.371551   -5.546682   -1.429523
    106          1           0        6.696857   -4.922701   -2.451403
    107          1           0        4.939379   -4.963271   -2.991135
    108          1           0        5.716367   -1.615991   -2.820719
    109          1           0        6.549618   -2.853013   -3.623785
    110          1           0        8.057299   -2.450407   -1.257975
    111          1           0        7.592025   -0.875216   -1.849675
    112          1           0        8.596198   -2.550155   -4.117723
    113          1           0        9.668060   -2.530029   -2.872946
    114          1           0        8.552842    0.039554   -3.749686
    115          1           0       11.312644   -0.761219   -4.763789
    116          1           0       10.029920    0.341305   -5.348127
    117          1           0        9.867511   -1.438765   -5.472551
    118          1           0       11.311881    0.192015   -2.752634
    119          1           0       10.598517   -0.965269   -1.842737
    120          1           0        9.310777    0.424191   -0.598545
    121          1           0        8.698730    1.308160   -2.025194
    122          1           0       10.754976    2.619655   -2.040194
    123          1           0       11.398085    1.620894   -0.739803
    124          1           0        8.917058    2.432529    0.327975
    125          1           0        8.492035    4.317110   -0.798320
    126          1           0       10.020747    4.587532   -1.492943
    127          1           0        9.724099    5.010237    0.242364
    128          1           0       10.920828    3.946006    1.646626
    129          1           0       11.595940    2.367945    1.174247
    130          1           0        9.572600    1.330513    2.347432
    131          1           0        9.148433    2.907662    2.908239
    132          1           0       12.095236    2.442254    3.448920
    133          1           0       11.292886    0.888290    3.575659
    134          1           0        9.700355    2.177313    5.203635
    135          1           0       10.730928    4.478046    4.888817
    136          1           0       12.301188    3.925582    5.300466
    137          1           0       11.204711    3.874436    6.540326
    138          1           0       10.194539    0.898749    6.718996
    139          1           0       11.674722    1.822183    7.095058
    140          1           0       11.775162    0.512727    5.863017
 ---------------------------------------------------------------------

 SCF Done:  E(RwB97XD) =  -3007.85446810     A.U. after   18 cycles

 Excitation energies and oscillator strengths:

 Excited State   1:      Singlet-A      1.6811 eV  737.54 nm  f=0.3833  <S**2>=0.000
     245 -> 248        0.19168
     246 -> 247        0.68160
     245 <- 248        0.11825
 This state for optimization and/or second-order correction.
 Total Energy, E(TD-HF/TD-DFT) =  -3007.79269060
 Copying the excited state density for this state as the 1-particle RhoCI density.

 Excited State   2:      Singlet-A      2.1607 eV  573.81 nm  f=0.1038  <S**2>=0.000
     245 -> 247        0.64011
     246 -> 248       -0.28486

 Excited State   3:      Singlet-A      3.3651 eV  368.44 nm  f=0.0033  <S**2>=0.000
     243 -> 247       -0.38901
     244 -> 247        0.55162

 Excited State   4:      Singlet-A      3.4535 eV  359.01 nm  f=0.0975  <S**2>=0.000
     239 -> 247        0.34535
     239 -> 249       -0.24160
     243 -> 247        0.25665
     244 -> 247        0.30447
     246 -> 248        0.33808

 Excited State   5:      Singlet-A      3.5080 eV  353.43 nm  f=0.0774  <S**2>=0.000
     239 -> 247        0.40118
     239 -> 249       -0.27756
     240 -> 247        0.11979
     243 -> 247       -0.33221
     244 -> 247       -0.11688
     246 -> 248       -0.28887

 The electronic state is 1-A.
 Alpha  occ. eigenvalues --  -46.95010 -19.30966 -19.30617 -19.26178 -19.24295
 Alpha  occ. eigenvalues --  -19.23776 -19.23463 -14.46227 -14.46078 -14.43820
 Alpha  occ. eigenvalues --  -14.43180 -10.44571 -10.42274 -10.39294 -10.38292
 Alpha  occ. eigenvalues --  -10.36615 -10.35243 -10.35030 -10.34655 -10.34636
 Alpha  occ. eigenvalues --  -10.34561 -10.33584 -10.33479 -10.33403 -10.33200
 Alpha  occ. eigenvalues --  -10.32779 -10.32441 -10.32331 -10.32244 -10.32042
 Alpha  occ. eigenvalues --  -10.32010 -10.31736 -10.31521 -10.31353 -10.31097
 Alpha  occ. eigenvalues --  -10.31008 -10.30589 -10.30525 -10.30518 -10.30281
 Alpha  occ. eigenvalues --  -10.30212 -10.30182 -10.29807 -10.29796 -10.29784
 Alpha  occ. eigenvalues --  -10.29702 -10.29668 -10.29521 -10.29411 -10.29390
 Alpha  occ. eigenvalues --  -10.29370 -10.29365 -10.29259 -10.29157 -10.29041
 Alpha  occ. eigenvalues --  -10.28962 -10.28903 -10.28810 -10.28784 -10.28612
 Alpha  occ. eigenvalues --  -10.28544 -10.28503 -10.28425 -10.28248 -10.28108
 Alpha  occ. eigenvalues --  -10.28052  -3.20917  -1.94512  -1.94075  -1.93845
 Alpha  occ. eigenvalues --   -1.19640  -1.17570  -1.13419  -1.11640  -1.10025
 Alpha  occ. eigenvalues --   -1.09875  -1.06923  -1.05656  -1.04538  -1.03733
 Alpha  occ. eigenvalues --   -0.95166  -0.93152  -0.91741  -0.91206  -0.90682
 Alpha  occ. eigenvalues --   -0.90479  -0.89818  -0.89005  -0.88900  -0.88098
 Alpha  occ. eigenvalues --   -0.87468  -0.87126  -0.86409  -0.85716  -0.84972
 Alpha  occ. eigenvalues --   -0.84530  -0.83936  -0.82811  -0.82542  -0.82367
 Alpha  occ. eigenvalues --   -0.81885  -0.80170  -0.79490  -0.78858  -0.78137
 Alpha  occ. eigenvalues --   -0.78013  -0.77200  -0.77006  -0.76441  -0.76167
 Alpha  occ. eigenvalues --   -0.74986  -0.74529  -0.73541  -0.72538  -0.71320
 Alpha  occ. eigenvalues --   -0.70595  -0.70087  -0.69168  -0.68247  -0.67314
 Alpha  occ. eigenvalues --   -0.67165  -0.66746  -0.66525  -0.66196  -0.66180
 Alpha  occ. eigenvalues --   -0.65629  -0.65433  -0.64208  -0.64177  -0.61934
 Alpha  occ. eigenvalues --   -0.61635  -0.61330  -0.61046  -0.60407  -0.59673
 Alpha  occ. eigenvalues --   -0.59165  -0.58629  -0.58468  -0.58078  -0.57786
 Alpha  occ. eigenvalues --   -0.57023  -0.56681  -0.56603  -0.56187  -0.56068
 Alpha  occ. eigenvalues --   -0.55857  -0.55380  -0.55155  -0.54735  -0.54526
 Alpha  occ. eigenvalues --   -0.54210  -0.54067  -0.53824  -0.53746  -0.53489
 Alpha  occ. eigenvalues --   -0.53212  -0.53086  -0.52969  -0.52726  -0.52597
 Alpha  occ. eigenvalues --   -0.52241  -0.52057  -0.51888  -0.51536  -0.51442
 Alpha  occ. eigenvalues --   -0.51419  -0.51005  -0.50917  -0.50587  -0.50517
 Alpha  occ. eigenvalues --   -0.50486  -0.50107  -0.49834  -0.49706  -0.49653
 Alpha  occ. eigenvalues --   -0.49298  -0.49113  -0.48761  -0.48688  -0.48306
 Alpha  occ. eigenvalues --   -0.48140  -0.47979  -0.47687  -0.47658  -0.47557
 Alpha  occ. eigenvalues --   -0.47449  -0.47219  -0.47024  -0.46787  -0.46627
 Alpha  occ. eigenvalues --   -0.46577  -0.46540  -0.46464  -0.46168  -0.45525
 Alpha  occ. eigenvalues --   -0.45502  -0.45427  -0.45069  -0.45059  -0.44942
 Alpha  occ. eigenvalues --   -0.44844  -0.44608  -0.44485  -0.44238  -0.44009
 Alpha  occ. eigenvalues --   -0.43925  -0.43649  -0.43436  -0.43112  -0.42939
 Alpha  occ. eigenvalues --   -0.42855  -0.42636  -0.42588  -0.42445  -0.42107
 Alpha  occ. eigenvalues --   -0.41662  -0.41120  -0.40993  -0.40769  -0.40534
 Alpha  occ. eigenvalues --   -0.40197  -0.40052  -0.39653  -0.39124  -0.39019
 Alpha  occ. eigenvalues --   -0.38889  -0.38812  -0.38590  -0.38073  -0.37711
 Alpha  occ. eigenvalues --   -0.37471  -0.37333  -0.37286  -0.36971  -0.36015
 Alpha  occ. eigenvalues --   -0.35701  -0.35516  -0.35073  -0.33176  -0.32856
 Alpha  occ. eigenvalues --   -0.32375  -0.32177  -0.31996  -0.30957  -0.25589
 Alpha  occ. eigenvalues --   -0.22764
 Alpha virt. eigenvalues --   -0.06689   0.00510   0.02417   0.05062   0.05378
 Alpha virt. eigenvalues --    0.06055   0.06564   0.08212   0.08685   0.09891
 Alpha virt. eigenvalues --    0.10502   0.11567   0.12185   0.12338   0.12689

 Mulliken charges:
               1
     1  Mg   0.943473
     2  C   -0.009881
     3  C   -0.054060
     4  C   -0.050264
     5  C   -0.090030
     6  N   -0.281579
     7  C    0.043340
     8  C   -0.141682
     9  C   -0.079509
    10  C   -0.021631
    11  C    0.043197
    12  C    0.013513
    13  C    0.032623
    14  C    0.224315
    15  O   -0.278141
    16  O   -0.374494
    17  N   -0.486393
    18  C    0.193929
    19  C   -0.162351
    20  C   -0.111135
    21  C    0.127433
    22  C    0.067055
    23  C    0.057390
    24  O   -0.198211
    25  C   -0.024890
    26  N   -0.388354
    27  C    0.068265
    28  C   -0.106264
    29  C   -0.052060
    30  C    0.081640
    31  C    0.015061
    32  C   -0.034268
    33  C   -0.035129
    34  N   -0.431165
    35  C    0.127225
    36  C   -0.181912
    37  C   -0.030775
    38  C    0.143819
    39  C    0.071978
    40  C    0.143481
    41  O   -0.212912
    42  C   -0.094202
    43  C    0.230235
    44  O   -0.247373
    45  O   -0.328723
    46  C    0.150724
    47  C    0.255453
    48  C   -0.117387
    49  C   -0.208375
    50  C    0.030496
    51  C    0.022198
    52  C    0.030480
    53  C   -0.037628
    54  C   -0.216902
    55  C    0.021513
    56  C    0.054584
    57  C   -0.075398
    58  C    0.002395
    59  C   -0.166719
    60  C    0.010769
    61  C    0.017961
    62  C   -0.045308
    63  C    0.001338
    64  C   -0.216974
    65  C   -0.016872
    66  C    0.010026
    67  H   -0.006797
    68  H    0.024322
    69  H   -0.006746
    70  H    0.063708
    71  H    0.019196
    72  H    0.054073
    73  H    0.041086
    74  H    0.027464
    75  H    0.042436
    76  H    0.025033
    77  H    0.053156
    78  H    0.065538
    79  H    0.036770
    80  H    0.040102
    81  H    0.033612
    82  H    0.057129
    83  H    0.051948
    84  H    0.039587
    85  H    0.049737
    86  H    0.031374
    87  H    0.019062
    88  H    0.045581
    89  H    0.059003
    90  H    0.022589
    91  H    0.029518
    92  H    0.030091
    93  H    0.044032
    94  H    0.041689
    95  H    0.038064
    96  H    0.062384
    97  H    0.059203
    98  H    0.069492
    99  H    0.083143
   100  H    0.030560
   101  H    0.048244
   102  H    0.045359
   103  H    0.051230
   104  H    0.014416
   105  H    0.031292
   106  H    0.040060
   107  H    0.062068
   108  H    0.025306
   109  H    0.020164
   110  H    0.028557
   111  H    0.025774
   112  H    0.004860
   113  H   -0.000630
   114  H    0.016245
   115  H    0.032123
   116  H    0.034497
   117  H    0.014405
   118  H    0.010212
   119  H    0.005667
   120  H    0.026513
   121  H    0.025322
   122  H    0.026723
   123  H    0.007643
   124  H    0.021270
   125  H    0.018777
   126  H    0.036194
   127  H    0.015173
   128  H    0.017183
   129  H    0.019714
   130  H    0.018394
   131  H    0.031047
   132  H    0.024948
   133  H    0.011291
   134  H    0.019531
   135  H    0.033441
   136  H    0.020071
   137  H    0.018837
   138  H    0.039485
   139  H    0.025578
   140  H    0.028923
 Sum of Mulliken charges =  -0.00000

 Dipole moment (field-independent basis, Debye):
    X=              3.3986    Y=             -0.4796    Z=             -3.4772  Tot=              4.8858
 Quadrupole moment (field-independent basis, Debye-Ang):
   XX=           -362.4294   YY=           -420.8253   ZZ=           -403.4403
   XY=             -6.8824   XZ=             -4.1863   YZ=              9.8587

 Normal termination of Gaussian 16 at Fri Apr 29 11:47:22 2022.
