 Gaussian 16, Revision A.03,
 Gaussian 16:  ES64L-G16RevA.03 25-Dec-2016

 --------------------
 #p ZINDO=(nstates=5)
 --------------------

 ----------------------------
 step_251_chromophore_9 ZINDO
 ----------------------------
 Symbolic Z-matrix:
 Charge =  0 Multiplicity = 1

                         Standard orientation:
 ---------------------------------------------------------------------
 Center     Atomic      Atomic             Coordinates (Angstroms)
 Number     Number       Type             X           Y           Z
 ---------------------------------------------------------------------
      1         12           0       -5.122184    0.813045   -0.188429
      2          6           0       -3.778479   -2.380834    0.287521
      3          6           0       -1.924909    1.807469   -1.097577
      4          6           0       -6.254955    3.860513   -0.220724
      5          6           0       -8.223510   -0.419800    0.997130
      6          7           0       -2.956817   -0.106531    0.002417
      7          6           0       -2.734419   -1.423830    0.054228
      8          6           0       -1.278805   -1.648651   -0.185137
      9          6           0       -0.647846   -0.234631   -0.187589
     10          6           0       -1.900009    0.569642   -0.475755
     11          6           0        0.119567    0.259647    1.039901
     12          6           0       -1.017862   -2.403470   -1.527157
     13          6           0       -0.068677   -3.645093   -1.526216
     14          6           0        1.095410   -3.712147   -0.489005
     15          8           0        0.950497   -4.034998    0.702199
     16          8           0        2.344620   -3.494956   -1.098673
     17          7           0       -4.229659    2.608480   -0.757261
     18          6           0       -2.946838    2.732420   -1.274147
     19          6           0       -2.797165    4.096430   -1.664855
     20          6           0       -4.024642    4.781106   -1.298706
     21          6           0       -4.917722    3.775031   -0.743630
     22          6           0       -1.498746    4.709010   -2.234023
     23          6           0       -4.383482    6.292952   -1.376667
     24          8           0       -5.422277    6.757950   -1.028678
     25          6           0       -3.336126    7.192097   -2.003541
     26          7           0       -6.976723    1.562401    0.309441
     27          6           0       -7.179158    2.898414    0.271094
     28          6           0       -8.611651    3.331283    0.688421
     29          6           0       -9.300811    1.905021    0.813941
     30          6           0       -8.135486    0.932127    0.678529
     31          6           0       -8.567706    4.231079    2.054097
     32          6           0      -10.507644    1.702722   -0.155302
     33          6           0      -10.258617    0.954490   -1.452638
     34          7           0       -5.940386   -1.031772    0.485832
     35          6           0       -7.213838   -1.387117    0.840243
     36          6           0       -7.221558   -2.861932    1.140548
     37          6           0       -5.885508   -3.270619    0.928050
     38          6           0       -5.106236   -2.122175    0.566356
     39          6           0       -8.342249   -3.677520    1.725923
     40          6           0       -4.971376   -4.409679    0.959173
     41          8           0       -5.225095   -5.578721    1.263379
     42          6           0       -3.650904   -3.893186    0.395573
     43          6           0       -2.596059   -4.319597    1.375953
     44          8           0       -2.366593   -3.775330    2.440439
     45          8           0       -2.137912   -5.478010    0.930746
     46          6           0       -1.414693   -6.334003    1.857980
     47          6           0        3.501840   -3.606514   -0.166862
     48          6           0        4.587233   -2.877069   -0.974560
     49          6           0        5.550081   -3.369556   -1.792519
     50          6           0        5.647641   -4.805030   -2.178434
     51          6           0        6.408246   -2.434956   -2.627568
     52          6           0        7.670361   -1.925476   -2.131250
     53          6           0        8.795701   -1.972592   -3.215229
     54          6           0        9.443119   -0.568218   -3.589280
     55          6           0       10.237477   -0.613123   -4.864821
     56          6           0       10.309273   -0.099614   -2.438939
     57          6           0        9.588400    0.920089   -1.528949
     58          6           0       10.498000    2.111324   -1.110127
     59          6           0        9.859109    2.923720    0.084636
     60          6           0        9.554039    4.285648   -0.554085
     61          6           0       10.677671    2.919769    1.371536
     62          6           0        9.999692    2.301448    2.599876
     63          6           0       11.141696    1.963677    3.671334
     64          6           0       10.785807    2.262804    5.166533
     65          6           0       11.246360    3.707679    5.463435
     66          6           0       11.139861    1.269935    6.322615
     67          1           0       -0.901156    2.156640   -1.244300
     68          1           0       -6.704360    4.839703   -0.396937
     69          1           0       -9.184663   -0.801896    1.348220
     70          1           0       -0.885365   -2.264462    0.622994
     71          1           0        0.095438   -0.240342   -0.984938
     72          1           0        0.223979   -0.447373    1.863088
     73          1           0       -0.345697    1.162374    1.436759
     74          1           0        1.116397    0.520358    0.684979
     75          1           0       -0.726625   -1.746402   -2.346368
     76          1           0       -2.037435   -2.721845   -1.743994
     77          1           0        0.363066   -3.631647   -2.527770
     78          1           0       -0.673469   -4.543333   -1.404391
     79          1           0       -1.164818    5.592681   -1.690135
     80          1           0       -1.635670    5.108910   -3.238848
     81          1           0       -0.661331    4.013031   -2.298820
     82          1           0       -2.991261    6.828517   -2.971739
     83          1           0       -2.524943    7.313015   -1.285476
     84          1           0       -3.705912    8.215342   -2.069074
     85          1           0       -9.106256    3.931576   -0.075001
     86          1           0       -9.770813    1.742099    1.783712
     87          1           0       -8.978366    3.574550    2.821306
     88          1           0       -9.264550    5.069478    2.044657
     89          1           0       -7.560809    4.481248    2.390178
     90          1           0      -10.747327    2.714288   -0.483298
     91          1           0      -11.382345    1.289910    0.346863
     92          1           0       -9.315274    1.364825   -1.815014
     93          1           0      -11.126163    1.256028   -2.039147
     94          1           0      -10.081442   -0.120708   -1.452743
     95          1           0       -9.250648   -3.166081    2.044412
     96          1           0       -7.978746   -4.201371    2.610088
     97          1           0       -8.540252   -4.454207    0.987912
     98          1           0       -3.318594   -4.388278   -0.517084
     99          1           0       -1.345036   -6.063135    2.911002
    100          1           0       -0.391208   -6.270632    1.487160
    101          1           0       -1.559748   -7.368627    1.546909
    102          1           0        3.799432   -4.619927    0.103758
    103          1           0        3.241619   -3.143034    0.785793
    104          1           0        4.727652   -1.812201   -0.790236
    105          1           0        5.371551   -5.546682   -1.429523
    106          1           0        6.696857   -4.922701   -2.451403
    107          1           0        4.939379   -4.963271   -2.991135
    108          1           0        5.716367   -1.615991   -2.820719
    109          1           0        6.549618   -2.853013   -3.623785
    110          1           0        8.057299   -2.450407   -1.257975
    111          1           0        7.592025   -0.875216   -1.849675
    112          1           0        8.596198   -2.550155   -4.117723
    113          1           0        9.668060   -2.530029   -2.872946
    114          1           0        8.552842    0.039554   -3.749686
    115          1           0       11.312644   -0.761219   -4.763789
    116          1           0       10.029920    0.341305   -5.348127
    117          1           0        9.867511   -1.438765   -5.472551
    118          1           0       11.311881    0.192015   -2.752634
    119          1           0       10.598517   -0.965269   -1.842737
    120          1           0        9.310777    0.424191   -0.598545
    121          1           0        8.698730    1.308160   -2.025194
    122          1           0       10.754976    2.619655   -2.040194
    123          1           0       11.398085    1.620894   -0.739803
    124          1           0        8.917058    2.432529    0.327975
    125          1           0        8.492035    4.317110   -0.798320
    126          1           0       10.020747    4.587532   -1.492943
    127          1           0        9.724099    5.010237    0.242364
    128          1           0       10.920828    3.946006    1.646626
    129          1           0       11.595940    2.367945    1.174247
    130          1           0        9.572600    1.330513    2.347432
    131          1           0        9.148433    2.907662    2.908239
    132          1           0       12.095236    2.442254    3.448920
    133          1           0       11.292886    0.888290    3.575659
    134          1           0        9.700355    2.177313    5.203635
    135          1           0       10.730928    4.478046    4.888817
    136          1           0       12.301188    3.925582    5.300466
    137          1           0       11.204711    3.874436    6.540326
    138          1           0       10.194539    0.898749    6.718996
    139          1           0       11.674722    1.822183    7.095058
    140          1           0       11.775162    0.512727    5.863017
 ---------------------------------------------------------------------

 SCF Done:  E(RZINDO/S) =  -474.325162454     A.U. after   19 cycles

 Excitation energies and oscillator strengths:

 Excited State   1:      Singlet-A      1.2661 eV  979.22 nm  f=0.5707  <S**2>=0.000
     175 ->178         0.18090
     176 ->177         0.66572
 This state for optimization and/or second-order correction.
 Total Energy, E(CIS/TDA) =  -474.278632416
 Copying the excited state density for this state as the 1-particle RhoCI density.

 Excited State   2:      Singlet-A      1.9016 eV  651.99 nm  f=0.0461  <S**2>=0.000
     175 ->177         0.55202
     176 ->178        -0.40886

 Excited State   3:      Singlet-A      2.9163 eV  425.14 nm  f=0.1165  <S**2>=0.000
     166 ->179        -0.10404
     167 ->177         0.13864
     167 ->179        -0.21594
     168 ->177         0.32558
     168 ->178        -0.11407
     168 ->179        -0.36811
     168 ->181         0.10441
     168 ->186        -0.14575
     175 ->177         0.11760
     176 ->178         0.18872

 Excited State   4:      Singlet-A      2.9617 eV  418.63 nm  f=0.5605  <S**2>=0.000
     168 ->177        -0.10269
     168 ->179         0.15589
     171 ->177        -0.12910
     175 ->177         0.27658
     176 ->178         0.44353
     176 ->179         0.33241

 Excited State   5:      Singlet-A      3.0928 eV  400.87 nm  f=0.5337  <S**2>=0.000
     175 ->177        -0.23901
     176 ->178        -0.24778
     176 ->179         0.54371
     176 ->181         0.19032

 The electronic state is 1-A.
 Alpha  occ. eigenvalues --   -1.84772  -1.81419  -1.79450  -1.75100  -1.71376
 Alpha  occ. eigenvalues --   -1.69529  -1.66297  -1.60914  -1.58980  -1.58542
 Alpha  occ. eigenvalues --   -1.55088  -1.52277  -1.49706  -1.48344  -1.46762
 Alpha  occ. eigenvalues --   -1.44128  -1.42565  -1.38619  -1.38307  -1.38031
 Alpha  occ. eigenvalues --   -1.35321  -1.33933  -1.33248  -1.31675  -1.29564
 Alpha  occ. eigenvalues --   -1.28278  -1.24235  -1.21670  -1.19963  -1.19116
 Alpha  occ. eigenvalues --   -1.17576  -1.16100  -1.14876  -1.14818  -1.12823
 Alpha  occ. eigenvalues --   -1.12309  -1.10571  -1.09588  -1.05203  -1.04083
 Alpha  occ. eigenvalues --   -1.01890  -1.01628  -0.98404  -0.97759  -0.97579
 Alpha  occ. eigenvalues --   -0.96915  -0.94714  -0.94329  -0.92899  -0.92073
 Alpha  occ. eigenvalues --   -0.91541  -0.89347  -0.89285  -0.88100  -0.86884
 Alpha  occ. eigenvalues --   -0.84929  -0.84014  -0.83407  -0.81698  -0.80262
 Alpha  occ. eigenvalues --   -0.79540  -0.78958  -0.77012  -0.76823  -0.75916
 Alpha  occ. eigenvalues --   -0.75610  -0.74851  -0.74608  -0.74221  -0.73860
 Alpha  occ. eigenvalues --   -0.73524  -0.72548  -0.72421  -0.71829  -0.70378
 Alpha  occ. eigenvalues --   -0.70207  -0.69627  -0.68776  -0.68455  -0.68035
 Alpha  occ. eigenvalues --   -0.67743  -0.67587  -0.66742  -0.65342  -0.64971
 Alpha  occ. eigenvalues --   -0.64943  -0.64780  -0.64127  -0.63951  -0.63753
 Alpha  occ. eigenvalues --   -0.62979  -0.62821  -0.62466  -0.61925  -0.61557
 Alpha  occ. eigenvalues --   -0.61302  -0.60567  -0.60228  -0.59824  -0.59268
 Alpha  occ. eigenvalues --   -0.59082  -0.58820  -0.58252  -0.58012  -0.57791
 Alpha  occ. eigenvalues --   -0.57635  -0.57493  -0.57101  -0.56629  -0.56531
 Alpha  occ. eigenvalues --   -0.55888  -0.55603  -0.55254  -0.55186  -0.54801
 Alpha  occ. eigenvalues --   -0.54530  -0.53881  -0.53634  -0.53497  -0.53270
 Alpha  occ. eigenvalues --   -0.53039  -0.52602  -0.52452  -0.51525  -0.51481
 Alpha  occ. eigenvalues --   -0.51033  -0.50847  -0.50668  -0.50396  -0.50073
 Alpha  occ. eigenvalues --   -0.50007  -0.49689  -0.49558  -0.48763  -0.48524
 Alpha  occ. eigenvalues --   -0.48510  -0.47837  -0.47763  -0.47385  -0.47307
 Alpha  occ. eigenvalues --   -0.47275  -0.46922  -0.46650  -0.46208  -0.46145
 Alpha  occ. eigenvalues --   -0.46030  -0.45879  -0.45657  -0.45355  -0.44942
 Alpha  occ. eigenvalues --   -0.44700  -0.44349  -0.44078  -0.43976  -0.43920
 Alpha  occ. eigenvalues --   -0.43312  -0.42919  -0.42723  -0.42629  -0.42451
 Alpha  occ. eigenvalues --   -0.41577  -0.41033  -0.40489  -0.39693  -0.38857
 Alpha  occ. eigenvalues --   -0.37821  -0.36744  -0.35855  -0.34865  -0.33858
 Alpha  occ. eigenvalues --   -0.33439  -0.32489  -0.31836  -0.31345  -0.26324
 Alpha  occ. eigenvalues --   -0.21525
 Alpha virt. eigenvalues --   -0.08200  -0.01805  -0.00724   0.00824   0.02079
 Alpha virt. eigenvalues --    0.02719   0.03019   0.03286   0.04240   0.05007
 Alpha virt. eigenvalues --    0.06548   0.06832   0.07579   0.07671   0.07972

 Mulliken charges:
               1
     1  Mg   0.421700
     2  C   -0.052437
     3  C   -0.065199
     4  C   -0.073334
     5  C   -0.079138
     6  N   -0.273609
     7  C    0.172363
     8  C    0.012562
     9  C    0.005951
    10  C    0.103475
    11  C   -0.045996
    12  C   -0.025469
    13  C    0.006903
    14  C    0.458199
    15  O   -0.505856
    16  O   -0.266678
    17  N   -0.322416
    18  C    0.078274
    19  C   -0.013925
    20  C   -0.074629
    21  C    0.125996
    22  C   -0.047614
    23  C    0.328079
    24  O   -0.511266
    25  C   -0.036694
    26  N   -0.268431
    27  C    0.118730
    28  C   -0.003700
    29  C    0.003781
    30  C    0.162382
    31  C   -0.058295
    32  C   -0.026814
    33  C   -0.058135
    34  N   -0.337574
    35  C    0.131360
    36  C    0.051711
    37  C   -0.047139
    38  C    0.121277
    39  C   -0.033559
    40  C    0.346306
    41  O   -0.514711
    42  C    0.055469
    43  C    0.491963
    44  O   -0.530175
    45  O   -0.253361
    46  C    0.062237
    47  C    0.108267
    48  C   -0.097552
    49  C   -0.000091
    50  C   -0.043956
    51  C   -0.009539
    52  C   -0.015099
    53  C   -0.052715
    54  C   -0.008519
    55  C   -0.055144
    56  C   -0.033366
    57  C   -0.040557
    58  C   -0.045141
    59  C   -0.011940
    60  C   -0.059018
    61  C   -0.028373
    62  C   -0.035469
    63  C   -0.035855
    64  C   -0.021447
    65  C   -0.057158
    66  C   -0.057473
    67  H    0.019466
    68  H    0.037507
    69  H    0.023127
    70  H    0.048429
    71  H    0.016592
    72  H    0.031417
    73  H    0.024366
    74  H    0.014875
    75  H    0.030012
    76  H    0.017601
    77  H    0.030100
    78  H    0.046445
    79  H    0.025334
    80  H    0.022165
    81  H    0.020422
    82  H    0.039165
    83  H    0.034915
    84  H    0.027193
    85  H    0.039336
    86  H    0.026838
    87  H    0.009793
    88  H    0.028448
    89  H    0.038493
    90  H    0.018988
    91  H    0.020088
    92  H    0.019647
    93  H    0.020358
    94  H    0.026064
    95  H    0.029618
    96  H    0.037312
    97  H    0.038164
    98  H    0.059221
    99  H    0.072470
   100  H    0.024484
   101  H    0.042081
   102  H    0.049344
   103  H    0.050276
   104  H    0.023956
   105  H    0.022391
   106  H    0.023604
   107  H    0.033881
   108  H    0.013344
   109  H    0.019404
   110  H    0.021337
   111  H    0.022915
   112  H    0.019283
   113  H    0.006317
   114  H    0.019632
   115  H    0.023081
   116  H    0.016329
   117  H    0.012755
   118  H    0.019025
   119  H    0.011737
   120  H    0.017627
   121  H    0.021053
   122  H    0.027545
   123  H    0.010820
   124  H    0.021409
   125  H    0.009338
   126  H    0.028404
   127  H    0.013035
   128  H    0.018861
   129  H    0.020543
   130  H    0.014073
   131  H    0.028850
   132  H    0.024128
   133  H    0.011171
   134  H    0.013053
   135  H    0.019665
   136  H    0.015167
   137  H    0.010462
   138  H    0.025845
   139  H    0.023533
   140  H    0.023856
 Sum of Mulliken charges =  -0.00000

 Dipole moment (field-independent basis, Debye):
    X=              3.1207    Y=             -2.3204    Z=             -5.5168  Tot=              6.7497
 N-N= 4.335401647078D+03 E-N= 0.000000000000D+00  KE=-9.345591512490D+03
 Leave Link  601 at Fri Apr 29 12:01:14 2022, MaxMem=  6710886400 cpu:               0.8 elap:               0.1
 (Enter /sw/apps/gaussian-16.0/g16/l9999.exe)
 1\1\GINC-BP1-COMPUTE156\SP\RZINDO CIS\STO-3G\C55H74Mg1N4O6\OF15641\29-
 Apr-2022\0\\#p ZINDO=(nstates=5)\\step_251_chromophore_9 ZINDO\\0,1\Mg
 ,0,35.66,1.746,29.232\C,0,33.472,2.341,31.895\C,0,38.121,1.241,31.625\
 C,0,37.79,1.615,26.779\C,0,33.017,2.534,27.01\N,0,35.876,2.185,31.541\
 C,0,34.825,2.247,32.365\C,0,35.34,2.182,33.764\C,0,36.88,2.273,33.631\
 C,0,37.006,1.846,32.182\C,0,37.595,3.59,33.938\C,0,34.896,0.872,34.489
 \C,0,34.262,0.972,35.914\C,0,34.688,2.141,36.856\O,0,34.254,3.302,36.7

 Normal termination of Gaussian 16 at Fri Apr 29 12:01:14 2022.
