 Gaussian 16, Revision A.03,
 Gaussian 16:  ES64L-G16RevA.03 25-Dec-2016

 ------------------------------
 #p blyp/Def2SVP td=(nstates=5)
 ------------------------------

 -------------------------------------------------
 step_901_chromophore_5 TDDFT with blyp functional
 -------------------------------------------------
 Symbolic Z-matrix:
 Charge =  0 Multiplicity = 1

                         Standard orientation:
 ---------------------------------------------------------------------
 Center     Atomic      Atomic             Coordinates (Angstroms)
 Number     Number       Type             X           Y           Z
 ---------------------------------------------------------------------
      1         12           0        5.396381    0.503783   -0.261492
      2          6           0        3.746131   -2.551983   -0.040504
      3          6           0        2.900191    1.775716   -2.195558
      4          6           0        6.986810    3.406720    0.127279
      5          6           0        7.461235   -0.875941    2.534745
      6          7           0        3.601355   -0.334040   -0.869244
      7          6           0        3.110869   -1.618403   -0.800146
      8          6           0        1.921994   -1.825125   -1.689052
      9          6           0        1.826154   -0.415605   -2.472874
     10          6           0        2.876732    0.418688   -1.816063
     11          6           0        2.109836   -0.597966   -3.961504
     12          6           0        0.626118   -2.200693   -0.763477
     13          6           0       -0.269879   -3.322540   -1.379840
     14          6           0       -1.405009   -2.768086   -2.195951
     15          8           0       -1.187017   -2.075393   -3.168413
     16          8           0       -2.632843   -2.929621   -1.583771
     17          7           0        4.996199    2.327514   -0.963735
     18          6           0        3.913207    2.683952   -1.731570
     19          6           0        4.050801    4.027581   -2.159341
     20          6           0        5.205722    4.556068   -1.523401
     21          6           0        5.837922    3.425268   -0.741142
     22          6           0        3.052734    4.801272   -3.074810
     23          6           0        5.755487    5.962233   -1.754981
     24          8           0        5.208234    6.713423   -2.541353
     25          6           0        6.996348    6.478773   -1.039006
     26          7           0        7.067828    1.117229    1.015625
     27          6           0        7.519429    2.384434    0.991843
     28          6           0        8.594807    2.676192    2.088441
     29          6           0        8.447247    1.438849    3.043543
     30          6           0        7.733531    0.424063    2.058103
     31          6           0       10.008356    3.053321    1.507750
     32          6           0        7.598897    1.728328    4.274701
     33          6           0        8.247218    2.388887    5.521531
     34          7           0        5.650221   -1.322247    0.941993
     35          6           0        6.460386   -1.692750    2.002831
     36          6           0        6.295371   -3.075485    2.326416
     37          6           0        5.272949   -3.514711    1.454748
     38          6           0        4.928335   -2.419374    0.690197
     39          6           0        7.077122   -3.869167    3.259481
     40          6           0        4.451354   -4.618081    1.065067
     41          8           0        4.416392   -5.774259    1.490529
     42          6           0        3.440657   -4.109507    0.053557
     43          6           0        3.587026   -4.802944   -1.266232
     44          8           0        2.694083   -5.307910   -1.942671
     45          8           0        4.915927   -4.826366   -1.728167
     46          6           0        5.278756   -5.685846   -2.893525
     47          6           0       -3.671019   -2.280861   -2.326922
     48          6           0       -3.954786   -0.883625   -1.698035
     49          6           0       -4.833372   -0.592606   -0.632457
     50          6           0       -5.608478   -1.646989    0.136414
     51          6           0       -5.038662    0.849619   -0.230654
     52          6           0       -6.472350    1.429871   -0.594138
     53          6           0       -7.126263    2.183836    0.603008
     54          6           0       -8.629773    1.897435    0.878122
     55          6           0       -9.379643    3.265295    1.124827
     56          6           0       -8.679486    0.785696    1.997671
     57          6           0       -9.632920   -0.423610    1.735356
     58          6           0      -10.705284   -0.695650    2.826698
     59          6           0      -12.170830   -0.625812    2.303515
     60          6           0      -12.992245   -1.765251    2.938741
     61          6           0      -12.869782    0.767654    2.643154
     62          6           0      -14.073967    1.043425    1.678151
     63          6           0      -13.677669    1.833752    0.436219
     64          6           0      -13.830526    0.892567   -0.885746
     65          6           0      -12.663314    1.237875   -1.822231
     66          6           0      -15.123532    1.194613   -1.640203
     67          1           0        2.208496    2.087559   -2.981032
     68          1           0        7.563603    4.309223    0.340158
     69          1           0        8.155401   -1.117590    3.342211
     70          1           0        2.118714   -2.679237   -2.336907
     71          1           0        0.806121   -0.039594   -2.387047
     72          1           0        2.119741   -1.655102   -4.229445
     73          1           0        3.038961   -0.104450   -4.247418
     74          1           0        1.266989   -0.182385   -4.513628
     75          1           0        0.064605   -1.272042   -0.867157
     76          1           0        0.782490   -2.288450    0.311362
     77          1           0       -0.708540   -3.972077   -0.622499
     78          1           0        0.388334   -3.890176   -2.037957
     79          1           0        2.061552    4.478085   -2.756599
     80          1           0        3.192785    4.436257   -4.091928
     81          1           0        2.940929    5.868510   -2.879362
     82          1           0        7.873228    5.987294   -1.461182
     83          1           0        6.823423    6.369500    0.030756
     84          1           0        7.107500    7.542740   -1.247004
     85          1           0        8.369956    3.519224    2.741946
     86          1           0        9.400539    0.941777    3.224855
     87          1           0        9.976307    4.023548    1.012501
     88          1           0       10.394761    2.386863    0.736889
     89          1           0       10.738298    3.012210    2.317028
     90          1           0        7.065251    0.805653    4.499591
     91          1           0        6.822584    2.433684    3.977311
     92          1           0        7.696156    2.300029    6.458362
     93          1           0        8.486494    3.442596    5.379298
     94          1           0        9.164110    1.867159    5.793087
     95          1           0        6.778911   -3.696063    4.293701
     96          1           0        8.123787   -3.586117    3.147134
     97          1           0        6.938650   -4.939385    3.100769
     98          1           0        2.439563   -4.232877    0.466462
     99          1           0        6.034508   -5.189069   -3.502988
    100          1           0        4.465706   -5.828128   -3.604878
    101          1           0        5.657564   -6.579658   -2.398782
    102          1           0       -4.612081   -2.831572   -2.311369
    103          1           0       -3.503701   -2.213108   -3.402121
    104          1           0       -3.346010   -0.161024   -2.241393
    105          1           0       -6.674874   -1.458114    0.006909
    106          1           0       -5.357414   -1.658863    1.197355
    107          1           0       -5.442339   -2.656751   -0.237228
    108          1           0       -4.297661    1.469371   -0.736654
    109          1           0       -4.817220    0.930140    0.833542
    110          1           0       -7.105481    0.645499   -1.009679
    111          1           0       -6.411639    2.088718   -1.459941
    112          1           0       -7.014355    3.241094    0.365271
    113          1           0       -6.557640    2.058163    1.523993
    114          1           0       -9.082327    1.484698   -0.023244
    115          1           0      -10.373439    2.845718    1.276040
    116          1           0       -9.420008    4.011383    0.330049
    117          1           0       -9.196506    3.897882    1.993620
    118          1           0       -8.961500    1.303088    2.914566
    119          1           0       -7.687122    0.365550    2.162593
    120          1           0       -8.902598   -1.229036    1.813893
    121          1           0       -9.922794   -0.366891    0.686648
    122          1           0      -10.528243    0.018116    3.631228
    123          1           0      -10.468571   -1.698833    3.181090
    124          1           0      -12.224729   -0.641817    1.215045
    125          1           0      -13.899596   -1.316102    3.343899
    126          1           0      -12.496515   -2.314310    3.739475
    127          1           0      -13.335759   -2.478123    2.190129
    128          1           0      -12.159664    1.592499    2.577274
    129          1           0      -13.249779    0.744872    3.663924
    130          1           0      -14.721162    1.689836    2.271436
    131          1           0      -14.603306    0.147738    1.354013
    132          1           0      -12.657515    2.209479    0.519816
    133          1           0      -14.378510    2.656012    0.296228
    134          1           0      -13.772377   -0.170973   -0.654165
    135          1           0      -12.885926    2.015601   -2.552084
    136          1           0      -12.520942    0.317535   -2.390726
    137          1           0      -11.733680    1.364144   -1.267851
    138          1           0      -15.763998    0.313607   -1.693778
    139          1           0      -14.939297    1.435201   -2.687478
    140          1           0      -15.680878    2.026245   -1.208232
 ---------------------------------------------------------------------

 SCF Done:  E(RB-LYP) =  -3007.38637357     A.U. after   21 cycles

 Excitation energies and oscillator strengths:

 Excited State   1:      Singlet-A      1.7206 eV  720.60 nm  f=0.0076  <S**2>=0.000
     244 -> 247        0.68895
     245 -> 247        0.10396
 This state for optimization and/or second-order correction.
 Total Energy, E(TD-HF/TD-DFT) =  -3007.32314394
 Copying the excited state density for this state as the 1-particle RhoCI density.

 Excited State   2:      Singlet-A      1.7550 eV  706.47 nm  f=0.0318  <S**2>=0.000
     243 -> 247        0.56958
     245 -> 247       -0.33977
     246 -> 247        0.22537

 Excited State   3:      Singlet-A      1.7990 eV  689.18 nm  f=0.2702  <S**2>=0.000
     243 -> 247       -0.19910
     244 -> 247       -0.12675
     245 -> 248        0.17653
     246 -> 247        0.64661
     246 <- 247       -0.14431

 Excited State   4:      Singlet-A      2.0537 eV  603.71 nm  f=0.0711  <S**2>=0.000
     243 -> 247        0.34238
     245 -> 247        0.53601
     246 -> 248       -0.26410

 Excited State   5:      Singlet-A      2.1860 eV  567.18 nm  f=0.0002  <S**2>=0.000
     242 -> 247        0.70425

 The electronic state is 1-A.
 Alpha  occ. eigenvalues --  -46.26858 -18.82460 -18.81391 -18.77029 -18.76783
 Alpha  occ. eigenvalues --  -18.75193 -18.75060 -14.03830 -14.03565 -14.01619
 Alpha  occ. eigenvalues --  -14.00444 -10.04534 -10.03652  -9.99623  -9.98964
 Alpha  occ. eigenvalues --   -9.97954  -9.97412  -9.97327  -9.97042  -9.96787
 Alpha  occ. eigenvalues --   -9.96469  -9.96407  -9.95843  -9.95074  -9.94684
 Alpha  occ. eigenvalues --   -9.94399  -9.94256  -9.94001  -9.93952  -9.93921
 Alpha  occ. eigenvalues --   -9.93851  -9.93612  -9.93529  -9.93495  -9.93331
 Alpha  occ. eigenvalues --   -9.93279  -9.93144  -9.93143  -9.93122  -9.93084
 Alpha  occ. eigenvalues --   -9.92997  -9.92621  -9.92557  -9.92533  -9.92359
 Alpha  occ. eigenvalues --   -9.92127  -9.92085  -9.92044  -9.92036  -9.91993
 Alpha  occ. eigenvalues --   -9.91990  -9.91970  -9.91919  -9.91497  -9.91270
 Alpha  occ. eigenvalues --   -9.91242  -9.91218  -9.91169  -9.91091  -9.90903
 Alpha  occ. eigenvalues --   -9.90883  -9.90821  -9.90696  -9.90595  -9.90513
 Alpha  occ. eigenvalues --   -9.90407  -2.91608  -1.72022  -1.71473  -1.71345
 Alpha  occ. eigenvalues --   -0.98361  -0.96342  -0.91582  -0.90628  -0.90477
 Alpha  occ. eigenvalues --   -0.88737  -0.86609  -0.85339  -0.85198  -0.84367
 Alpha  occ. eigenvalues --   -0.75772  -0.72795  -0.72588  -0.72339  -0.71967
 Alpha  occ. eigenvalues --   -0.71573  -0.71293  -0.70868  -0.70622  -0.70335
 Alpha  occ. eigenvalues --   -0.69081  -0.68676  -0.67611  -0.67465  -0.67150
 Alpha  occ. eigenvalues --   -0.66003  -0.65703  -0.64990  -0.64750  -0.64689
 Alpha  occ. eigenvalues --   -0.63906  -0.62488  -0.62120  -0.61357  -0.61089
 Alpha  occ. eigenvalues --   -0.60461  -0.59827  -0.59809  -0.59402  -0.58649
 Alpha  occ. eigenvalues --   -0.58119  -0.57176  -0.56693  -0.55260  -0.55181
 Alpha  occ. eigenvalues --   -0.54109  -0.53702  -0.52818  -0.52290  -0.51281
 Alpha  occ. eigenvalues --   -0.51092  -0.50762  -0.50519  -0.50318  -0.49933
 Alpha  occ. eigenvalues --   -0.49624  -0.49354  -0.48975  -0.48694  -0.46456
 Alpha  occ. eigenvalues --   -0.45900  -0.45776  -0.45382  -0.45343  -0.44413
 Alpha  occ. eigenvalues --   -0.43950  -0.43571  -0.42922  -0.42153  -0.41948
 Alpha  occ. eigenvalues --   -0.41649  -0.41355  -0.41294  -0.41137  -0.40897
 Alpha  occ. eigenvalues --   -0.40775  -0.40510  -0.40028  -0.39942  -0.39717
 Alpha  occ. eigenvalues --   -0.39615  -0.39483  -0.39302  -0.39063  -0.39025
 Alpha  occ. eigenvalues --   -0.38789  -0.38558  -0.38413  -0.38206  -0.37988
 Alpha  occ. eigenvalues --   -0.37861  -0.37699  -0.37405  -0.37347  -0.37276
 Alpha  occ. eigenvalues --   -0.37037  -0.36838  -0.36736  -0.36493  -0.36412
 Alpha  occ. eigenvalues --   -0.36327  -0.36183  -0.35991  -0.35564  -0.35440
 Alpha  occ. eigenvalues --   -0.35241  -0.35164  -0.35052  -0.34716  -0.34423
 Alpha  occ. eigenvalues --   -0.34200  -0.34154  -0.34137  -0.34029  -0.33879
 Alpha  occ. eigenvalues --   -0.33607  -0.33227  -0.33206  -0.33166  -0.33085
 Alpha  occ. eigenvalues --   -0.32930  -0.32740  -0.32701  -0.32390  -0.32095
 Alpha  occ. eigenvalues --   -0.31923  -0.31856  -0.31611  -0.31409  -0.31323
 Alpha  occ. eigenvalues --   -0.31287  -0.31017  -0.30701  -0.30682  -0.30661
 Alpha  occ. eigenvalues --   -0.30446  -0.30308  -0.30216  -0.29829  -0.29811
 Alpha  occ. eigenvalues --   -0.29722  -0.29402  -0.29153  -0.29084  -0.28971
 Alpha  occ. eigenvalues --   -0.28815  -0.28748  -0.28588  -0.28168  -0.28103
 Alpha  occ. eigenvalues --   -0.27574  -0.27483  -0.27312  -0.26682  -0.26666
 Alpha  occ. eigenvalues --   -0.26551  -0.26451  -0.26034  -0.25681  -0.24617
 Alpha  occ. eigenvalues --   -0.24576  -0.24309  -0.24104  -0.23824  -0.23578
 Alpha  occ. eigenvalues --   -0.23544  -0.22443  -0.21949  -0.21705  -0.20722
 Alpha  occ. eigenvalues --   -0.20300  -0.19966  -0.18439  -0.18199  -0.17647
 Alpha  occ. eigenvalues --   -0.16137
 Alpha virt. eigenvalues --   -0.11938  -0.07344  -0.05925  -0.04724  -0.03587
 Alpha virt. eigenvalues --   -0.03340  -0.02815  -0.02365  -0.01933  -0.00007
 Alpha virt. eigenvalues --    0.01193   0.01565   0.01629   0.02287   0.02656

 Mulliken charges:
               1
     1  Mg   0.701084
     2  C   -0.041818
     3  C   -0.089081
     4  C   -0.033453
     5  C   -0.091781
     6  N   -0.281042
     7  C   -0.070315
     8  C    0.015326
     9  C   -0.013534
    10  C    0.104803
    11  C    0.124684
    12  C    0.084718
    13  C    0.174140
    14  C    0.043591
    15  O   -0.202313
    16  O   -0.242062
    17  N   -0.360920
    18  C    0.168782
    19  C   -0.163210
    20  C    0.016136
    21  C    0.162693
    22  C    0.201947
    23  C   -0.104401
    24  O   -0.155589
    25  C    0.146126
    26  N   -0.210687
    27  C   -0.009453
    28  C    0.023058
    29  C   -0.001644
    30  C   -0.022044
    31  C    0.110668
    32  C    0.114467
    33  C    0.077303
    34  N   -0.199687
    35  C    0.155200
    36  C   -0.191532
    37  C    0.106978
    38  C    0.075639
    39  C    0.189868
    40  C   -0.086446
    41  O   -0.144581
    42  C    0.132354
    43  C    0.138382
    44  O   -0.175382
    45  O   -0.315106
    46  C    0.211486
    47  C    0.290229
    48  C   -0.125256
    49  C   -0.133399
    50  C    0.144139
    51  C    0.150881
    52  C    0.059637
    53  C    0.110136
    54  C   -0.076239
    55  C    0.077449
    56  C    0.070774
    57  C    0.056615
    58  C    0.148072
    59  C   -0.081604
    60  C    0.118895
    61  C    0.068172
    62  C    0.076678
    63  C    0.113180
    64  C   -0.135512
    65  C    0.095158
    66  C    0.120019
    67  H   -0.040804
    68  H   -0.070160
    69  H   -0.049448
    70  H    0.001429
    71  H   -0.007826
    72  H   -0.007123
    73  H   -0.004366
    74  H   -0.004822
    75  H   -0.019804
    76  H   -0.001775
    77  H   -0.020208
    78  H    0.014299
    79  H   -0.025199
    80  H    0.005120
    81  H    0.013476
    82  H    0.014744
    83  H    0.015286
    84  H   -0.015775
    85  H   -0.025524
    86  H   -0.037745
    87  H   -0.001403
    88  H   -0.014291
    89  H   -0.003436
    90  H   -0.023781
    91  H   -0.022469
    92  H   -0.007339
    93  H   -0.003674
    94  H   -0.021156
    95  H   -0.004446
    96  H   -0.004439
    97  H    0.004632
    98  H   -0.008039
    99  H    0.013821
   100  H    0.024023
   101  H    0.034194
   102  H   -0.019125
   103  H   -0.011872
   104  H   -0.024349
   105  H    0.000356
   106  H    0.004512
   107  H   -0.013436
   108  H   -0.033088
   109  H   -0.020567
   110  H   -0.025233
   111  H   -0.026823
   112  H   -0.048014
   113  H   -0.030058
   114  H   -0.027356
   115  H   -0.013640
   116  H   -0.009993
   117  H   -0.017619
   118  H   -0.033241
   119  H   -0.026822
   120  H   -0.038502
   121  H   -0.025041
   122  H   -0.028185
   123  H   -0.035284
   124  H   -0.028468
   125  H   -0.024327
   126  H   -0.011427
   127  H   -0.020640
   128  H   -0.032174
   129  H   -0.037470
   130  H   -0.041470
   131  H   -0.022462
   132  H   -0.029827
   133  H   -0.035378
   134  H   -0.018094
   135  H   -0.005265
   136  H   -0.032557
   137  H   -0.014248
   138  H   -0.022255
   139  H   -0.024510
   140  H   -0.013397
 Sum of Mulliken charges =  -0.00000

 Dipole moment (field-independent basis, Debye):
    X=              1.1382    Y=              1.8386    Z=              1.9325  Tot=              2.9001
 Quadrupole moment (field-independent basis, Debye-Ang):
   XX=           -342.3532   YY=           -450.5659   ZZ=           -398.4339
   XY=              5.7896   XZ=             12.9284   YZ=             23.7620

 Normal termination of Gaussian 16 at Thu May  5 14:27:52 2022.
