 Gaussian 16, Revision A.03,
 Gaussian 16:  ES64L-G16RevA.03 25-Dec-2016

 -----------------------------------
 #p cam-b3lyp/Def2SVP td=(nstates=5)
 -----------------------------------

 ------------------------------------------------------
 step_901_chromophore_5 TDDFT with cam-b3lyp functional
 ------------------------------------------------------
 Symbolic Z-matrix:
 Charge =  0 Multiplicity = 1

                         Standard orientation:
 ---------------------------------------------------------------------
 Center     Atomic      Atomic             Coordinates (Angstroms)
 Number     Number       Type             X           Y           Z
 ---------------------------------------------------------------------
      1         12           0        5.396381    0.503783   -0.261492
      2          6           0        3.746131   -2.551983   -0.040504
      3          6           0        2.900191    1.775716   -2.195558
      4          6           0        6.986810    3.406720    0.127279
      5          6           0        7.461235   -0.875941    2.534745
      6          7           0        3.601355   -0.334040   -0.869244
      7          6           0        3.110869   -1.618403   -0.800146
      8          6           0        1.921994   -1.825125   -1.689052
      9          6           0        1.826154   -0.415605   -2.472874
     10          6           0        2.876732    0.418688   -1.816063
     11          6           0        2.109836   -0.597966   -3.961504
     12          6           0        0.626118   -2.200693   -0.763477
     13          6           0       -0.269879   -3.322540   -1.379840
     14          6           0       -1.405009   -2.768086   -2.195951
     15          8           0       -1.187017   -2.075393   -3.168413
     16          8           0       -2.632843   -2.929621   -1.583771
     17          7           0        4.996199    2.327514   -0.963735
     18          6           0        3.913207    2.683952   -1.731570
     19          6           0        4.050801    4.027581   -2.159341
     20          6           0        5.205722    4.556068   -1.523401
     21          6           0        5.837922    3.425268   -0.741142
     22          6           0        3.052734    4.801272   -3.074810
     23          6           0        5.755487    5.962233   -1.754981
     24          8           0        5.208234    6.713423   -2.541353
     25          6           0        6.996348    6.478773   -1.039006
     26          7           0        7.067828    1.117229    1.015625
     27          6           0        7.519429    2.384434    0.991843
     28          6           0        8.594807    2.676192    2.088441
     29          6           0        8.447247    1.438849    3.043543
     30          6           0        7.733531    0.424063    2.058103
     31          6           0       10.008356    3.053321    1.507750
     32          6           0        7.598897    1.728328    4.274701
     33          6           0        8.247218    2.388887    5.521531
     34          7           0        5.650221   -1.322247    0.941993
     35          6           0        6.460386   -1.692750    2.002831
     36          6           0        6.295371   -3.075485    2.326416
     37          6           0        5.272949   -3.514711    1.454748
     38          6           0        4.928335   -2.419374    0.690197
     39          6           0        7.077122   -3.869167    3.259481
     40          6           0        4.451354   -4.618081    1.065067
     41          8           0        4.416392   -5.774259    1.490529
     42          6           0        3.440657   -4.109507    0.053557
     43          6           0        3.587026   -4.802944   -1.266232
     44          8           0        2.694083   -5.307910   -1.942671
     45          8           0        4.915927   -4.826366   -1.728167
     46          6           0        5.278756   -5.685846   -2.893525
     47          6           0       -3.671019   -2.280861   -2.326922
     48          6           0       -3.954786   -0.883625   -1.698035
     49          6           0       -4.833372   -0.592606   -0.632457
     50          6           0       -5.608478   -1.646989    0.136414
     51          6           0       -5.038662    0.849619   -0.230654
     52          6           0       -6.472350    1.429871   -0.594138
     53          6           0       -7.126263    2.183836    0.603008
     54          6           0       -8.629773    1.897435    0.878122
     55          6           0       -9.379643    3.265295    1.124827
     56          6           0       -8.679486    0.785696    1.997671
     57          6           0       -9.632920   -0.423610    1.735356
     58          6           0      -10.705284   -0.695650    2.826698
     59          6           0      -12.170830   -0.625812    2.303515
     60          6           0      -12.992245   -1.765251    2.938741
     61          6           0      -12.869782    0.767654    2.643154
     62          6           0      -14.073967    1.043425    1.678151
     63          6           0      -13.677669    1.833752    0.436219
     64          6           0      -13.830526    0.892567   -0.885746
     65          6           0      -12.663314    1.237875   -1.822231
     66          6           0      -15.123532    1.194613   -1.640203
     67          1           0        2.208496    2.087559   -2.981032
     68          1           0        7.563603    4.309223    0.340158
     69          1           0        8.155401   -1.117590    3.342211
     70          1           0        2.118714   -2.679237   -2.336907
     71          1           0        0.806121   -0.039594   -2.387047
     72          1           0        2.119741   -1.655102   -4.229445
     73          1           0        3.038961   -0.104450   -4.247418
     74          1           0        1.266989   -0.182385   -4.513628
     75          1           0        0.064605   -1.272042   -0.867157
     76          1           0        0.782490   -2.288450    0.311362
     77          1           0       -0.708540   -3.972077   -0.622499
     78          1           0        0.388334   -3.890176   -2.037957
     79          1           0        2.061552    4.478085   -2.756599
     80          1           0        3.192785    4.436257   -4.091928
     81          1           0        2.940929    5.868510   -2.879362
     82          1           0        7.873228    5.987294   -1.461182
     83          1           0        6.823423    6.369500    0.030756
     84          1           0        7.107500    7.542740   -1.247004
     85          1           0        8.369956    3.519224    2.741946
     86          1           0        9.400539    0.941777    3.224855
     87          1           0        9.976307    4.023548    1.012501
     88          1           0       10.394761    2.386863    0.736889
     89          1           0       10.738298    3.012210    2.317028
     90          1           0        7.065251    0.805653    4.499591
     91          1           0        6.822584    2.433684    3.977311
     92          1           0        7.696156    2.300029    6.458362
     93          1           0        8.486494    3.442596    5.379298
     94          1           0        9.164110    1.867159    5.793087
     95          1           0        6.778911   -3.696063    4.293701
     96          1           0        8.123787   -3.586117    3.147134
     97          1           0        6.938650   -4.939385    3.100769
     98          1           0        2.439563   -4.232877    0.466462
     99          1           0        6.034508   -5.189069   -3.502988
    100          1           0        4.465706   -5.828128   -3.604878
    101          1           0        5.657564   -6.579658   -2.398782
    102          1           0       -4.612081   -2.831572   -2.311369
    103          1           0       -3.503701   -2.213108   -3.402121
    104          1           0       -3.346010   -0.161024   -2.241393
    105          1           0       -6.674874   -1.458114    0.006909
    106          1           0       -5.357414   -1.658863    1.197355
    107          1           0       -5.442339   -2.656751   -0.237228
    108          1           0       -4.297661    1.469371   -0.736654
    109          1           0       -4.817220    0.930140    0.833542
    110          1           0       -7.105481    0.645499   -1.009679
    111          1           0       -6.411639    2.088718   -1.459941
    112          1           0       -7.014355    3.241094    0.365271
    113          1           0       -6.557640    2.058163    1.523993
    114          1           0       -9.082327    1.484698   -0.023244
    115          1           0      -10.373439    2.845718    1.276040
    116          1           0       -9.420008    4.011383    0.330049
    117          1           0       -9.196506    3.897882    1.993620
    118          1           0       -8.961500    1.303088    2.914566
    119          1           0       -7.687122    0.365550    2.162593
    120          1           0       -8.902598   -1.229036    1.813893
    121          1           0       -9.922794   -0.366891    0.686648
    122          1           0      -10.528243    0.018116    3.631228
    123          1           0      -10.468571   -1.698833    3.181090
    124          1           0      -12.224729   -0.641817    1.215045
    125          1           0      -13.899596   -1.316102    3.343899
    126          1           0      -12.496515   -2.314310    3.739475
    127          1           0      -13.335759   -2.478123    2.190129
    128          1           0      -12.159664    1.592499    2.577274
    129          1           0      -13.249779    0.744872    3.663924
    130          1           0      -14.721162    1.689836    2.271436
    131          1           0      -14.603306    0.147738    1.354013
    132          1           0      -12.657515    2.209479    0.519816
    133          1           0      -14.378510    2.656012    0.296228
    134          1           0      -13.772377   -0.170973   -0.654165
    135          1           0      -12.885926    2.015601   -2.552084
    136          1           0      -12.520942    0.317535   -2.390726
    137          1           0      -11.733680    1.364144   -1.267851
    138          1           0      -15.763998    0.313607   -1.693778
    139          1           0      -14.939297    1.435201   -2.687478
    140          1           0      -15.680878    2.026245   -1.208232
 ---------------------------------------------------------------------

 SCF Done:  E(RCAM-B3LYP) =  -3007.17072988     A.U. after   19 cycles

 Excitation energies and oscillator strengths:

 Excited State   1:      Singlet-A      1.6842 eV  736.15 nm  f=0.3728  <S**2>=0.000
     245 -> 248       -0.17254
     246 -> 247        0.68709
     245 <- 248       -0.10614
 This state for optimization and/or second-order correction.
 Total Energy, E(TD-HF/TD-DFT) =  -3007.10883548
 Copying the excited state density for this state as the 1-particle RhoCI density.

 Excited State   2:      Singlet-A      2.2435 eV  552.63 nm  f=0.1101  <S**2>=0.000
     245 -> 247        0.63165
     246 -> 248        0.30139

 Excited State   3:      Singlet-A      3.2655 eV  379.68 nm  f=0.0016  <S**2>=0.000
     241 -> 247       -0.13902
     242 -> 247        0.22965
     244 -> 247        0.63170

 Excited State   4:      Singlet-A      3.4008 eV  364.57 nm  f=0.0314  <S**2>=0.000
     241 -> 247        0.44361
     242 -> 247       -0.40165
     244 -> 247        0.22276
     246 -> 248        0.24769

 Excited State   5:      Singlet-A      3.4480 eV  359.58 nm  f=0.0112  <S**2>=0.000
     240 -> 247        0.56745
     240 -> 248        0.15559
     240 -> 249       -0.20988
     240 -> 250        0.20720
     240 -> 251       -0.12404
     246 -> 248       -0.10302

 The electronic state is 1-A.
 Alpha  occ. eigenvalues --  -46.88391 -19.25291 -19.24112 -19.20062 -19.19772
 Alpha  occ. eigenvalues --  -19.18678 -19.18000 -14.42936 -14.42334 -14.40323
 Alpha  occ. eigenvalues --  -14.38654 -10.39959 -10.38928 -10.35033 -10.34020
 Alpha  occ. eigenvalues --  -10.32313 -10.32082 -10.31795 -10.31539 -10.31077
 Alpha  occ. eigenvalues --  -10.30691 -10.30661 -10.30632 -10.28871 -10.28799
 Alpha  occ. eigenvalues --  -10.28597 -10.28430 -10.28381 -10.28219 -10.28136
 Alpha  occ. eigenvalues --  -10.28004 -10.27845 -10.27795 -10.27660 -10.27478
 Alpha  occ. eigenvalues --  -10.27321 -10.27303 -10.27270 -10.27234 -10.26918
 Alpha  occ. eigenvalues --  -10.26807 -10.26488 -10.26339 -10.26201 -10.26164
 Alpha  occ. eigenvalues --  -10.26084 -10.26042 -10.25975 -10.25777 -10.25774
 Alpha  occ. eigenvalues --  -10.25729 -10.25637 -10.25517 -10.25154 -10.24963
 Alpha  occ. eigenvalues --  -10.24899 -10.24879 -10.24844 -10.24744 -10.24605
 Alpha  occ. eigenvalues --  -10.24515 -10.24474 -10.24261 -10.24157 -10.24103
 Alpha  occ. eigenvalues --  -10.24090  -3.17050  -1.91939  -1.91494  -1.91376
 Alpha  occ. eigenvalues --   -1.16813  -1.14727  -1.10259  -1.08637  -1.08514
 Alpha  occ. eigenvalues --   -1.06455  -1.04125  -1.03080  -1.02849  -1.01963
 Alpha  occ. eigenvalues --   -0.92725  -0.89586  -0.89292  -0.89089  -0.88628
 Alpha  occ. eigenvalues --   -0.88235  -0.87925  -0.87459  -0.87058  -0.86863
 Alpha  occ. eigenvalues --   -0.85795  -0.85175  -0.83848  -0.83606  -0.83354
 Alpha  occ. eigenvalues --   -0.82012  -0.81805  -0.81135  -0.80541  -0.80472
 Alpha  occ. eigenvalues --   -0.79592  -0.78012  -0.77626  -0.76999  -0.76554
 Alpha  occ. eigenvalues --   -0.75807  -0.75165  -0.75141  -0.74660  -0.73868
 Alpha  occ. eigenvalues --   -0.73125  -0.72095  -0.71621  -0.70039  -0.69776
 Alpha  occ. eigenvalues --   -0.68700  -0.68227  -0.67483  -0.66655  -0.65367
 Alpha  occ. eigenvalues --   -0.65128  -0.64936  -0.64514  -0.64317  -0.63888
 Alpha  occ. eigenvalues --   -0.63488  -0.63306  -0.62577  -0.62530  -0.60078
 Alpha  occ. eigenvalues --   -0.59390  -0.59250  -0.58963  -0.58659  -0.57905
 Alpha  occ. eigenvalues --   -0.57468  -0.56918  -0.56120  -0.55476  -0.55214
 Alpha  occ. eigenvalues --   -0.54680  -0.54613  -0.54332  -0.53987  -0.53596
 Alpha  occ. eigenvalues --   -0.53487  -0.53119  -0.52723  -0.52611  -0.52574
 Alpha  occ. eigenvalues --   -0.52327  -0.52041  -0.51967  -0.51724  -0.51626
 Alpha  occ. eigenvalues --   -0.51239  -0.51127  -0.50800  -0.50676  -0.50531
 Alpha  occ. eigenvalues --   -0.50106  -0.49907  -0.49707  -0.49592  -0.49437
 Alpha  occ. eigenvalues --   -0.49349  -0.49157  -0.48753  -0.48742  -0.48587
 Alpha  occ. eigenvalues --   -0.48529  -0.48469  -0.48320  -0.48148  -0.47636
 Alpha  occ. eigenvalues --   -0.47522  -0.47264  -0.47247  -0.46800  -0.46410
 Alpha  occ. eigenvalues --   -0.46169  -0.45924  -0.45886  -0.45726  -0.45697
 Alpha  occ. eigenvalues --   -0.45278  -0.45238  -0.45003  -0.44953  -0.44787
 Alpha  occ. eigenvalues --   -0.44486  -0.44318  -0.44244  -0.44030  -0.43795
 Alpha  occ. eigenvalues --   -0.43594  -0.43413  -0.43211  -0.42991  -0.42868
 Alpha  occ. eigenvalues --   -0.42700  -0.42521  -0.42391  -0.42109  -0.42006
 Alpha  occ. eigenvalues --   -0.41912  -0.41555  -0.41535  -0.41359  -0.41126
 Alpha  occ. eigenvalues --   -0.40931  -0.40807  -0.40505  -0.40206  -0.40073
 Alpha  occ. eigenvalues --   -0.40020  -0.39892  -0.39597  -0.39237  -0.39081
 Alpha  occ. eigenvalues --   -0.38452  -0.38339  -0.38099  -0.37927  -0.37377
 Alpha  occ. eigenvalues --   -0.37296  -0.37200  -0.37063  -0.36543  -0.35932
 Alpha  occ. eigenvalues --   -0.35208  -0.35012  -0.34638  -0.34383  -0.34260
 Alpha  occ. eigenvalues --   -0.33949  -0.33901  -0.33377  -0.31383  -0.30707
 Alpha  occ. eigenvalues --   -0.30471  -0.30294  -0.29403  -0.29291  -0.24566
 Alpha  occ. eigenvalues --   -0.21462
 Alpha virt. eigenvalues --   -0.09124  -0.02238   0.00680   0.02227   0.02456
 Alpha virt. eigenvalues --    0.03853   0.04557   0.04648   0.05682   0.06703
 Alpha virt. eigenvalues --    0.07666   0.07953   0.08500   0.08529   0.09268

 Mulliken charges:
               1
     1  Mg   0.834232
     2  C   -0.071641
     3  C   -0.098722
     4  C   -0.053215
     5  C   -0.097795
     6  N   -0.356605
     7  C   -0.032343
     8  C   -0.024638
     9  C   -0.073607
    10  C    0.120278
    11  C    0.066913
    12  C    0.032448
    13  C    0.098903
    14  C    0.128651
    15  O   -0.243527
    16  O   -0.304981
    17  N   -0.451179
    18  C    0.176549
    19  C   -0.165145
    20  C   -0.048880
    21  C    0.190817
    22  C    0.144940
    23  C   -0.026113
    24  O   -0.194720
    25  C    0.062121
    26  N   -0.274215
    27  C    0.010824
    28  C   -0.035025
    29  C   -0.060218
    30  C   -0.001040
    31  C    0.060250
    32  C    0.052943
    33  C    0.019524
    34  N   -0.285975
    35  C    0.153579
    36  C   -0.180364
    37  C    0.021610
    38  C    0.122207
    39  C    0.130247
    40  C    0.014681
    41  O   -0.185755
    42  C    0.052612
    43  C    0.229672
    44  O   -0.217598
    45  O   -0.378778
    46  C    0.175709
    47  C    0.244042
    48  C   -0.140540
    49  C   -0.155156
    50  C    0.087068
    51  C    0.091816
    52  C    0.006479
    53  C    0.053511
    54  C   -0.129415
    55  C    0.028836
    56  C    0.024321
    57  C    0.001216
    58  C    0.094595
    59  C   -0.133328
    60  C    0.057972
    61  C    0.021057
    62  C    0.018480
    63  C    0.065034
    64  C   -0.195265
    65  C    0.041238
    66  C    0.060557
    67  H   -0.004344
    68  H   -0.034800
    69  H   -0.011729
    70  H    0.030623
    71  H    0.027160
    72  H    0.019162
    73  H    0.020864
    74  H    0.020027
    75  H    0.009915
    76  H    0.029228
    77  H    0.017102
    78  H    0.046294
    79  H    0.002013
    80  H    0.032604
    81  H    0.044874
    82  H    0.042740
    83  H    0.041189
    84  H    0.021798
    85  H    0.009027
    86  H   -0.002605
    87  H    0.019699
    88  H    0.011359
    89  H    0.021136
    90  H    0.007780
    91  H    0.005405
    92  H    0.018228
    93  H    0.016646
    94  H    0.001414
    95  H    0.021953
    96  H    0.018828
    97  H    0.033368
    98  H    0.033380
    99  H    0.034791
   100  H    0.047990
   101  H    0.054999
   102  H    0.009127
   103  H    0.023935
   104  H    0.006509
   105  H    0.019887
   106  H    0.028117
   107  H    0.012841
   108  H   -0.001246
   109  H    0.007335
   110  H    0.001094
   111  H    0.002533
   112  H   -0.016736
   113  H   -0.002599
   114  H    0.000558
   115  H   -0.000381
   116  H    0.014763
   117  H    0.006691
   118  H   -0.006005
   119  H    0.000118
   120  H   -0.009317
   121  H   -0.000136
   122  H   -0.000528
   123  H   -0.004563
   124  H   -0.001861
   125  H   -0.000399
   126  H    0.013184
   127  H    0.004108
   128  H   -0.007665
   129  H   -0.007991
   130  H   -0.009738
   131  H    0.003760
   132  H   -0.006007
   133  H   -0.006144
   134  H    0.010133
   135  H    0.018155
   136  H   -0.006723
   137  H    0.003960
   138  H    0.002281
   139  H    0.000669
   140  H    0.010010
 Sum of Mulliken charges =  -0.00000

 Dipole moment (field-independent basis, Debye):
    X=              1.4456    Y=              2.7792    Z=              1.6932  Tot=              3.5610
 Quadrupole moment (field-independent basis, Debye-Ang):
   XX=           -338.3958   YY=           -447.6007   ZZ=           -397.0707
   XY=             11.7931   XZ=             13.1622   YZ=             24.1124

 Normal termination of Gaussian 16 at Thu May  5 13:29:43 2022.
