 Gaussian 16, Revision A.03,
 Gaussian 16:  ES64L-G16RevA.03 25-Dec-2016

 ---------------------------------
 #p PBE1PBE/Def2SVP td=(nstates=5)
 ---------------------------------

 ----------------------------------------------------
 step_901_chromophore_5 TDDFT with PBE1PBE functional
 ----------------------------------------------------
 Symbolic Z-matrix:
 Charge =  0 Multiplicity = 1

                         Standard orientation:
 ---------------------------------------------------------------------
 Center     Atomic      Atomic             Coordinates (Angstroms)
 Number     Number       Type             X           Y           Z
 ---------------------------------------------------------------------
      1         12           0        5.396381    0.503783   -0.261492
      2          6           0        3.746131   -2.551983   -0.040504
      3          6           0        2.900191    1.775716   -2.195558
      4          6           0        6.986810    3.406720    0.127279
      5          6           0        7.461235   -0.875941    2.534745
      6          7           0        3.601355   -0.334040   -0.869244
      7          6           0        3.110869   -1.618403   -0.800146
      8          6           0        1.921994   -1.825125   -1.689052
      9          6           0        1.826154   -0.415605   -2.472874
     10          6           0        2.876732    0.418688   -1.816063
     11          6           0        2.109836   -0.597966   -3.961504
     12          6           0        0.626118   -2.200693   -0.763477
     13          6           0       -0.269879   -3.322540   -1.379840
     14          6           0       -1.405009   -2.768086   -2.195951
     15          8           0       -1.187017   -2.075393   -3.168413
     16          8           0       -2.632843   -2.929621   -1.583771
     17          7           0        4.996199    2.327514   -0.963735
     18          6           0        3.913207    2.683952   -1.731570
     19          6           0        4.050801    4.027581   -2.159341
     20          6           0        5.205722    4.556068   -1.523401
     21          6           0        5.837922    3.425268   -0.741142
     22          6           0        3.052734    4.801272   -3.074810
     23          6           0        5.755487    5.962233   -1.754981
     24          8           0        5.208234    6.713423   -2.541353
     25          6           0        6.996348    6.478773   -1.039006
     26          7           0        7.067828    1.117229    1.015625
     27          6           0        7.519429    2.384434    0.991843
     28          6           0        8.594807    2.676192    2.088441
     29          6           0        8.447247    1.438849    3.043543
     30          6           0        7.733531    0.424063    2.058103
     31          6           0       10.008356    3.053321    1.507750
     32          6           0        7.598897    1.728328    4.274701
     33          6           0        8.247218    2.388887    5.521531
     34          7           0        5.650221   -1.322247    0.941993
     35          6           0        6.460386   -1.692750    2.002831
     36          6           0        6.295371   -3.075485    2.326416
     37          6           0        5.272949   -3.514711    1.454748
     38          6           0        4.928335   -2.419374    0.690197
     39          6           0        7.077122   -3.869167    3.259481
     40          6           0        4.451354   -4.618081    1.065067
     41          8           0        4.416392   -5.774259    1.490529
     42          6           0        3.440657   -4.109507    0.053557
     43          6           0        3.587026   -4.802944   -1.266232
     44          8           0        2.694083   -5.307910   -1.942671
     45          8           0        4.915927   -4.826366   -1.728167
     46          6           0        5.278756   -5.685846   -2.893525
     47          6           0       -3.671019   -2.280861   -2.326922
     48          6           0       -3.954786   -0.883625   -1.698035
     49          6           0       -4.833372   -0.592606   -0.632457
     50          6           0       -5.608478   -1.646989    0.136414
     51          6           0       -5.038662    0.849619   -0.230654
     52          6           0       -6.472350    1.429871   -0.594138
     53          6           0       -7.126263    2.183836    0.603008
     54          6           0       -8.629773    1.897435    0.878122
     55          6           0       -9.379643    3.265295    1.124827
     56          6           0       -8.679486    0.785696    1.997671
     57          6           0       -9.632920   -0.423610    1.735356
     58          6           0      -10.705284   -0.695650    2.826698
     59          6           0      -12.170830   -0.625812    2.303515
     60          6           0      -12.992245   -1.765251    2.938741
     61          6           0      -12.869782    0.767654    2.643154
     62          6           0      -14.073967    1.043425    1.678151
     63          6           0      -13.677669    1.833752    0.436219
     64          6           0      -13.830526    0.892567   -0.885746
     65          6           0      -12.663314    1.237875   -1.822231
     66          6           0      -15.123532    1.194613   -1.640203
     67          1           0        2.208496    2.087559   -2.981032
     68          1           0        7.563603    4.309223    0.340158
     69          1           0        8.155401   -1.117590    3.342211
     70          1           0        2.118714   -2.679237   -2.336907
     71          1           0        0.806121   -0.039594   -2.387047
     72          1           0        2.119741   -1.655102   -4.229445
     73          1           0        3.038961   -0.104450   -4.247418
     74          1           0        1.266989   -0.182385   -4.513628
     75          1           0        0.064605   -1.272042   -0.867157
     76          1           0        0.782490   -2.288450    0.311362
     77          1           0       -0.708540   -3.972077   -0.622499
     78          1           0        0.388334   -3.890176   -2.037957
     79          1           0        2.061552    4.478085   -2.756599
     80          1           0        3.192785    4.436257   -4.091928
     81          1           0        2.940929    5.868510   -2.879362
     82          1           0        7.873228    5.987294   -1.461182
     83          1           0        6.823423    6.369500    0.030756
     84          1           0        7.107500    7.542740   -1.247004
     85          1           0        8.369956    3.519224    2.741946
     86          1           0        9.400539    0.941777    3.224855
     87          1           0        9.976307    4.023548    1.012501
     88          1           0       10.394761    2.386863    0.736889
     89          1           0       10.738298    3.012210    2.317028
     90          1           0        7.065251    0.805653    4.499591
     91          1           0        6.822584    2.433684    3.977311
     92          1           0        7.696156    2.300029    6.458362
     93          1           0        8.486494    3.442596    5.379298
     94          1           0        9.164110    1.867159    5.793087
     95          1           0        6.778911   -3.696063    4.293701
     96          1           0        8.123787   -3.586117    3.147134
     97          1           0        6.938650   -4.939385    3.100769
     98          1           0        2.439563   -4.232877    0.466462
     99          1           0        6.034508   -5.189069   -3.502988
    100          1           0        4.465706   -5.828128   -3.604878
    101          1           0        5.657564   -6.579658   -2.398782
    102          1           0       -4.612081   -2.831572   -2.311369
    103          1           0       -3.503701   -2.213108   -3.402121
    104          1           0       -3.346010   -0.161024   -2.241393
    105          1           0       -6.674874   -1.458114    0.006909
    106          1           0       -5.357414   -1.658863    1.197355
    107          1           0       -5.442339   -2.656751   -0.237228
    108          1           0       -4.297661    1.469371   -0.736654
    109          1           0       -4.817220    0.930140    0.833542
    110          1           0       -7.105481    0.645499   -1.009679
    111          1           0       -6.411639    2.088718   -1.459941
    112          1           0       -7.014355    3.241094    0.365271
    113          1           0       -6.557640    2.058163    1.523993
    114          1           0       -9.082327    1.484698   -0.023244
    115          1           0      -10.373439    2.845718    1.276040
    116          1           0       -9.420008    4.011383    0.330049
    117          1           0       -9.196506    3.897882    1.993620
    118          1           0       -8.961500    1.303088    2.914566
    119          1           0       -7.687122    0.365550    2.162593
    120          1           0       -8.902598   -1.229036    1.813893
    121          1           0       -9.922794   -0.366891    0.686648
    122          1           0      -10.528243    0.018116    3.631228
    123          1           0      -10.468571   -1.698833    3.181090
    124          1           0      -12.224729   -0.641817    1.215045
    125          1           0      -13.899596   -1.316102    3.343899
    126          1           0      -12.496515   -2.314310    3.739475
    127          1           0      -13.335759   -2.478123    2.190129
    128          1           0      -12.159664    1.592499    2.577274
    129          1           0      -13.249779    0.744872    3.663924
    130          1           0      -14.721162    1.689836    2.271436
    131          1           0      -14.603306    0.147738    1.354013
    132          1           0      -12.657515    2.209479    0.519816
    133          1           0      -14.378510    2.656012    0.296228
    134          1           0      -13.772377   -0.170973   -0.654165
    135          1           0      -12.885926    2.015601   -2.552084
    136          1           0      -12.520942    0.317535   -2.390726
    137          1           0      -11.733680    1.364144   -1.267851
    138          1           0      -15.763998    0.313607   -1.693778
    139          1           0      -14.939297    1.435201   -2.687478
    140          1           0      -15.680878    2.026245   -1.208232
 ---------------------------------------------------------------------

 SCF Done:  E(RPBE1PBE) =  -3005.35834197     A.U. after   15 cycles

 Excitation energies and oscillator strengths:

 Excited State   1:      Singlet-A      1.8337 eV  676.15 nm  f=0.3605  <S**2>=0.000
     245 -> 248       -0.16977
     246 -> 247        0.69409
     246 <- 247       -0.11038
 This state for optimization and/or second-order correction.
 Total Energy, E(TD-HF/TD-DFT) =  -3005.29095526
 Copying the excited state density for this state as the 1-particle RhoCI density.

 Excited State   2:      Singlet-A      2.2465 eV  551.89 nm  f=0.1066  <S**2>=0.000
     245 -> 247        0.64262
     246 -> 248        0.27715

 Excited State   3:      Singlet-A      2.8705 eV  431.93 nm  f=0.0000  <S**2>=0.000
     242 -> 247        0.64876
     242 -> 249       -0.10162
     242 -> 250       -0.11363
     243 -> 247       -0.18251

 Excited State   4:      Singlet-A      2.8734 eV  431.49 nm  f=0.0011  <S**2>=0.000
     241 -> 247        0.30058
     241 -> 249        0.11117
     242 -> 247        0.20158
     243 -> 247        0.57729

 Excited State   5:      Singlet-A      2.9659 eV  418.03 nm  f=0.0036  <S**2>=0.000
     240 -> 247       -0.17647
     241 -> 247        0.58436
     243 -> 247       -0.32139

 The electronic state is 1-A.
 Alpha  occ. eigenvalues --  -46.91779 -19.26005 -19.24824 -19.20350 -19.20047
 Alpha  occ. eigenvalues --  -19.18693 -19.18425 -14.42338 -14.41963 -14.39853
 Alpha  occ. eigenvalues --  -14.38436 -10.37042 -10.35965 -10.31997 -10.31308
 Alpha  occ. eigenvalues --  -10.29808 -10.29670 -10.29106 -10.29057 -10.28698
 Alpha  occ. eigenvalues --  -10.28507 -10.28503 -10.27999 -10.26857 -10.26565
 Alpha  occ. eigenvalues --  -10.26335 -10.26083 -10.25926 -10.25897 -10.25837
 Alpha  occ. eigenvalues --  -10.25817 -10.25671 -10.25321 -10.25296 -10.25273
 Alpha  occ. eigenvalues --  -10.25226 -10.25128 -10.25025 -10.24906 -10.24447
 Alpha  occ. eigenvalues --  -10.24337 -10.24079 -10.24039 -10.23724 -10.23603
 Alpha  occ. eigenvalues --  -10.23483 -10.23433 -10.23364 -10.23350 -10.23347
 Alpha  occ. eigenvalues --  -10.23336 -10.23224 -10.23061 -10.22620 -10.22545
 Alpha  occ. eigenvalues --  -10.22472 -10.22466 -10.22309 -10.22274 -10.22201
 Alpha  occ. eigenvalues --  -10.22067 -10.22065 -10.22054 -10.21657 -10.21550
 Alpha  occ. eigenvalues --  -10.21499  -3.14015  -1.86844  -1.86378  -1.86264
 Alpha  occ. eigenvalues --   -1.11640  -1.09515  -1.04809  -1.03539  -1.03392
 Alpha  occ. eigenvalues --   -1.01337  -0.98904  -0.97618  -0.97411  -0.96540
 Alpha  occ. eigenvalues --   -0.87213  -0.83672  -0.83569  -0.83186  -0.82942
 Alpha  occ. eigenvalues --   -0.82463  -0.82074  -0.81754  -0.81495  -0.80985
 Alpha  occ. eigenvalues --   -0.79950  -0.79394  -0.78037  -0.77863  -0.77564
 Alpha  occ. eigenvalues --   -0.76217  -0.75984  -0.75287  -0.74838  -0.74758
 Alpha  occ. eigenvalues --   -0.73813  -0.72358  -0.71918  -0.71181  -0.70855
 Alpha  occ. eigenvalues --   -0.69967  -0.69463  -0.69241  -0.68828  -0.68027
 Alpha  occ. eigenvalues --   -0.67599  -0.66453  -0.66024  -0.64324  -0.64131
 Alpha  occ. eigenvalues --   -0.63214  -0.62501  -0.61834  -0.60875  -0.59912
 Alpha  occ. eigenvalues --   -0.59551  -0.59160  -0.59018  -0.58866  -0.58155
 Alpha  occ. eigenvalues --   -0.57841  -0.57463  -0.57124  -0.56801  -0.54596
 Alpha  occ. eigenvalues --   -0.53988  -0.53667  -0.53499  -0.53289  -0.52505
 Alpha  occ. eigenvalues --   -0.51893  -0.51430  -0.50677  -0.50069  -0.49730
 Alpha  occ. eigenvalues --   -0.49288  -0.49078  -0.48814  -0.48352  -0.48178
 Alpha  occ. eigenvalues --   -0.47993  -0.47619  -0.47347  -0.47087  -0.46914
 Alpha  occ. eigenvalues --   -0.46788  -0.46619  -0.46467  -0.46353  -0.46242
 Alpha  occ. eigenvalues --   -0.45778  -0.45689  -0.45437  -0.45197  -0.44943
 Alpha  occ. eigenvalues --   -0.44711  -0.44459  -0.44328  -0.44251  -0.43995
 Alpha  occ. eigenvalues --   -0.43901  -0.43769  -0.43408  -0.43296  -0.43222
 Alpha  occ. eigenvalues --   -0.43089  -0.43079  -0.42913  -0.42803  -0.42311
 Alpha  occ. eigenvalues --   -0.42107  -0.41946  -0.41887  -0.41519  -0.41127
 Alpha  occ. eigenvalues --   -0.40884  -0.40651  -0.40575  -0.40499  -0.40405
 Alpha  occ. eigenvalues --   -0.39855  -0.39842  -0.39786  -0.39739  -0.39416
 Alpha  occ. eigenvalues --   -0.39186  -0.39117  -0.38920  -0.38809  -0.38635
 Alpha  occ. eigenvalues --   -0.38351  -0.38227  -0.37912  -0.37709  -0.37657
 Alpha  occ. eigenvalues --   -0.37449  -0.37236  -0.37152  -0.36999  -0.36740
 Alpha  occ. eigenvalues --   -0.36718  -0.36460  -0.36291  -0.36170  -0.35934
 Alpha  occ. eigenvalues --   -0.35707  -0.35656  -0.35273  -0.35127  -0.34986
 Alpha  occ. eigenvalues --   -0.34834  -0.34782  -0.34332  -0.34165  -0.33880
 Alpha  occ. eigenvalues --   -0.33482  -0.33124  -0.32890  -0.32883  -0.32280
 Alpha  occ. eigenvalues --   -0.32195  -0.32138  -0.32111  -0.31484  -0.30921
 Alpha  occ. eigenvalues --   -0.30193  -0.29972  -0.29797  -0.29448  -0.29227
 Alpha  occ. eigenvalues --   -0.28894  -0.28850  -0.28741  -0.26988  -0.25816
 Alpha  occ. eigenvalues --   -0.25420  -0.25245  -0.25089  -0.24789  -0.21442
 Alpha  occ. eigenvalues --   -0.19081
 Alpha virt. eigenvalues --   -0.11569  -0.05724  -0.03601  -0.02119  -0.00638
 Alpha virt. eigenvalues --   -0.00369  -0.00079   0.00294   0.01145   0.02930
 Alpha virt. eigenvalues --    0.04215   0.04352   0.04422   0.05188   0.05452

 Mulliken charges:
               1
     1  Mg   0.984473
     2  C   -0.084300
     3  C   -0.070246
     4  C   -0.058649
     5  C   -0.101121
     6  N   -0.461993
     7  C    0.027259
     8  C   -0.084739
     9  C   -0.153840
    10  C    0.137667
    11  C    0.013937
    12  C   -0.016985
    13  C    0.017327
    14  C    0.195854
    15  O   -0.273359
    16  O   -0.333666
    17  N   -0.567282
    18  C    0.190024
    19  C   -0.181959
    20  C   -0.098980
    21  C    0.220458
    22  C    0.083656
    23  C    0.024980
    24  O   -0.230580
    25  C   -0.015599
    26  N   -0.374859
    27  C    0.051823
    28  C   -0.112884
    29  C   -0.138405
    30  C    0.050820
    31  C    0.004260
    32  C   -0.011140
    33  C   -0.049451
    34  N   -0.406028
    35  C    0.176062
    36  C   -0.196841
    37  C   -0.026858
    38  C    0.186373
    39  C    0.074701
    40  C    0.117038
    41  O   -0.231540
    42  C   -0.057715
    43  C    0.320580
    44  O   -0.256189
    45  O   -0.407874
    46  C    0.122621
    47  C    0.190775
    48  C   -0.145124
    49  C   -0.200370
    50  C    0.025459
    51  C    0.029519
    52  C   -0.049678
    53  C   -0.003227
    54  C   -0.217912
    55  C   -0.043448
    56  C   -0.024427
    57  C   -0.064458
    58  C    0.040239
    59  C   -0.221367
    60  C   -0.000529
    61  C   -0.041845
    62  C   -0.045495
    63  C    0.006004
    64  C   -0.289310
    65  C   -0.026362
    66  C    0.006091
    67  H    0.024588
    68  H   -0.001036
    69  H    0.018148
    70  H    0.068664
    71  H    0.061010
    72  H    0.046082
    73  H    0.049019
    74  H    0.046891
    75  H    0.045000
    76  H    0.059508
    77  H    0.049373
    78  H    0.080085
    79  H    0.029168
    80  H    0.059967
    81  H    0.070401
    82  H    0.069027
    83  H    0.066167
    84  H    0.049494
    85  H    0.047058
    86  H    0.033889
    87  H    0.046806
    88  H    0.039015
    89  H    0.048380
    90  H    0.042205
    91  H    0.040315
    92  H    0.046216
    93  H    0.043705
    94  H    0.029484
    95  H    0.051275
    96  H    0.046517
    97  H    0.061390
    98  H    0.071820
    99  H    0.056430
   100  H    0.068058
   101  H    0.076616
   102  H    0.036862
   103  H    0.051677
   104  H    0.035335
   105  H    0.049015
   106  H    0.054839
   107  H    0.039959
   108  H    0.031096
   109  H    0.039479
   110  H    0.032265
   111  H    0.034895
   112  H    0.017516
   113  H    0.028549
   114  H    0.040987
   115  H    0.038513
   116  H    0.042297
   117  H    0.034177
   118  H    0.026499
   119  H    0.032699
   120  H    0.025362
   121  H    0.030334
   122  H    0.030764
   123  H    0.027946
   124  H    0.041480
   125  H    0.027109
   126  H    0.039572
   127  H    0.031825
   128  H    0.029766
   129  H    0.024874
   130  H    0.024550
   131  H    0.036538
   132  H    0.032634
   133  H    0.026482
   134  H    0.044409
   135  H    0.045279
   136  H    0.023077
   137  H    0.035323
   138  H    0.030134
   139  H    0.027648
   140  H    0.036135
 Sum of Mulliken charges =  -0.00000

 Dipole moment (field-independent basis, Debye):
    X=              1.3907    Y=              2.3716    Z=              1.9251  Tot=              3.3563
 Quadrupole moment (field-independent basis, Debye-Ang):
   XX=           -333.5718   YY=           -445.6193   ZZ=           -393.2803
   XY=              9.3509   XZ=             15.4790   YZ=             24.2975

 Normal termination of Gaussian 16 at Thu May  5 13:46:55 2022.
