 Gaussian 16, Revision A.03,
 Gaussian 16:  ES64L-G16RevA.03 25-Dec-2016

 --------------------------------
 #p wB97XD/Def2SVP td=(nstates=5)
 --------------------------------

 ---------------------------------------------------
 step_901_chromophore_5 TDDFT with wB97XD functional
 ---------------------------------------------------
 Symbolic Z-matrix:
 Charge =  0 Multiplicity = 1

                         Standard orientation:
 ---------------------------------------------------------------------
 Center     Atomic      Atomic             Coordinates (Angstroms)
 Number     Number       Type             X           Y           Z
 ---------------------------------------------------------------------
      1         12           0        5.396381    0.503783   -0.261492
      2          6           0        3.746131   -2.551983   -0.040504
      3          6           0        2.900191    1.775716   -2.195558
      4          6           0        6.986810    3.406720    0.127279
      5          6           0        7.461235   -0.875941    2.534745
      6          7           0        3.601355   -0.334040   -0.869244
      7          6           0        3.110869   -1.618403   -0.800146
      8          6           0        1.921994   -1.825125   -1.689052
      9          6           0        1.826154   -0.415605   -2.472874
     10          6           0        2.876732    0.418688   -1.816063
     11          6           0        2.109836   -0.597966   -3.961504
     12          6           0        0.626118   -2.200693   -0.763477
     13          6           0       -0.269879   -3.322540   -1.379840
     14          6           0       -1.405009   -2.768086   -2.195951
     15          8           0       -1.187017   -2.075393   -3.168413
     16          8           0       -2.632843   -2.929621   -1.583771
     17          7           0        4.996199    2.327514   -0.963735
     18          6           0        3.913207    2.683952   -1.731570
     19          6           0        4.050801    4.027581   -2.159341
     20          6           0        5.205722    4.556068   -1.523401
     21          6           0        5.837922    3.425268   -0.741142
     22          6           0        3.052734    4.801272   -3.074810
     23          6           0        5.755487    5.962233   -1.754981
     24          8           0        5.208234    6.713423   -2.541353
     25          6           0        6.996348    6.478773   -1.039006
     26          7           0        7.067828    1.117229    1.015625
     27          6           0        7.519429    2.384434    0.991843
     28          6           0        8.594807    2.676192    2.088441
     29          6           0        8.447247    1.438849    3.043543
     30          6           0        7.733531    0.424063    2.058103
     31          6           0       10.008356    3.053321    1.507750
     32          6           0        7.598897    1.728328    4.274701
     33          6           0        8.247218    2.388887    5.521531
     34          7           0        5.650221   -1.322247    0.941993
     35          6           0        6.460386   -1.692750    2.002831
     36          6           0        6.295371   -3.075485    2.326416
     37          6           0        5.272949   -3.514711    1.454748
     38          6           0        4.928335   -2.419374    0.690197
     39          6           0        7.077122   -3.869167    3.259481
     40          6           0        4.451354   -4.618081    1.065067
     41          8           0        4.416392   -5.774259    1.490529
     42          6           0        3.440657   -4.109507    0.053557
     43          6           0        3.587026   -4.802944   -1.266232
     44          8           0        2.694083   -5.307910   -1.942671
     45          8           0        4.915927   -4.826366   -1.728167
     46          6           0        5.278756   -5.685846   -2.893525
     47          6           0       -3.671019   -2.280861   -2.326922
     48          6           0       -3.954786   -0.883625   -1.698035
     49          6           0       -4.833372   -0.592606   -0.632457
     50          6           0       -5.608478   -1.646989    0.136414
     51          6           0       -5.038662    0.849619   -0.230654
     52          6           0       -6.472350    1.429871   -0.594138
     53          6           0       -7.126263    2.183836    0.603008
     54          6           0       -8.629773    1.897435    0.878122
     55          6           0       -9.379643    3.265295    1.124827
     56          6           0       -8.679486    0.785696    1.997671
     57          6           0       -9.632920   -0.423610    1.735356
     58          6           0      -10.705284   -0.695650    2.826698
     59          6           0      -12.170830   -0.625812    2.303515
     60          6           0      -12.992245   -1.765251    2.938741
     61          6           0      -12.869782    0.767654    2.643154
     62          6           0      -14.073967    1.043425    1.678151
     63          6           0      -13.677669    1.833752    0.436219
     64          6           0      -13.830526    0.892567   -0.885746
     65          6           0      -12.663314    1.237875   -1.822231
     66          6           0      -15.123532    1.194613   -1.640203
     67          1           0        2.208496    2.087559   -2.981032
     68          1           0        7.563603    4.309223    0.340158
     69          1           0        8.155401   -1.117590    3.342211
     70          1           0        2.118714   -2.679237   -2.336907
     71          1           0        0.806121   -0.039594   -2.387047
     72          1           0        2.119741   -1.655102   -4.229445
     73          1           0        3.038961   -0.104450   -4.247418
     74          1           0        1.266989   -0.182385   -4.513628
     75          1           0        0.064605   -1.272042   -0.867157
     76          1           0        0.782490   -2.288450    0.311362
     77          1           0       -0.708540   -3.972077   -0.622499
     78          1           0        0.388334   -3.890176   -2.037957
     79          1           0        2.061552    4.478085   -2.756599
     80          1           0        3.192785    4.436257   -4.091928
     81          1           0        2.940929    5.868510   -2.879362
     82          1           0        7.873228    5.987294   -1.461182
     83          1           0        6.823423    6.369500    0.030756
     84          1           0        7.107500    7.542740   -1.247004
     85          1           0        8.369956    3.519224    2.741946
     86          1           0        9.400539    0.941777    3.224855
     87          1           0        9.976307    4.023548    1.012501
     88          1           0       10.394761    2.386863    0.736889
     89          1           0       10.738298    3.012210    2.317028
     90          1           0        7.065251    0.805653    4.499591
     91          1           0        6.822584    2.433684    3.977311
     92          1           0        7.696156    2.300029    6.458362
     93          1           0        8.486494    3.442596    5.379298
     94          1           0        9.164110    1.867159    5.793087
     95          1           0        6.778911   -3.696063    4.293701
     96          1           0        8.123787   -3.586117    3.147134
     97          1           0        6.938650   -4.939385    3.100769
     98          1           0        2.439563   -4.232877    0.466462
     99          1           0        6.034508   -5.189069   -3.502988
    100          1           0        4.465706   -5.828128   -3.604878
    101          1           0        5.657564   -6.579658   -2.398782
    102          1           0       -4.612081   -2.831572   -2.311369
    103          1           0       -3.503701   -2.213108   -3.402121
    104          1           0       -3.346010   -0.161024   -2.241393
    105          1           0       -6.674874   -1.458114    0.006909
    106          1           0       -5.357414   -1.658863    1.197355
    107          1           0       -5.442339   -2.656751   -0.237228
    108          1           0       -4.297661    1.469371   -0.736654
    109          1           0       -4.817220    0.930140    0.833542
    110          1           0       -7.105481    0.645499   -1.009679
    111          1           0       -6.411639    2.088718   -1.459941
    112          1           0       -7.014355    3.241094    0.365271
    113          1           0       -6.557640    2.058163    1.523993
    114          1           0       -9.082327    1.484698   -0.023244
    115          1           0      -10.373439    2.845718    1.276040
    116          1           0       -9.420008    4.011383    0.330049
    117          1           0       -9.196506    3.897882    1.993620
    118          1           0       -8.961500    1.303088    2.914566
    119          1           0       -7.687122    0.365550    2.162593
    120          1           0       -8.902598   -1.229036    1.813893
    121          1           0       -9.922794   -0.366891    0.686648
    122          1           0      -10.528243    0.018116    3.631228
    123          1           0      -10.468571   -1.698833    3.181090
    124          1           0      -12.224729   -0.641817    1.215045
    125          1           0      -13.899596   -1.316102    3.343899
    126          1           0      -12.496515   -2.314310    3.739475
    127          1           0      -13.335759   -2.478123    2.190129
    128          1           0      -12.159664    1.592499    2.577274
    129          1           0      -13.249779    0.744872    3.663924
    130          1           0      -14.721162    1.689836    2.271436
    131          1           0      -14.603306    0.147738    1.354013
    132          1           0      -12.657515    2.209479    0.519816
    133          1           0      -14.378510    2.656012    0.296228
    134          1           0      -13.772377   -0.170973   -0.654165
    135          1           0      -12.885926    2.015601   -2.552084
    136          1           0      -12.520942    0.317535   -2.390726
    137          1           0      -11.733680    1.364144   -1.267851
    138          1           0      -15.763998    0.313607   -1.693778
    139          1           0      -14.939297    1.435201   -2.687478
    140          1           0      -15.680878    2.026245   -1.208232
 ---------------------------------------------------------------------

 SCF Done:  E(RwB97XD) =  -3007.87076327     A.U. after   19 cycles

 Excitation energies and oscillator strengths:

 Excited State   1:      Singlet-A      1.6324 eV  759.50 nm  f=0.3719  <S**2>=0.000
     245 -> 248       -0.17697
     246 -> 247        0.68481
     245 <- 248       -0.11460
 This state for optimization and/or second-order correction.
 Total Energy, E(TD-HF/TD-DFT) =  -3007.81077222
 Copying the excited state density for this state as the 1-particle RhoCI density.

 Excited State   2:      Singlet-A      2.1905 eV  566.00 nm  f=0.1081  <S**2>=0.000
     245 -> 247        0.62977
     246 -> 248        0.30205

 Excited State   3:      Singlet-A      3.3000 eV  375.70 nm  f=0.0016  <S**2>=0.000
     240 -> 247        0.21937
     241 -> 247       -0.23109
     242 -> 247        0.12032
     243 -> 247        0.33293
     244 -> 247        0.49762

 Excited State   4:      Singlet-A      3.4202 eV  362.51 nm  f=0.0631  <S**2>=0.000
     240 -> 247       -0.28353
     241 -> 247        0.44551
     242 -> 247       -0.10501
     243 -> 247        0.15470
     244 -> 247        0.22863
     246 -> 248        0.30849

 Excited State   5:      Singlet-A      3.4578 eV  358.56 nm  f=0.0108  <S**2>=0.000
     240 -> 247        0.45591
     240 -> 248        0.11735
     240 -> 249       -0.17501
     240 -> 250        0.18148
     241 -> 247        0.31730
     241 -> 248        0.12074
     241 -> 249       -0.17043
     241 -> 250        0.19206

 The electronic state is 1-A.
 Alpha  occ. eigenvalues --  -46.94737 -19.30525 -19.29311 -19.24979 -19.24686
 Alpha  occ. eigenvalues --  -19.23735 -19.23014 -14.47558 -14.46942 -14.44982
 Alpha  occ. eigenvalues --  -14.43230 -10.43795 -10.42716 -10.39037 -10.37982
 Alpha  occ. eigenvalues --  -10.36468 -10.36146 -10.35628 -10.35498 -10.34963
 Alpha  occ. eigenvalues --  -10.34747 -10.34681 -10.34632 -10.32855 -10.32806
 Alpha  occ. eigenvalues --  -10.32609 -10.32583 -10.32571 -10.32254 -10.32156
 Alpha  occ. eigenvalues --  -10.32089 -10.31970 -10.31766 -10.31736 -10.31466
 Alpha  occ. eigenvalues --  -10.31391 -10.31319 -10.31313 -10.31283 -10.30788
 Alpha  occ. eigenvalues --  -10.30724 -10.30390 -10.30345 -10.30103 -10.30054
 Alpha  occ. eigenvalues --  -10.30017 -10.29977 -10.29799 -10.29735 -10.29715
 Alpha  occ. eigenvalues --  -10.29709 -10.29574 -10.29336 -10.29023 -10.28896
 Alpha  occ. eigenvalues --  -10.28831 -10.28825 -10.28701 -10.28659 -10.28540
 Alpha  occ. eigenvalues --  -10.28424 -10.28414 -10.28070 -10.28069 -10.27981
 Alpha  occ. eigenvalues --  -10.27905  -3.20826  -1.94407  -1.93941  -1.93819
 Alpha  occ. eigenvalues --   -1.18981  -1.16849  -1.12510  -1.10823  -1.10700
 Alpha  occ. eigenvalues --   -1.08631  -1.06112  -1.05135  -1.04844  -1.04010
 Alpha  occ. eigenvalues --   -0.94672  -0.91347  -0.91158  -0.90857  -0.90545
 Alpha  occ. eigenvalues --   -0.90084  -0.89726  -0.89371  -0.88975  -0.88642
 Alpha  occ. eigenvalues --   -0.87799  -0.87086  -0.85703  -0.85469  -0.85229
 Alpha  occ. eigenvalues --   -0.83866  -0.83715  -0.83056  -0.82448  -0.82377
 Alpha  occ. eigenvalues --   -0.81443  -0.79920  -0.79521  -0.78955  -0.78461
 Alpha  occ. eigenvalues --   -0.77638  -0.77118  -0.76925  -0.76494  -0.75698
 Alpha  occ. eigenvalues --   -0.75094  -0.74024  -0.73595  -0.71943  -0.71673
 Alpha  occ. eigenvalues --   -0.70682  -0.70110  -0.69510  -0.68513  -0.67329
 Alpha  occ. eigenvalues --   -0.67053  -0.66789  -0.66527  -0.66317  -0.65723
 Alpha  occ. eigenvalues --   -0.65401  -0.65124  -0.64498  -0.64422  -0.62048
 Alpha  occ. eigenvalues --   -0.61363  -0.61156  -0.60987  -0.60653  -0.59898
 Alpha  occ. eigenvalues --   -0.59345  -0.58818  -0.58121  -0.57429  -0.57167
 Alpha  occ. eigenvalues --   -0.56632  -0.56460  -0.56231  -0.55828  -0.55509
 Alpha  occ. eigenvalues --   -0.55389  -0.55007  -0.54660  -0.54553  -0.54466
 Alpha  occ. eigenvalues --   -0.54250  -0.53959  -0.53843  -0.53614  -0.53559
 Alpha  occ. eigenvalues --   -0.53123  -0.53055  -0.52721  -0.52563  -0.52494
 Alpha  occ. eigenvalues --   -0.52009  -0.51782  -0.51616  -0.51535  -0.51345
 Alpha  occ. eigenvalues --   -0.51253  -0.51048  -0.50655  -0.50606  -0.50556
 Alpha  occ. eigenvalues --   -0.50420  -0.50328  -0.50184  -0.50033  -0.49605
 Alpha  occ. eigenvalues --   -0.49460  -0.49171  -0.49141  -0.48720  -0.48318
 Alpha  occ. eigenvalues --   -0.48081  -0.47800  -0.47791  -0.47631  -0.47585
 Alpha  occ. eigenvalues --   -0.47248  -0.47083  -0.46918  -0.46826  -0.46646
 Alpha  occ. eigenvalues --   -0.46360  -0.46280  -0.46104  -0.45948  -0.45707
 Alpha  occ. eigenvalues --   -0.45497  -0.45313  -0.45170  -0.44887  -0.44809
 Alpha  occ. eigenvalues --   -0.44597  -0.44505  -0.44305  -0.44060  -0.43865
 Alpha  occ. eigenvalues --   -0.43815  -0.43502  -0.43410  -0.43251  -0.43025
 Alpha  occ. eigenvalues --   -0.42795  -0.42684  -0.42372  -0.42096  -0.41959
 Alpha  occ. eigenvalues --   -0.41862  -0.41820  -0.41419  -0.41128  -0.40950
 Alpha  occ. eigenvalues --   -0.40372  -0.40166  -0.39938  -0.39867  -0.39335
 Alpha  occ. eigenvalues --   -0.39216  -0.39132  -0.38988  -0.38464  -0.37933
 Alpha  occ. eigenvalues --   -0.37096  -0.36877  -0.36608  -0.36365  -0.36113
 Alpha  occ. eigenvalues --   -0.35802  -0.35793  -0.35584  -0.33588  -0.32724
 Alpha  occ. eigenvalues --   -0.32582  -0.32301  -0.31447  -0.31411  -0.26489
 Alpha  occ. eigenvalues --   -0.23269
 Alpha virt. eigenvalues --   -0.07466  -0.00319   0.02735   0.04395   0.05536
 Alpha virt. eigenvalues --    0.06112   0.06747   0.06955   0.08024   0.09382
 Alpha virt. eigenvalues --    0.10624   0.10937   0.11272   0.11836   0.12123

 Mulliken charges:
               1
     1  Mg   0.973537
     2  C   -0.088607
     3  C   -0.102062
     4  C   -0.064518
     5  C   -0.108460
     6  N   -0.431438
     7  C    0.003550
     8  C   -0.058939
     9  C   -0.128307
    10  C    0.136925
    11  C    0.022030
    12  C   -0.004931
    13  C    0.037048
    14  C    0.184654
    15  O   -0.271551
    16  O   -0.334078
    17  N   -0.536149
    18  C    0.189941
    19  C   -0.177824
    20  C   -0.091081
    21  C    0.215142
    22  C    0.097456
    23  C    0.021405
    24  O   -0.225152
    25  C   -0.002950
    26  N   -0.342980
    27  C    0.035886
    28  C   -0.086697
    29  C   -0.110050
    30  C    0.026443
    31  C    0.013854
    32  C    0.003891
    33  C   -0.034286
    34  N   -0.369142
    35  C    0.164097
    36  C   -0.191147
    37  C   -0.026227
    38  C    0.165016
    39  C    0.083235
    40  C    0.095816
    41  O   -0.223017
    42  C   -0.018014
    43  C    0.296067
    44  O   -0.249728
    45  O   -0.407867
    46  C    0.137644
    47  C    0.210571
    48  C   -0.157318
    49  C   -0.185707
    50  C    0.039990
    51  C    0.046100
    52  C   -0.038024
    53  C    0.014784
    54  C   -0.186489
    55  C   -0.018778
    56  C   -0.010008
    57  C   -0.045466
    58  C    0.055548
    59  C   -0.187278
    60  C    0.010286
    61  C   -0.018352
    62  C   -0.028521
    63  C    0.027996
    64  C   -0.260383
    65  C   -0.006959
    66  C    0.015547
    67  H    0.021140
    68  H   -0.012699
    69  H    0.014428
    70  H    0.049117
    71  H    0.052378
    72  H    0.041970
    73  H    0.041729
    74  H    0.042603
    75  H    0.032990
    76  H    0.053712
    77  H    0.045727
    78  H    0.071126
    79  H    0.023359
    80  H    0.056663
    81  H    0.068453
    82  H    0.064967
    83  H    0.061494
    84  H    0.049027
    85  H    0.035264
    86  H    0.024160
    87  H    0.040706
    88  H    0.033564
    89  H    0.043426
    90  H    0.033283
    91  H    0.029912
    92  H    0.041210
    93  H    0.037131
    94  H    0.022414
    95  H    0.045716
    96  H    0.039674
    97  H    0.058134
    98  H    0.064256
    99  H    0.052179
   100  H    0.064280
   101  H    0.073030
   102  H    0.030901
   103  H    0.047137
   104  H    0.032250
   105  H    0.039481
   106  H    0.050063
   107  H    0.034810
   108  H    0.025041
   109  H    0.030459
   110  H    0.021285
   111  H    0.028938
   112  H    0.009353
   113  H    0.017767
   114  H    0.024608
   115  H    0.017431
   116  H    0.037351
   117  H    0.028924
   118  H    0.015886
   119  H    0.021678
   120  H    0.016923
   121  H    0.019950
   122  H    0.021488
   123  H    0.020142
   124  H    0.019886
   125  H    0.019376
   126  H    0.034417
   127  H    0.026901
   128  H    0.014511
   129  H    0.016210
   130  H    0.017846
   131  H    0.024928
   132  H    0.013784
   133  H    0.017988
   134  H    0.033509
   135  H    0.038830
   136  H    0.016379
   137  H    0.025267
   138  H    0.024819
   139  H    0.021119
   140  H    0.029864
 Sum of Mulliken charges =  -0.00000

 Dipole moment (field-independent basis, Debye):
    X=              1.4676    Y=              2.9536    Z=              1.6367  Tot=              3.6819
 Quadrupole moment (field-independent basis, Debye-Ang):
   XX=           -333.2965   YY=           -443.6548   ZZ=           -393.1517
   XY=             12.7371   XZ=             13.5525   YZ=             23.9013

 Normal termination of Gaussian 16 at Thu May  5 14:14:30 2022.
