 Gaussian 16, Revision A.03,
 Gaussian 16:  ES64L-G16RevA.03 25-Dec-2016

 --------------------
 #p ZINDO=(nstates=5)
 --------------------

 ----------------------------
 step_901_chromophore_5 ZINDO
 ----------------------------
 Symbolic Z-matrix:
 Charge =  0 Multiplicity = 1

                         Standard orientation:
 ---------------------------------------------------------------------
 Center     Atomic      Atomic             Coordinates (Angstroms)
 Number     Number       Type             X           Y           Z
 ---------------------------------------------------------------------
      1         12           0        5.396381    0.503783   -0.261492
      2          6           0        3.746131   -2.551983   -0.040504
      3          6           0        2.900191    1.775716   -2.195558
      4          6           0        6.986810    3.406720    0.127279
      5          6           0        7.461235   -0.875941    2.534745
      6          7           0        3.601355   -0.334040   -0.869244
      7          6           0        3.110869   -1.618403   -0.800146
      8          6           0        1.921994   -1.825125   -1.689052
      9          6           0        1.826154   -0.415605   -2.472874
     10          6           0        2.876732    0.418688   -1.816063
     11          6           0        2.109836   -0.597966   -3.961504
     12          6           0        0.626118   -2.200693   -0.763477
     13          6           0       -0.269879   -3.322540   -1.379840
     14          6           0       -1.405009   -2.768086   -2.195951
     15          8           0       -1.187017   -2.075393   -3.168413
     16          8           0       -2.632843   -2.929621   -1.583771
     17          7           0        4.996199    2.327514   -0.963735
     18          6           0        3.913207    2.683952   -1.731570
     19          6           0        4.050801    4.027581   -2.159341
     20          6           0        5.205722    4.556068   -1.523401
     21          6           0        5.837922    3.425268   -0.741142
     22          6           0        3.052734    4.801272   -3.074810
     23          6           0        5.755487    5.962233   -1.754981
     24          8           0        5.208234    6.713423   -2.541353
     25          6           0        6.996348    6.478773   -1.039006
     26          7           0        7.067828    1.117229    1.015625
     27          6           0        7.519429    2.384434    0.991843
     28          6           0        8.594807    2.676192    2.088441
     29          6           0        8.447247    1.438849    3.043543
     30          6           0        7.733531    0.424063    2.058103
     31          6           0       10.008356    3.053321    1.507750
     32          6           0        7.598897    1.728328    4.274701
     33          6           0        8.247218    2.388887    5.521531
     34          7           0        5.650221   -1.322247    0.941993
     35          6           0        6.460386   -1.692750    2.002831
     36          6           0        6.295371   -3.075485    2.326416
     37          6           0        5.272949   -3.514711    1.454748
     38          6           0        4.928335   -2.419374    0.690197
     39          6           0        7.077122   -3.869167    3.259481
     40          6           0        4.451354   -4.618081    1.065067
     41          8           0        4.416392   -5.774259    1.490529
     42          6           0        3.440657   -4.109507    0.053557
     43          6           0        3.587026   -4.802944   -1.266232
     44          8           0        2.694083   -5.307910   -1.942671
     45          8           0        4.915927   -4.826366   -1.728167
     46          6           0        5.278756   -5.685846   -2.893525
     47          6           0       -3.671019   -2.280861   -2.326922
     48          6           0       -3.954786   -0.883625   -1.698035
     49          6           0       -4.833372   -0.592606   -0.632457
     50          6           0       -5.608478   -1.646989    0.136414
     51          6           0       -5.038662    0.849619   -0.230654
     52          6           0       -6.472350    1.429871   -0.594138
     53          6           0       -7.126263    2.183836    0.603008
     54          6           0       -8.629773    1.897435    0.878122
     55          6           0       -9.379643    3.265295    1.124827
     56          6           0       -8.679486    0.785696    1.997671
     57          6           0       -9.632920   -0.423610    1.735356
     58          6           0      -10.705284   -0.695650    2.826698
     59          6           0      -12.170830   -0.625812    2.303515
     60          6           0      -12.992245   -1.765251    2.938741
     61          6           0      -12.869782    0.767654    2.643154
     62          6           0      -14.073967    1.043425    1.678151
     63          6           0      -13.677669    1.833752    0.436219
     64          6           0      -13.830526    0.892567   -0.885746
     65          6           0      -12.663314    1.237875   -1.822231
     66          6           0      -15.123532    1.194613   -1.640203
     67          1           0        2.208496    2.087559   -2.981032
     68          1           0        7.563603    4.309223    0.340158
     69          1           0        8.155401   -1.117590    3.342211
     70          1           0        2.118714   -2.679237   -2.336907
     71          1           0        0.806121   -0.039594   -2.387047
     72          1           0        2.119741   -1.655102   -4.229445
     73          1           0        3.038961   -0.104450   -4.247418
     74          1           0        1.266989   -0.182385   -4.513628
     75          1           0        0.064605   -1.272042   -0.867157
     76          1           0        0.782490   -2.288450    0.311362
     77          1           0       -0.708540   -3.972077   -0.622499
     78          1           0        0.388334   -3.890176   -2.037957
     79          1           0        2.061552    4.478085   -2.756599
     80          1           0        3.192785    4.436257   -4.091928
     81          1           0        2.940929    5.868510   -2.879362
     82          1           0        7.873228    5.987294   -1.461182
     83          1           0        6.823423    6.369500    0.030756
     84          1           0        7.107500    7.542740   -1.247004
     85          1           0        8.369956    3.519224    2.741946
     86          1           0        9.400539    0.941777    3.224855
     87          1           0        9.976307    4.023548    1.012501
     88          1           0       10.394761    2.386863    0.736889
     89          1           0       10.738298    3.012210    2.317028
     90          1           0        7.065251    0.805653    4.499591
     91          1           0        6.822584    2.433684    3.977311
     92          1           0        7.696156    2.300029    6.458362
     93          1           0        8.486494    3.442596    5.379298
     94          1           0        9.164110    1.867159    5.793087
     95          1           0        6.778911   -3.696063    4.293701
     96          1           0        8.123787   -3.586117    3.147134
     97          1           0        6.938650   -4.939385    3.100769
     98          1           0        2.439563   -4.232877    0.466462
     99          1           0        6.034508   -5.189069   -3.502988
    100          1           0        4.465706   -5.828128   -3.604878
    101          1           0        5.657564   -6.579658   -2.398782
    102          1           0       -4.612081   -2.831572   -2.311369
    103          1           0       -3.503701   -2.213108   -3.402121
    104          1           0       -3.346010   -0.161024   -2.241393
    105          1           0       -6.674874   -1.458114    0.006909
    106          1           0       -5.357414   -1.658863    1.197355
    107          1           0       -5.442339   -2.656751   -0.237228
    108          1           0       -4.297661    1.469371   -0.736654
    109          1           0       -4.817220    0.930140    0.833542
    110          1           0       -7.105481    0.645499   -1.009679
    111          1           0       -6.411639    2.088718   -1.459941
    112          1           0       -7.014355    3.241094    0.365271
    113          1           0       -6.557640    2.058163    1.523993
    114          1           0       -9.082327    1.484698   -0.023244
    115          1           0      -10.373439    2.845718    1.276040
    116          1           0       -9.420008    4.011383    0.330049
    117          1           0       -9.196506    3.897882    1.993620
    118          1           0       -8.961500    1.303088    2.914566
    119          1           0       -7.687122    0.365550    2.162593
    120          1           0       -8.902598   -1.229036    1.813893
    121          1           0       -9.922794   -0.366891    0.686648
    122          1           0      -10.528243    0.018116    3.631228
    123          1           0      -10.468571   -1.698833    3.181090
    124          1           0      -12.224729   -0.641817    1.215045
    125          1           0      -13.899596   -1.316102    3.343899
    126          1           0      -12.496515   -2.314310    3.739475
    127          1           0      -13.335759   -2.478123    2.190129
    128          1           0      -12.159664    1.592499    2.577274
    129          1           0      -13.249779    0.744872    3.663924
    130          1           0      -14.721162    1.689836    2.271436
    131          1           0      -14.603306    0.147738    1.354013
    132          1           0      -12.657515    2.209479    0.519816
    133          1           0      -14.378510    2.656012    0.296228
    134          1           0      -13.772377   -0.170973   -0.654165
    135          1           0      -12.885926    2.015601   -2.552084
    136          1           0      -12.520942    0.317535   -2.390726
    137          1           0      -11.733680    1.364144   -1.267851
    138          1           0      -15.763998    0.313607   -1.693778
    139          1           0      -14.939297    1.435201   -2.687478
    140          1           0      -15.680878    2.026245   -1.208232
 ---------------------------------------------------------------------

 SCF Done:  E(RZINDO/S) =  -473.967651431     A.U. after   19 cycles

 Excitation energies and oscillator strengths:

 Excited State   1:      Singlet-A      1.2730 eV  973.93 nm  f=0.5725  <S**2>=0.000
     175 ->178        -0.16586
     176 ->177         0.66823
 This state for optimization and/or second-order correction.
 Total Energy, E(CIS/TDA) =  -473.920868673
 Copying the excited state density for this state as the 1-particle RhoCI density.

 Excited State   2:      Singlet-A      1.9576 eV  633.34 nm  f=0.0447  <S**2>=0.000
     175 ->177         0.53972
     176 ->178         0.42285

 Excited State   3:      Singlet-A      2.9121 eV  425.76 nm  f=0.0014  <S**2>=0.000
     168 ->177         0.33438
     168 ->178         0.18978
     168 ->179        -0.32983
     168 ->180        -0.32485
     168 ->185        -0.24018
     168 ->189         0.11148

 Excited State   4:      Singlet-A      3.0248 eV  409.89 nm  f=1.0849  <S**2>=0.000
     170 ->179         0.13734
     170 ->180        -0.10032
     175 ->177        -0.37164
     176 ->178         0.49977
     176 ->179        -0.10147

 Excited State   5:      Singlet-A      3.0396 eV  407.89 nm  f=0.1867  <S**2>=0.000
     170 ->177         0.25399
     170 ->179         0.33192
     170 ->180        -0.26943
     170 ->181         0.11220
     170 ->184        -0.12825
     170 ->185         0.12855
     170 ->187         0.13063
     170 ->188        -0.14936
     172 ->177        -0.13066
     175 ->177         0.13388
     176 ->178        -0.18306
     176 ->179         0.12538

 The electronic state is 1-A.
 Alpha  occ. eigenvalues --   -1.85048  -1.80352  -1.78583  -1.74532  -1.70614
 Alpha  occ. eigenvalues --   -1.69246  -1.63945  -1.60116  -1.59282  -1.57695
 Alpha  occ. eigenvalues --   -1.53303  -1.51532  -1.47349  -1.46981  -1.45708
 Alpha  occ. eigenvalues --   -1.44282  -1.40921  -1.39413  -1.38686  -1.38363
 Alpha  occ. eigenvalues --   -1.35310  -1.34610  -1.31818  -1.30708  -1.28420
 Alpha  occ. eigenvalues --   -1.27374  -1.26209  -1.22339  -1.19581  -1.18509
 Alpha  occ. eigenvalues --   -1.15882  -1.15385  -1.14448  -1.13518  -1.12489
 Alpha  occ. eigenvalues --   -1.11903  -1.10498  -1.09591  -1.05438  -1.04482
 Alpha  occ. eigenvalues --   -1.01690  -1.01048  -0.98780  -0.98365  -0.96270
 Alpha  occ. eigenvalues --   -0.95921  -0.95151  -0.94714  -0.93365  -0.92441
 Alpha  occ. eigenvalues --   -0.90690  -0.90198  -0.89690  -0.87722  -0.86118
 Alpha  occ. eigenvalues --   -0.85380  -0.84492  -0.82798  -0.82174  -0.80781
 Alpha  occ. eigenvalues --   -0.79458  -0.78613  -0.77543  -0.77046  -0.76566
 Alpha  occ. eigenvalues --   -0.76289  -0.75650  -0.73813  -0.73260  -0.73088
 Alpha  occ. eigenvalues --   -0.72681  -0.71895  -0.71420  -0.70823  -0.70265
 Alpha  occ. eigenvalues --   -0.70011  -0.69167  -0.68959  -0.67747  -0.67538
 Alpha  occ. eigenvalues --   -0.67016  -0.66651  -0.66454  -0.65789  -0.65676
 Alpha  occ. eigenvalues --   -0.65335  -0.65064  -0.64728  -0.64333  -0.64136
 Alpha  occ. eigenvalues --   -0.63694  -0.63443  -0.62934  -0.62556  -0.62006
 Alpha  occ. eigenvalues --   -0.61739  -0.61137  -0.60864  -0.60248  -0.59468
 Alpha  occ. eigenvalues --   -0.59097  -0.58818  -0.58671  -0.58165  -0.58052
 Alpha  occ. eigenvalues --   -0.57782  -0.57343  -0.57185  -0.56965  -0.56681
 Alpha  occ. eigenvalues --   -0.56401  -0.56170  -0.56015  -0.55546  -0.54608
 Alpha  occ. eigenvalues --   -0.54166  -0.53633  -0.53508  -0.53373  -0.53075
 Alpha  occ. eigenvalues --   -0.52944  -0.52714  -0.51830  -0.51802  -0.51231
 Alpha  occ. eigenvalues --   -0.51079  -0.50796  -0.50676  -0.50398  -0.50199
 Alpha  occ. eigenvalues --   -0.49847  -0.49798  -0.49650  -0.49336  -0.49091
 Alpha  occ. eigenvalues --   -0.48862  -0.48435  -0.48380  -0.48038  -0.47619
 Alpha  occ. eigenvalues --   -0.47429  -0.46995  -0.46959  -0.46771  -0.46405
 Alpha  occ. eigenvalues --   -0.46329  -0.46269  -0.46162  -0.45779  -0.45679
 Alpha  occ. eigenvalues --   -0.45418  -0.45107  -0.44881  -0.44327  -0.44145
 Alpha  occ. eigenvalues --   -0.43712  -0.43294  -0.42404  -0.42143  -0.41996
 Alpha  occ. eigenvalues --   -0.41842  -0.41259  -0.41024  -0.39237  -0.38309
 Alpha  occ. eigenvalues --   -0.38110  -0.37353  -0.35870  -0.35147  -0.34348
 Alpha  occ. eigenvalues --   -0.34279  -0.32659  -0.31936  -0.31509  -0.27298
 Alpha  occ. eigenvalues --   -0.22333
 Alpha virt. eigenvalues --   -0.08940  -0.02509  -0.00409   0.01056   0.01751
 Alpha virt. eigenvalues --    0.01945   0.02279   0.02811   0.04144   0.04197
 Alpha virt. eigenvalues --    0.05968   0.06291   0.07210   0.07577   0.07950

 Mulliken charges:
               1
     1  Mg   0.431322
     2  C   -0.060081
     3  C   -0.095664
     4  C   -0.080124
     5  C   -0.032477
     6  N   -0.299517
     7  C    0.130452
     8  C   -0.005975
     9  C    0.005948
    10  C    0.172066
    11  C   -0.046984
    12  C   -0.029735
    13  C    0.005586
    14  C    0.473827
    15  O   -0.526163
    16  O   -0.252812
    17  N   -0.324989
    18  C    0.146902
    19  C    0.042232
    20  C   -0.039548
    21  C    0.122014
    22  C   -0.041193
    23  C    0.325153
    24  O   -0.513998
    25  C   -0.028670
    26  N   -0.250916
    27  C    0.154926
    28  C    0.003023
    29  C    0.001615
    30  C    0.033342
    31  C   -0.049995
    32  C   -0.018850
    33  C   -0.058566
    34  N   -0.336947
    35  C    0.066075
    36  C    0.032676
    37  C   -0.070995
    38  C    0.127671
    39  C   -0.032895
    40  C    0.334780
    41  O   -0.544434
    42  C    0.055168
    43  C    0.489955
    44  O   -0.529014
    45  O   -0.288156
    46  C    0.076643
    47  C    0.098741
    48  C   -0.102409
    49  C   -0.002007
    50  C   -0.037811
    51  C   -0.018677
    52  C   -0.033359
    53  C   -0.037221
    54  C   -0.008763
    55  C   -0.065563
    56  C   -0.038116
    57  C   -0.048519
    58  C   -0.029686
    59  C   -0.014072
    60  C   -0.057642
    61  C   -0.039624
    62  C   -0.039044
    63  C   -0.041703
    64  C   -0.018407
    65  C   -0.061405
    66  C   -0.055013
    67  H    0.046115
    68  H    0.027648
    69  H    0.037712
    70  H    0.049709
    71  H    0.044850
    72  H    0.027944
    73  H    0.023771
    74  H    0.022288
    75  H    0.019071
    76  H    0.038869
    77  H    0.031692
    78  H    0.054558
    79  H    0.011673
    80  H    0.044659
    81  H    0.053567
    82  H    0.044367
    83  H    0.037324
    84  H    0.034412
    85  H    0.026149
    86  H    0.028541
    87  H    0.021330
    88  H    0.021271
    89  H    0.021943
    90  H    0.025584
    91  H    0.015302
    92  H    0.021185
    93  H    0.021189
    94  H    0.011616
    95  H    0.029879
    96  H    0.025004
    97  H    0.033114
    98  H    0.055410
    99  H    0.031375
   100  H    0.051911
   101  H    0.049610
   102  H    0.023782
   103  H    0.048602
   104  H    0.038714
   105  H    0.026852
   106  H    0.030574
   107  H    0.021943
   108  H    0.018038
   109  H    0.025884
   110  H    0.021196
   111  H    0.019216
   112  H    0.008488
   113  H    0.021339
   114  H    0.023078
   115  H    0.006471
   116  H    0.024456
   117  H    0.023771
   118  H    0.017320
   119  H    0.020580
   120  H    0.008547
   121  H    0.029938
   122  H    0.026270
   123  H    0.019156
   124  H    0.028528
   125  H    0.014693
   126  H    0.024365
   127  H    0.015195
   128  H    0.019332
   129  H    0.015896
   130  H    0.009385
   131  H    0.029013
   132  H    0.026513
   133  H    0.020717
   134  H    0.029870
   135  H    0.029037
   136  H    0.004032
   137  H    0.016586
   138  H    0.012053
   139  H    0.016013
   140  H    0.021534
 Sum of Mulliken charges =  -0.00000

 Dipole moment (field-independent basis, Debye):
    X=              1.7795    Y=              5.7829    Z=              1.9229  Tot=              6.3487
 N-N= 4.320440933204D+03 E-N= 0.000000000000D+00  KE=-9.315016021710D+03
 Leave Link  601 at Thu May  5 14:28:01 2022, MaxMem=  6710886400 cpu:               1.7 elap:               0.1
 (Enter /sw/apps/gaussian-16.0/g16/l9999.exe)
 1\1\GINC-BP1-COMPUTE159\SP\RZINDO CIS\STO-3G\C55H74Mg1N4O6\OF15641\05-
 May-2022\0\\#p ZINDO=(nstates=5)\\step_901_chromophore_5 ZINDO\\0,1\Mg
 ,0,24.684,-7.11,46.301\C,0,26.836,-4.811,44.82\C,0,22.183,-6.229,44.16
 6\C,0,23.061,-9.709,47.612\C,0,27.822,-8.429,47.85\N,0,24.673,-5.779,4
 4.713\C,0,25.581,-4.833,44.294\C,0,24.987,-3.863,43.318\C,0,23.432,-4.
 301,43.297\C,0,23.406,-5.529,44.147\C,0,22.547,-3.202,43.879\C,0,25.77
 2,-4.,41.889\C,0,26.045,-2.625,41.199\C,0,24.969,-2.251,40.217\O,0,23.

 Normal termination of Gaussian 16 at Thu May  5 14:28:01 2022.
