 Gaussian 16, Revision A.03,
 Gaussian 16:  ES64L-G16RevA.03 25-Dec-2016

 ------------------------------
 #p blyp/Def2SVP td=(nstates=5)
 ------------------------------

 ---------------------------------------------------
 step_1351_chromophore_17 TDDFT with blyp functional
 ---------------------------------------------------
 Symbolic Z-matrix:
 Charge =  0 Multiplicity = 1

                         Standard orientation:
 ---------------------------------------------------------------------
 Center     Atomic      Atomic             Coordinates (Angstroms)
 Number     Number       Type             X           Y           Z
 ---------------------------------------------------------------------
      1         12           0        4.609283    1.557987   -0.567070
      2          6           0        4.542711   -2.035426   -0.643895
      3          6           0        1.899174    1.446179   -2.774854
      4          6           0        3.966294    4.631686    0.153538
      5          6           0        6.909330    1.268161    2.102171
      6          7           0        3.308924   -0.092552   -1.462092
      7          6           0        3.518943   -1.445146   -1.335411
      8          6           0        2.523373   -2.186506   -2.190695
      9          6           0        2.131223   -1.113962   -3.278973
     10          6           0        2.422067    0.208311   -2.480072
     11          6           0        2.971018   -1.290712   -4.685413
     12          6           0        1.306830   -2.727463   -1.293347
     13          6           0        0.737762   -4.082038   -1.696851
     14          6           0        0.116650   -4.909023   -0.510744
     15          8           0        0.385479   -6.001051   -0.101844
     16          8           0       -0.951543   -4.144422   -0.014762
     17          7           0        3.229282    2.945105   -1.362775
     18          6           0        2.200056    2.684279   -2.224730
     19          6           0        1.536633    3.971332   -2.442562
     20          6           0        2.107188    4.977054   -1.609990
     21          6           0        3.186491    4.246784   -0.909562
     22          6           0        0.313127    4.089239   -3.338133
     23          6           0        1.658572    6.450712   -1.469762
     24          8           0        0.656952    6.843379   -2.034797
     25          6           0        2.364841    7.473976   -0.562699
     26          7           0        5.391414    2.764533    0.913084
     27          6           0        5.068628    4.085948    0.888175
     28          6           0        5.798942    4.847920    2.060105
     29          6           0        6.694586    3.745292    2.705868
     30          6           0        6.351261    2.511425    1.837893
     31          6           0        6.622251    6.231026    1.838723
     32          6           0        6.502818    3.589828    4.192188
     33          6           0        7.704843    3.469575    5.161881
     34          7           0        5.650079   -0.026866    0.504917
     35          6           0        6.621005    0.021186    1.518857
     36          6           0        7.086722   -1.288821    1.836487
     37          6           0        6.303034   -2.125423    1.020152
     38          6           0        5.510142   -1.304309    0.189473
     39          6           0        8.117015   -1.709582    2.830518
     40          6           0        6.063909   -3.579694    0.709557
     41          8           0        6.650762   -4.600333    1.132515
     42          6           0        4.880226   -3.536727   -0.336447
     43          6           0        5.269929   -4.264272   -1.630475
     44          8           0        6.012254   -3.834138   -2.527968
     45          8           0        4.852140   -5.570271   -1.637070
     46          6           0        5.337924   -6.433283   -2.685340
     47          6           0       -1.621808   -4.990100    1.034668
     48          6           0       -3.050967   -4.464806    1.369775
     49          6           0       -3.854589   -4.560229    2.499528
     50          6           0       -3.665829   -5.639578    3.586106
     51          6           0       -5.126272   -3.702647    2.693333
     52          6           0       -5.932086   -3.419116    1.402090
     53          6           0       -5.934273   -1.954822    0.945919
     54          6           0       -7.294358   -1.249347    0.929720
     55          6           0       -7.697638   -0.949227    2.388887
     56          6           0       -7.152156    0.071655    0.085019
     57          6           0       -8.013957    0.211168   -1.181421
     58          6           0       -8.653917    1.645313   -1.195061
     59          6           0      -10.152073    1.645857   -1.844863
     60          6           0      -10.124948    2.566188   -3.135479
     61          6           0      -11.307616    2.018679   -0.777614
     62          6           0      -12.454985    1.026953   -0.705781
     63          6           0      -12.985188    0.643725    0.734772
     64          6           0      -14.032030    1.665224    1.278060
     65          6           0      -13.346271    2.854938    1.983954
     66          6           0      -15.102904    0.996128    2.237906
     67          1           0        1.273203    1.456678   -3.668798
     68          1           0        3.858260    5.694679    0.382019
     69          1           0        7.636882    1.353165    2.911175
     70          1           0        3.038721   -3.022146   -2.663693
     71          1           0        1.080498   -1.187093   -3.562252
     72          1           0        3.788909   -1.976668   -4.463824
     73          1           0        3.314128   -0.272748   -4.871838
     74          1           0        2.267709   -1.679454   -5.421591
     75          1           0        0.657359   -1.862885   -1.429416
     76          1           0        1.581118   -2.696248   -0.238542
     77          1           0        1.583579   -4.631462   -2.109281
     78          1           0       -0.047691   -3.972401   -2.444646
     79          1           0        0.489972    3.480917   -4.225556
     80          1           0       -0.129612    5.074066   -3.484551
     81          1           0       -0.426369    3.617534   -2.692088
     82          1           0        2.294938    6.987707    0.410367
     83          1           0        1.754446    8.375385   -0.599016
     84          1           0        3.403109    7.591036   -0.873704
     85          1           0        4.930422    5.075841    2.677819
     86          1           0        7.718496    3.896113    2.364073
     87          1           0        6.144199    6.989952    2.457793
     88          1           0        6.462924    6.517251    0.798776
     89          1           0        7.677309    6.074220    2.062109
     90          1           0        5.859844    2.748488    4.447257
     91          1           0        6.069808    4.497751    4.611926
     92          1           0        7.763432    4.440015    5.653982
     93          1           0        8.625544    3.212561    4.638696
     94          1           0        7.474333    2.665139    5.860229
     95          1           0        8.754512   -2.512606    2.460450
     96          1           0        7.447457   -2.009381    3.636956
     97          1           0        8.639523   -0.819264    3.181075
     98          1           0        4.082798   -4.077833    0.173670
     99          1           0        5.821581   -7.340377   -2.322625
    100          1           0        6.031975   -6.051203   -3.433831
    101          1           0        4.446192   -6.768653   -3.213580
    102          1           0       -1.012415   -5.181264    1.918075
    103          1           0       -1.907162   -5.986185    0.695122
    104          1           0       -3.338982   -3.635218    0.723794
    105          1           0       -3.549499   -6.575966    3.040678
    106          1           0       -4.489120   -5.551245    4.294171
    107          1           0       -2.783509   -5.330432    4.147174
    108          1           0       -4.833335   -2.740048    3.113669
    109          1           0       -5.881721   -4.184350    3.313931
    110          1           0       -6.964647   -3.678135    1.634866
    111          1           0       -5.611011   -4.018763    0.550520
    112          1           0       -5.531618   -1.985601   -0.067611
    113          1           0       -5.179323   -1.396943    1.499008
    114          1           0       -7.997555   -1.940771    0.465273
    115          1           0       -8.234362   -1.787580    2.832434
    116          1           0       -8.342520   -0.074508    2.314964
    117          1           0       -6.897398   -0.683052    3.080349
    118          1           0       -6.118287    0.176520   -0.242015
    119          1           0       -7.345862    0.849811    0.822909
    120          1           0       -8.892945   -0.432853   -1.216008
    121          1           0       -7.401907    0.104593   -2.076846
    122          1           0       -7.948343    2.281227   -1.728702
    123          1           0       -8.748148    2.097896   -0.207772
    124          1           0      -10.254261    0.666965   -2.313266
    125          1           0      -11.186664    2.681622   -3.352700
    126          1           0       -9.623485    1.911071   -3.848685
    127          1           0       -9.615832    3.516690   -2.974264
    128          1           0      -11.789085    2.943602   -1.095850
    129          1           0      -10.855702    2.135496    0.207609
    130          1           0      -12.348788    0.146087   -1.338705
    131          1           0      -13.328822    1.459409   -1.192981
    132          1           0      -12.122628    0.630244    1.400729
    133          1           0      -13.272543   -0.400832    0.616378
    134          1           0      -14.595317    1.961213    0.393646
    135          1           0      -13.000531    3.667409    1.344254
    136          1           0      -12.505586    2.486853    2.571649
    137          1           0      -13.984412    3.234717    2.781629
    138          1           0      -16.101830    1.185736    1.846267
    139          1           0      -15.006358    1.295896    3.281919
    140          1           0      -15.035535   -0.090969    2.228265
 ---------------------------------------------------------------------

 SCF Done:  E(RB-LYP) =  -3007.36111881     A.U. after   23 cycles

 Excitation energies and oscillator strengths:

 Excited State   1:      Singlet-A      1.8212 eV  680.77 nm  f=0.3007  <S**2>=0.000
     245 -> 248        0.18248
     246 -> 247        0.68851
     246 <- 247       -0.14705
 This state for optimization and/or second-order correction.
 Total Energy, E(TD-HF/TD-DFT) =  -3007.29418969
 Copying the excited state density for this state as the 1-particle RhoCI density.

 Excited State   2:      Singlet-A      1.9216 eV  645.20 nm  f=0.0004  <S**2>=0.000
     244 -> 247        0.70685

 Excited State   3:      Singlet-A      1.9721 eV  628.69 nm  f=0.0024  <S**2>=0.000
     243 -> 247        0.69998

 Excited State   4:      Singlet-A      2.0081 eV  617.43 nm  f=0.0020  <S**2>=0.000
     242 -> 247        0.69494
     245 -> 247       -0.11233

 Excited State   5:      Singlet-A      2.0488 eV  605.15 nm  f=0.0652  <S**2>=0.000
     242 -> 247        0.12370
     245 -> 247        0.63191
     246 -> 248       -0.24089

 The electronic state is 1-A.
 Alpha  occ. eigenvalues --  -46.28138 -18.82439 -18.82075 -18.77945 -18.76297
 Alpha  occ. eigenvalues --  -18.76199 -18.76001 -14.03784 -14.03042 -14.01395
 Alpha  occ. eigenvalues --  -14.00653 -10.04469 -10.04064 -10.00607 -10.00497
 Alpha  occ. eigenvalues --   -9.98018  -9.97693  -9.96966  -9.96868  -9.96364
 Alpha  occ. eigenvalues --   -9.96332  -9.96250  -9.95974  -9.95338  -9.95128
 Alpha  occ. eigenvalues --   -9.94945  -9.94545  -9.94526  -9.94310  -9.94225
 Alpha  occ. eigenvalues --   -9.94155  -9.93923  -9.93812  -9.93653  -9.93406
 Alpha  occ. eigenvalues --   -9.93401  -9.93296  -9.93225  -9.93045  -9.92990
 Alpha  occ. eigenvalues --   -9.92968  -9.92905  -9.92878  -9.92701  -9.92526
 Alpha  occ. eigenvalues --   -9.92438  -9.92391  -9.92115  -9.91888  -9.91885
 Alpha  occ. eigenvalues --   -9.91793  -9.91687  -9.91649  -9.91235  -9.91131
 Alpha  occ. eigenvalues --   -9.91031  -9.91028  -9.90960  -9.90834  -9.90798
 Alpha  occ. eigenvalues --   -9.90764  -9.90736  -9.90709  -9.90600  -9.90592
 Alpha  occ. eigenvalues --   -9.90146  -2.92627  -1.73039  -1.72525  -1.72331
 Alpha  occ. eigenvalues --   -0.98068  -0.97410  -0.92418  -0.90380  -0.89995
 Alpha  occ. eigenvalues --   -0.88542  -0.86775  -0.85825  -0.85616  -0.84687
 Alpha  occ. eigenvalues --   -0.74419  -0.73058  -0.72849  -0.72221  -0.71968
 Alpha  occ. eigenvalues --   -0.71717  -0.71149  -0.70737  -0.70504  -0.69721
 Alpha  occ. eigenvalues --   -0.69443  -0.68516  -0.67781  -0.67611  -0.67257
 Alpha  occ. eigenvalues --   -0.65976  -0.65836  -0.65234  -0.65179  -0.64389
 Alpha  occ. eigenvalues --   -0.63728  -0.62670  -0.62106  -0.61788  -0.60726
 Alpha  occ. eigenvalues --   -0.60296  -0.59915  -0.59815  -0.58983  -0.58333
 Alpha  occ. eigenvalues --   -0.58100  -0.57146  -0.56838  -0.55247  -0.54833
 Alpha  occ. eigenvalues --   -0.53719  -0.53232  -0.52790  -0.52144  -0.51702
 Alpha  occ. eigenvalues --   -0.51173  -0.50945  -0.50497  -0.50387  -0.49801
 Alpha  occ. eigenvalues --   -0.49505  -0.49275  -0.48791  -0.48453  -0.46320
 Alpha  occ. eigenvalues --   -0.45864  -0.45718  -0.45169  -0.44729  -0.44601
 Alpha  occ. eigenvalues --   -0.43866  -0.43111  -0.42962  -0.42329  -0.42204
 Alpha  occ. eigenvalues --   -0.41737  -0.41630  -0.41319  -0.40820  -0.40709
 Alpha  occ. eigenvalues --   -0.40515  -0.40208  -0.40040  -0.40005  -0.39914
 Alpha  occ. eigenvalues --   -0.39798  -0.39603  -0.39568  -0.39293  -0.39060
 Alpha  occ. eigenvalues --   -0.39026  -0.38739  -0.38674  -0.38538  -0.38384
 Alpha  occ. eigenvalues --   -0.38276  -0.37945  -0.37923  -0.37332  -0.37273
 Alpha  occ. eigenvalues --   -0.37044  -0.36652  -0.36588  -0.36414  -0.36049
 Alpha  occ. eigenvalues --   -0.35956  -0.35937  -0.35779  -0.35709  -0.35660
 Alpha  occ. eigenvalues --   -0.35629  -0.35408  -0.35068  -0.35047  -0.34803
 Alpha  occ. eigenvalues --   -0.34511  -0.34374  -0.34308  -0.34150  -0.33994
 Alpha  occ. eigenvalues --   -0.33835  -0.33624  -0.33500  -0.33340  -0.33223
 Alpha  occ. eigenvalues --   -0.32706  -0.32645  -0.32267  -0.32261  -0.32212
 Alpha  occ. eigenvalues --   -0.32042  -0.31901  -0.31705  -0.31619  -0.31358
 Alpha  occ. eigenvalues --   -0.31197  -0.31065  -0.30860  -0.30763  -0.30472
 Alpha  occ. eigenvalues --   -0.30314  -0.30183  -0.30054  -0.29906  -0.29707
 Alpha  occ. eigenvalues --   -0.29536  -0.29359  -0.29063  -0.28955  -0.28742
 Alpha  occ. eigenvalues --   -0.28731  -0.28514  -0.28247  -0.28084  -0.28030
 Alpha  occ. eigenvalues --   -0.27561  -0.27205  -0.26961  -0.26705  -0.26670
 Alpha  occ. eigenvalues --   -0.26403  -0.26105  -0.25999  -0.25480  -0.25277
 Alpha  occ. eigenvalues --   -0.25035  -0.24387  -0.24303  -0.24104  -0.23512
 Alpha  occ. eigenvalues --   -0.22666  -0.22628  -0.22252  -0.21460  -0.20692
 Alpha  occ. eigenvalues --   -0.20304  -0.19079  -0.18981  -0.18863  -0.17635
 Alpha  occ. eigenvalues --   -0.16139
 Alpha virt. eigenvalues --   -0.11802  -0.07271  -0.06093  -0.04954  -0.03411
 Alpha virt. eigenvalues --   -0.02814  -0.02760  -0.02159  -0.01595  -0.00348
 Alpha virt. eigenvalues --    0.01040   0.01707   0.02172   0.02505   0.02944

 Mulliken charges:
               1
     1  Mg   0.691968
     2  C    0.045122
     3  C   -0.056281
     4  C   -0.037855
     5  C   -0.071314
     6  N   -0.207965
     7  C   -0.054190
     8  C   -0.049390
     9  C   -0.026328
    10  C    0.017079
    11  C    0.116701
    12  C    0.112024
    13  C    0.177896
    14  C    0.074567
    15  O   -0.146692
    16  O   -0.298414
    17  N   -0.299727
    18  C    0.147971
    19  C   -0.158544
    20  C    0.052721
    21  C    0.116973
    22  C    0.179001
    23  C   -0.100025
    24  O   -0.149252
    25  C    0.140010
    26  N   -0.245411
    27  C    0.014919
    28  C   -0.028788
    29  C    0.085993
    30  C   -0.055540
    31  C    0.123978
    32  C    0.085532
    33  C    0.054203
    34  N   -0.227407
    35  C    0.145958
    36  C   -0.181805
    37  C    0.008892
    38  C    0.055095
    39  C    0.199264
    40  C    0.017957
    41  O   -0.152030
    42  C    0.055599
    43  C    0.115384
    44  O   -0.206171
    45  O   -0.249942
    46  C    0.207851
    47  C    0.295693
    48  C   -0.090427
    49  C   -0.217156
    50  C    0.144785
    51  C    0.145125
    52  C    0.073622
    53  C    0.047653
    54  C   -0.063208
    55  C    0.107373
    56  C    0.124854
    57  C    0.078444
    58  C    0.048632
    59  C   -0.093962
    60  C    0.084533
    61  C    0.140373
    62  C    0.032677
    63  C    0.084647
    64  C   -0.066974
    65  C    0.114466
    66  C    0.095402
    67  H   -0.060658
    68  H   -0.086004
    69  H   -0.079283
    70  H   -0.020598
    71  H   -0.037831
    72  H    0.021260
    73  H   -0.001553
    74  H    0.006195
    75  H   -0.021711
    76  H   -0.009524
    77  H   -0.010721
    78  H    0.004562
    79  H    0.002720
    80  H    0.007511
    81  H   -0.001326
    82  H    0.020173
    83  H   -0.001188
    84  H    0.018656
    85  H   -0.011305
    86  H   -0.022022
    87  H   -0.001232
    88  H   -0.003220
    89  H    0.003231
    90  H   -0.010454
    91  H   -0.022306
    92  H   -0.002886
    93  H   -0.004581
    94  H   -0.004691
    95  H    0.028437
    96  H    0.009645
    97  H   -0.019988
    98  H    0.006485
    99  H    0.014862
   100  H    0.021047
   101  H    0.002809
   102  H    0.003803
   103  H    0.010593
   104  H   -0.025919
   105  H    0.018827
   106  H   -0.017514
   107  H    0.001335
   108  H   -0.006097
   109  H   -0.029159
   110  H   -0.040515
   111  H   -0.022139
   112  H   -0.042402
   113  H   -0.034576
   114  H   -0.038519
   115  H   -0.015683
   116  H   -0.017907
   117  H   -0.015514
   118  H   -0.037154
   119  H   -0.042490
   120  H   -0.017435
   121  H   -0.021271
   122  H   -0.035769
   123  H   -0.031449
   124  H   -0.029503
   125  H   -0.017396
   126  H   -0.011686
   127  H   -0.000444
   128  H   -0.027827
   129  H   -0.020581
   130  H   -0.039458
   131  H   -0.049217
   132  H   -0.034391
   133  H   -0.035469
   134  H   -0.034741
   135  H   -0.001791
   136  H   -0.023968
   137  H   -0.023254
   138  H   -0.013599
   139  H   -0.012608
   140  H   -0.027764
 Sum of Mulliken charges =  -0.00000

 Dipole moment (field-independent basis, Debye):
    X=             -0.4655    Y=              3.4307    Z=              1.4106  Tot=              3.7384
 Quadrupole moment (field-independent basis, Debye-Ang):
   XX=           -397.8063   YY=           -425.2647   ZZ=           -389.1403
   XY=             50.1969   XZ=              7.0458   YZ=             26.6271

 Normal termination of Gaussian 16 at Wed May  4 04:49:33 2022.
