 Gaussian 16, Revision A.03,
 Gaussian 16:  ES64L-G16RevA.03 25-Dec-2016

 -----------------------------------
 #p cam-b3lyp/Def2SVP td=(nstates=5)
 -----------------------------------

 --------------------------------------------------------
 step_1351_chromophore_17 TDDFT with cam-b3lyp functional
 --------------------------------------------------------
 Symbolic Z-matrix:
 Charge =  0 Multiplicity = 1

                         Standard orientation:
 ---------------------------------------------------------------------
 Center     Atomic      Atomic             Coordinates (Angstroms)
 Number     Number       Type             X           Y           Z
 ---------------------------------------------------------------------
      1         12           0        4.609283    1.557987   -0.567070
      2          6           0        4.542711   -2.035426   -0.643895
      3          6           0        1.899174    1.446179   -2.774854
      4          6           0        3.966294    4.631686    0.153538
      5          6           0        6.909330    1.268161    2.102171
      6          7           0        3.308924   -0.092552   -1.462092
      7          6           0        3.518943   -1.445146   -1.335411
      8          6           0        2.523373   -2.186506   -2.190695
      9          6           0        2.131223   -1.113962   -3.278973
     10          6           0        2.422067    0.208311   -2.480072
     11          6           0        2.971018   -1.290712   -4.685413
     12          6           0        1.306830   -2.727463   -1.293347
     13          6           0        0.737762   -4.082038   -1.696851
     14          6           0        0.116650   -4.909023   -0.510744
     15          8           0        0.385479   -6.001051   -0.101844
     16          8           0       -0.951543   -4.144422   -0.014762
     17          7           0        3.229282    2.945105   -1.362775
     18          6           0        2.200056    2.684279   -2.224730
     19          6           0        1.536633    3.971332   -2.442562
     20          6           0        2.107188    4.977054   -1.609990
     21          6           0        3.186491    4.246784   -0.909562
     22          6           0        0.313127    4.089239   -3.338133
     23          6           0        1.658572    6.450712   -1.469762
     24          8           0        0.656952    6.843379   -2.034797
     25          6           0        2.364841    7.473976   -0.562699
     26          7           0        5.391414    2.764533    0.913084
     27          6           0        5.068628    4.085948    0.888175
     28          6           0        5.798942    4.847920    2.060105
     29          6           0        6.694586    3.745292    2.705868
     30          6           0        6.351261    2.511425    1.837893
     31          6           0        6.622251    6.231026    1.838723
     32          6           0        6.502818    3.589828    4.192188
     33          6           0        7.704843    3.469575    5.161881
     34          7           0        5.650079   -0.026866    0.504917
     35          6           0        6.621005    0.021186    1.518857
     36          6           0        7.086722   -1.288821    1.836487
     37          6           0        6.303034   -2.125423    1.020152
     38          6           0        5.510142   -1.304309    0.189473
     39          6           0        8.117015   -1.709582    2.830518
     40          6           0        6.063909   -3.579694    0.709557
     41          8           0        6.650762   -4.600333    1.132515
     42          6           0        4.880226   -3.536727   -0.336447
     43          6           0        5.269929   -4.264272   -1.630475
     44          8           0        6.012254   -3.834138   -2.527968
     45          8           0        4.852140   -5.570271   -1.637070
     46          6           0        5.337924   -6.433283   -2.685340
     47          6           0       -1.621808   -4.990100    1.034668
     48          6           0       -3.050967   -4.464806    1.369775
     49          6           0       -3.854589   -4.560229    2.499528
     50          6           0       -3.665829   -5.639578    3.586106
     51          6           0       -5.126272   -3.702647    2.693333
     52          6           0       -5.932086   -3.419116    1.402090
     53          6           0       -5.934273   -1.954822    0.945919
     54          6           0       -7.294358   -1.249347    0.929720
     55          6           0       -7.697638   -0.949227    2.388887
     56          6           0       -7.152156    0.071655    0.085019
     57          6           0       -8.013957    0.211168   -1.181421
     58          6           0       -8.653917    1.645313   -1.195061
     59          6           0      -10.152073    1.645857   -1.844863
     60          6           0      -10.124948    2.566188   -3.135479
     61          6           0      -11.307616    2.018679   -0.777614
     62          6           0      -12.454985    1.026953   -0.705781
     63          6           0      -12.985188    0.643725    0.734772
     64          6           0      -14.032030    1.665224    1.278060
     65          6           0      -13.346271    2.854938    1.983954
     66          6           0      -15.102904    0.996128    2.237906
     67          1           0        1.273203    1.456678   -3.668798
     68          1           0        3.858260    5.694679    0.382019
     69          1           0        7.636882    1.353165    2.911175
     70          1           0        3.038721   -3.022146   -2.663693
     71          1           0        1.080498   -1.187093   -3.562252
     72          1           0        3.788909   -1.976668   -4.463824
     73          1           0        3.314128   -0.272748   -4.871838
     74          1           0        2.267709   -1.679454   -5.421591
     75          1           0        0.657359   -1.862885   -1.429416
     76          1           0        1.581118   -2.696248   -0.238542
     77          1           0        1.583579   -4.631462   -2.109281
     78          1           0       -0.047691   -3.972401   -2.444646
     79          1           0        0.489972    3.480917   -4.225556
     80          1           0       -0.129612    5.074066   -3.484551
     81          1           0       -0.426369    3.617534   -2.692088
     82          1           0        2.294938    6.987707    0.410367
     83          1           0        1.754446    8.375385   -0.599016
     84          1           0        3.403109    7.591036   -0.873704
     85          1           0        4.930422    5.075841    2.677819
     86          1           0        7.718496    3.896113    2.364073
     87          1           0        6.144199    6.989952    2.457793
     88          1           0        6.462924    6.517251    0.798776
     89          1           0        7.677309    6.074220    2.062109
     90          1           0        5.859844    2.748488    4.447257
     91          1           0        6.069808    4.497751    4.611926
     92          1           0        7.763432    4.440015    5.653982
     93          1           0        8.625544    3.212561    4.638696
     94          1           0        7.474333    2.665139    5.860229
     95          1           0        8.754512   -2.512606    2.460450
     96          1           0        7.447457   -2.009381    3.636956
     97          1           0        8.639523   -0.819264    3.181075
     98          1           0        4.082798   -4.077833    0.173670
     99          1           0        5.821581   -7.340377   -2.322625
    100          1           0        6.031975   -6.051203   -3.433831
    101          1           0        4.446192   -6.768653   -3.213580
    102          1           0       -1.012415   -5.181264    1.918075
    103          1           0       -1.907162   -5.986185    0.695122
    104          1           0       -3.338982   -3.635218    0.723794
    105          1           0       -3.549499   -6.575966    3.040678
    106          1           0       -4.489120   -5.551245    4.294171
    107          1           0       -2.783509   -5.330432    4.147174
    108          1           0       -4.833335   -2.740048    3.113669
    109          1           0       -5.881721   -4.184350    3.313931
    110          1           0       -6.964647   -3.678135    1.634866
    111          1           0       -5.611011   -4.018763    0.550520
    112          1           0       -5.531618   -1.985601   -0.067611
    113          1           0       -5.179323   -1.396943    1.499008
    114          1           0       -7.997555   -1.940771    0.465273
    115          1           0       -8.234362   -1.787580    2.832434
    116          1           0       -8.342520   -0.074508    2.314964
    117          1           0       -6.897398   -0.683052    3.080349
    118          1           0       -6.118287    0.176520   -0.242015
    119          1           0       -7.345862    0.849811    0.822909
    120          1           0       -8.892945   -0.432853   -1.216008
    121          1           0       -7.401907    0.104593   -2.076846
    122          1           0       -7.948343    2.281227   -1.728702
    123          1           0       -8.748148    2.097896   -0.207772
    124          1           0      -10.254261    0.666965   -2.313266
    125          1           0      -11.186664    2.681622   -3.352700
    126          1           0       -9.623485    1.911071   -3.848685
    127          1           0       -9.615832    3.516690   -2.974264
    128          1           0      -11.789085    2.943602   -1.095850
    129          1           0      -10.855702    2.135496    0.207609
    130          1           0      -12.348788    0.146087   -1.338705
    131          1           0      -13.328822    1.459409   -1.192981
    132          1           0      -12.122628    0.630244    1.400729
    133          1           0      -13.272543   -0.400832    0.616378
    134          1           0      -14.595317    1.961213    0.393646
    135          1           0      -13.000531    3.667409    1.344254
    136          1           0      -12.505586    2.486853    2.571649
    137          1           0      -13.984412    3.234717    2.781629
    138          1           0      -16.101830    1.185736    1.846267
    139          1           0      -15.006358    1.295896    3.281919
    140          1           0      -15.035535   -0.090969    2.228265
 ---------------------------------------------------------------------

 SCF Done:  E(RCAM-B3LYP) =  -3007.13543847     A.U. after   19 cycles

 Excitation energies and oscillator strengths:

 Excited State   1:      Singlet-A      1.7469 eV  709.73 nm  f=0.3733  <S**2>=0.000
     245 -> 248        0.16739
     246 -> 247        0.68689
     245 <- 248        0.10047
 This state for optimization and/or second-order correction.
 Total Energy, E(TD-HF/TD-DFT) =  -3007.07124013
 Copying the excited state density for this state as the 1-particle RhoCI density.

 Excited State   2:      Singlet-A      2.2672 eV  546.86 nm  f=0.0975  <S**2>=0.000
     245 -> 247        0.63405
     246 -> 248       -0.29512

 Excited State   3:      Singlet-A      3.3239 eV  373.01 nm  f=0.0071  <S**2>=0.000
     242 -> 247        0.31433
     243 -> 247        0.61616

 Excited State   4:      Singlet-A      3.4182 eV  362.72 nm  f=0.0730  <S**2>=0.000
     242 -> 247        0.52213
     243 -> 247       -0.27877
     246 -> 248        0.35091

 Excited State   5:      Singlet-A      3.5880 eV  345.55 nm  f=0.6396  <S**2>=0.000
     241 -> 247       -0.17053
     242 -> 247       -0.29548
     243 -> 247        0.12144
     245 -> 247        0.27931
     246 -> 248        0.50227

 The electronic state is 1-A.
 Alpha  occ. eigenvalues --  -46.89817 -19.25235 -19.24885 -19.20910 -19.19545
 Alpha  occ. eigenvalues --  -19.19223 -19.19153 -14.42916 -14.41749 -14.40154
 Alpha  occ. eigenvalues --  -14.38842 -10.39720 -10.39525 -10.36110 -10.35694
 Alpha  occ. eigenvalues --  -10.32573 -10.32045 -10.31737 -10.31211 -10.30913
 Alpha  occ. eigenvalues --  -10.30782 -10.30491 -10.30375 -10.29420 -10.29406
 Alpha  occ. eigenvalues --  -10.29126 -10.28969 -10.28723 -10.28519 -10.28166
 Alpha  occ. eigenvalues --  -10.28118 -10.28083 -10.27948 -10.27847 -10.27706
 Alpha  occ. eigenvalues --  -10.27558 -10.27418 -10.27275 -10.27240 -10.27131
 Alpha  occ. eigenvalues --  -10.27039 -10.26946 -10.26821 -10.26543 -10.26190
 Alpha  occ. eigenvalues --  -10.26024 -10.25994 -10.25973 -10.25935 -10.25712
 Alpha  occ. eigenvalues --  -10.25525 -10.25513 -10.25376 -10.24967 -10.24807
 Alpha  occ. eigenvalues --  -10.24735 -10.24652 -10.24570 -10.24535 -10.24455
 Alpha  occ. eigenvalues --  -10.24409 -10.24394 -10.24376 -10.24305 -10.24271
 Alpha  occ. eigenvalues --  -10.23810  -3.18198  -1.93089  -1.92666  -1.92483
 Alpha  occ. eigenvalues --   -1.16508  -1.15812  -1.11163  -1.08113  -1.08022
 Alpha  occ. eigenvalues --   -1.06384  -1.04557  -1.03522  -1.03222  -1.02212
 Alpha  occ. eigenvalues --   -0.91338  -0.89775  -0.89697  -0.89020  -0.88722
 Alpha  occ. eigenvalues --   -0.88455  -0.87827  -0.87307  -0.86778  -0.86379
 Alpha  occ. eigenvalues --   -0.86260  -0.84872  -0.84064  -0.83706  -0.83493
 Alpha  occ. eigenvalues --   -0.82249  -0.81918  -0.81220  -0.80936  -0.80205
 Alpha  occ. eigenvalues --   -0.79470  -0.78204  -0.77798  -0.77401  -0.76036
 Alpha  occ. eigenvalues --   -0.75688  -0.75253  -0.75171  -0.74267  -0.73552
 Alpha  occ. eigenvalues --   -0.73083  -0.72126  -0.71768  -0.70029  -0.69416
 Alpha  occ. eigenvalues --   -0.68229  -0.67809  -0.67490  -0.66239  -0.66075
 Alpha  occ. eigenvalues --   -0.65401  -0.64917  -0.64697  -0.64372  -0.63601
 Alpha  occ. eigenvalues --   -0.63467  -0.63260  -0.62391  -0.62359  -0.60058
 Alpha  occ. eigenvalues --   -0.59400  -0.59247  -0.58520  -0.58249  -0.57893
 Alpha  occ. eigenvalues --   -0.57282  -0.56393  -0.56351  -0.55411  -0.55236
 Alpha  occ. eigenvalues --   -0.54931  -0.54708  -0.54255  -0.53863  -0.53730
 Alpha  occ. eigenvalues --   -0.53400  -0.53093  -0.53069  -0.52629  -0.52570
 Alpha  occ. eigenvalues --   -0.52469  -0.52407  -0.52104  -0.52018  -0.51659
 Alpha  occ. eigenvalues --   -0.51478  -0.51198  -0.51068  -0.50933  -0.50757
 Alpha  occ. eigenvalues --   -0.50645  -0.50464  -0.50162  -0.49532  -0.49462
 Alpha  occ. eigenvalues --   -0.49431  -0.49196  -0.49004  -0.48734  -0.48645
 Alpha  occ. eigenvalues --   -0.48217  -0.48165  -0.47977  -0.47917  -0.47813
 Alpha  occ. eigenvalues --   -0.47732  -0.47632  -0.47280  -0.46997  -0.46966
 Alpha  occ. eigenvalues --   -0.46565  -0.46200  -0.46072  -0.45910  -0.45772
 Alpha  occ. eigenvalues --   -0.45527  -0.45393  -0.45276  -0.45131  -0.44983
 Alpha  occ. eigenvalues --   -0.44528  -0.44430  -0.43888  -0.43802  -0.43710
 Alpha  occ. eigenvalues --   -0.43615  -0.43482  -0.43310  -0.43148  -0.43063
 Alpha  occ. eigenvalues --   -0.42673  -0.42476  -0.42431  -0.42225  -0.41910
 Alpha  occ. eigenvalues --   -0.41677  -0.41485  -0.41466  -0.41439  -0.40959
 Alpha  occ. eigenvalues --   -0.40853  -0.40571  -0.40516  -0.39997  -0.39852
 Alpha  occ. eigenvalues --   -0.39721  -0.39576  -0.39246  -0.39066  -0.39042
 Alpha  occ. eigenvalues --   -0.38464  -0.38048  -0.37770  -0.37767  -0.37713
 Alpha  occ. eigenvalues --   -0.37465  -0.37199  -0.36842  -0.36417  -0.35977
 Alpha  occ. eigenvalues --   -0.35683  -0.35676  -0.34793  -0.34682  -0.34143
 Alpha  occ. eigenvalues --   -0.33872  -0.33444  -0.32938  -0.31652  -0.31470
 Alpha  occ. eigenvalues --   -0.30756  -0.30328  -0.29212  -0.28422  -0.24542
 Alpha  occ. eigenvalues --   -0.21508
 Alpha virt. eigenvalues --   -0.08870  -0.02156   0.00493   0.01623   0.02059
 Alpha virt. eigenvalues --    0.04760   0.05112   0.05277   0.05484   0.06417
 Alpha virt. eigenvalues --    0.08013   0.08325   0.08519   0.08552   0.09323

 Mulliken charges:
               1
     1  Mg   0.821243
     2  C    0.013516
     3  C   -0.077621
     4  C   -0.060260
     5  C   -0.066101
     6  N   -0.279524
     7  C   -0.009949
     8  C   -0.102833
     9  C   -0.076294
    10  C    0.037760
    11  C    0.066401
    12  C    0.065888
    13  C    0.111831
    14  C    0.150141
    15  O   -0.188115
    16  O   -0.360810
    17  N   -0.387750
    18  C    0.162018
    19  C   -0.161633
    20  C   -0.015464
    21  C    0.149707
    22  C    0.120374
    23  C   -0.019477
    24  O   -0.189078
    25  C    0.060543
    26  N   -0.314204
    27  C    0.043211
    28  C   -0.082665
    29  C    0.024998
    30  C   -0.037581
    31  C    0.069281
    32  C    0.023536
    33  C   -0.003670
    34  N   -0.312630
    35  C    0.133788
    36  C   -0.179159
    37  C   -0.071696
    38  C    0.096958
    39  C    0.148451
    40  C    0.117528
    41  O   -0.193534
    42  C   -0.015148
    43  C    0.202637
    44  O   -0.244566
    45  O   -0.313298
    46  C    0.169890
    47  C    0.265414
    48  C   -0.113958
    49  C   -0.231643
    50  C    0.080851
    51  C    0.091005
    52  C    0.010200
    53  C   -0.000152
    54  C   -0.119733
    55  C    0.049957
    56  C    0.067698
    57  C    0.024860
    58  C    0.002337
    59  C   -0.147653
    60  C    0.034112
    61  C    0.084068
    62  C   -0.019848
    63  C    0.032024
    64  C   -0.128528
    65  C    0.052420
    66  C    0.037395
    67  H   -0.025342
    68  H   -0.053256
    69  H   -0.043863
    70  H    0.009765
    71  H   -0.001971
    72  H    0.044254
    73  H    0.021869
    74  H    0.029655
    75  H    0.007772
    76  H    0.022486
    77  H    0.020280
    78  H    0.035479
    79  H    0.026819
    80  H    0.041830
    81  H    0.027381
    82  H    0.044475
    83  H    0.035746
    84  H    0.045152
    85  H    0.022621
    86  H    0.012767
    87  H    0.022486
    88  H    0.019298
    89  H    0.028015
    90  H    0.020274
    91  H    0.005572
    92  H    0.019543
    93  H    0.016142
    94  H    0.019576
    95  H    0.053242
    96  H    0.034982
    97  H    0.002723
    98  H    0.047638
    99  H    0.036100
   100  H    0.047366
   101  H    0.022954
   102  H    0.031220
   103  H    0.037931
   104  H    0.004258
   105  H    0.041759
   106  H    0.008630
   107  H    0.025675
   108  H    0.021237
   109  H    0.000768
   110  H   -0.010983
   111  H    0.009539
   112  H   -0.012900
   113  H   -0.007308
   114  H   -0.006304
   115  H    0.008277
   116  H    0.004459
   117  H    0.008095
   118  H   -0.006672
   119  H   -0.013248
   120  H    0.008504
   121  H    0.005963
   122  H   -0.007168
   123  H   -0.005245
   124  H   -0.000014
   125  H    0.005026
   126  H    0.010549
   127  H    0.021193
   128  H    0.000360
   129  H    0.004294
   130  H   -0.009519
   131  H   -0.020709
   132  H   -0.008539
   133  H   -0.004730
   134  H   -0.003304
   135  H    0.021177
   136  H   -0.000407
   137  H    0.002712
   138  H    0.010384
   139  H    0.010522
   140  H   -0.002782
 Sum of Mulliken charges =  -0.00000

 Dipole moment (field-independent basis, Debye):
    X=             -0.9446    Y=              4.5034    Z=              1.0461  Tot=              4.7189
 Quadrupole moment (field-independent basis, Debye-Ang):
   XX=           -401.5770   YY=           -420.6205   ZZ=           -387.2014
   XY=             54.9934   XZ=              6.1646   YZ=             27.3637

 Normal termination of Gaussian 16 at Wed May  4 03:46:03 2022.
