 Gaussian 16, Revision A.03,
 Gaussian 16:  ES64L-G16RevA.03 25-Dec-2016

 ---------------------------------
 #p PBE1PBE/Def2SVP td=(nstates=5)
 ---------------------------------

 ------------------------------------------------------
 step_1351_chromophore_17 TDDFT with PBE1PBE functional
 ------------------------------------------------------
 Symbolic Z-matrix:
 Charge =  0 Multiplicity = 1

                         Standard orientation:
 ---------------------------------------------------------------------
 Center     Atomic      Atomic             Coordinates (Angstroms)
 Number     Number       Type             X           Y           Z
 ---------------------------------------------------------------------
      1         12           0        4.609283    1.557987   -0.567070
      2          6           0        4.542711   -2.035426   -0.643895
      3          6           0        1.899174    1.446179   -2.774854
      4          6           0        3.966294    4.631686    0.153538
      5          6           0        6.909330    1.268161    2.102171
      6          7           0        3.308924   -0.092552   -1.462092
      7          6           0        3.518943   -1.445146   -1.335411
      8          6           0        2.523373   -2.186506   -2.190695
      9          6           0        2.131223   -1.113962   -3.278973
     10          6           0        2.422067    0.208311   -2.480072
     11          6           0        2.971018   -1.290712   -4.685413
     12          6           0        1.306830   -2.727463   -1.293347
     13          6           0        0.737762   -4.082038   -1.696851
     14          6           0        0.116650   -4.909023   -0.510744
     15          8           0        0.385479   -6.001051   -0.101844
     16          8           0       -0.951543   -4.144422   -0.014762
     17          7           0        3.229282    2.945105   -1.362775
     18          6           0        2.200056    2.684279   -2.224730
     19          6           0        1.536633    3.971332   -2.442562
     20          6           0        2.107188    4.977054   -1.609990
     21          6           0        3.186491    4.246784   -0.909562
     22          6           0        0.313127    4.089239   -3.338133
     23          6           0        1.658572    6.450712   -1.469762
     24          8           0        0.656952    6.843379   -2.034797
     25          6           0        2.364841    7.473976   -0.562699
     26          7           0        5.391414    2.764533    0.913084
     27          6           0        5.068628    4.085948    0.888175
     28          6           0        5.798942    4.847920    2.060105
     29          6           0        6.694586    3.745292    2.705868
     30          6           0        6.351261    2.511425    1.837893
     31          6           0        6.622251    6.231026    1.838723
     32          6           0        6.502818    3.589828    4.192188
     33          6           0        7.704843    3.469575    5.161881
     34          7           0        5.650079   -0.026866    0.504917
     35          6           0        6.621005    0.021186    1.518857
     36          6           0        7.086722   -1.288821    1.836487
     37          6           0        6.303034   -2.125423    1.020152
     38          6           0        5.510142   -1.304309    0.189473
     39          6           0        8.117015   -1.709582    2.830518
     40          6           0        6.063909   -3.579694    0.709557
     41          8           0        6.650762   -4.600333    1.132515
     42          6           0        4.880226   -3.536727   -0.336447
     43          6           0        5.269929   -4.264272   -1.630475
     44          8           0        6.012254   -3.834138   -2.527968
     45          8           0        4.852140   -5.570271   -1.637070
     46          6           0        5.337924   -6.433283   -2.685340
     47          6           0       -1.621808   -4.990100    1.034668
     48          6           0       -3.050967   -4.464806    1.369775
     49          6           0       -3.854589   -4.560229    2.499528
     50          6           0       -3.665829   -5.639578    3.586106
     51          6           0       -5.126272   -3.702647    2.693333
     52          6           0       -5.932086   -3.419116    1.402090
     53          6           0       -5.934273   -1.954822    0.945919
     54          6           0       -7.294358   -1.249347    0.929720
     55          6           0       -7.697638   -0.949227    2.388887
     56          6           0       -7.152156    0.071655    0.085019
     57          6           0       -8.013957    0.211168   -1.181421
     58          6           0       -8.653917    1.645313   -1.195061
     59          6           0      -10.152073    1.645857   -1.844863
     60          6           0      -10.124948    2.566188   -3.135479
     61          6           0      -11.307616    2.018679   -0.777614
     62          6           0      -12.454985    1.026953   -0.705781
     63          6           0      -12.985188    0.643725    0.734772
     64          6           0      -14.032030    1.665224    1.278060
     65          6           0      -13.346271    2.854938    1.983954
     66          6           0      -15.102904    0.996128    2.237906
     67          1           0        1.273203    1.456678   -3.668798
     68          1           0        3.858260    5.694679    0.382019
     69          1           0        7.636882    1.353165    2.911175
     70          1           0        3.038721   -3.022146   -2.663693
     71          1           0        1.080498   -1.187093   -3.562252
     72          1           0        3.788909   -1.976668   -4.463824
     73          1           0        3.314128   -0.272748   -4.871838
     74          1           0        2.267709   -1.679454   -5.421591
     75          1           0        0.657359   -1.862885   -1.429416
     76          1           0        1.581118   -2.696248   -0.238542
     77          1           0        1.583579   -4.631462   -2.109281
     78          1           0       -0.047691   -3.972401   -2.444646
     79          1           0        0.489972    3.480917   -4.225556
     80          1           0       -0.129612    5.074066   -3.484551
     81          1           0       -0.426369    3.617534   -2.692088
     82          1           0        2.294938    6.987707    0.410367
     83          1           0        1.754446    8.375385   -0.599016
     84          1           0        3.403109    7.591036   -0.873704
     85          1           0        4.930422    5.075841    2.677819
     86          1           0        7.718496    3.896113    2.364073
     87          1           0        6.144199    6.989952    2.457793
     88          1           0        6.462924    6.517251    0.798776
     89          1           0        7.677309    6.074220    2.062109
     90          1           0        5.859844    2.748488    4.447257
     91          1           0        6.069808    4.497751    4.611926
     92          1           0        7.763432    4.440015    5.653982
     93          1           0        8.625544    3.212561    4.638696
     94          1           0        7.474333    2.665139    5.860229
     95          1           0        8.754512   -2.512606    2.460450
     96          1           0        7.447457   -2.009381    3.636956
     97          1           0        8.639523   -0.819264    3.181075
     98          1           0        4.082798   -4.077833    0.173670
     99          1           0        5.821581   -7.340377   -2.322625
    100          1           0        6.031975   -6.051203   -3.433831
    101          1           0        4.446192   -6.768653   -3.213580
    102          1           0       -1.012415   -5.181264    1.918075
    103          1           0       -1.907162   -5.986185    0.695122
    104          1           0       -3.338982   -3.635218    0.723794
    105          1           0       -3.549499   -6.575966    3.040678
    106          1           0       -4.489120   -5.551245    4.294171
    107          1           0       -2.783509   -5.330432    4.147174
    108          1           0       -4.833335   -2.740048    3.113669
    109          1           0       -5.881721   -4.184350    3.313931
    110          1           0       -6.964647   -3.678135    1.634866
    111          1           0       -5.611011   -4.018763    0.550520
    112          1           0       -5.531618   -1.985601   -0.067611
    113          1           0       -5.179323   -1.396943    1.499008
    114          1           0       -7.997555   -1.940771    0.465273
    115          1           0       -8.234362   -1.787580    2.832434
    116          1           0       -8.342520   -0.074508    2.314964
    117          1           0       -6.897398   -0.683052    3.080349
    118          1           0       -6.118287    0.176520   -0.242015
    119          1           0       -7.345862    0.849811    0.822909
    120          1           0       -8.892945   -0.432853   -1.216008
    121          1           0       -7.401907    0.104593   -2.076846
    122          1           0       -7.948343    2.281227   -1.728702
    123          1           0       -8.748148    2.097896   -0.207772
    124          1           0      -10.254261    0.666965   -2.313266
    125          1           0      -11.186664    2.681622   -3.352700
    126          1           0       -9.623485    1.911071   -3.848685
    127          1           0       -9.615832    3.516690   -2.974264
    128          1           0      -11.789085    2.943602   -1.095850
    129          1           0      -10.855702    2.135496    0.207609
    130          1           0      -12.348788    0.146087   -1.338705
    131          1           0      -13.328822    1.459409   -1.192981
    132          1           0      -12.122628    0.630244    1.400729
    133          1           0      -13.272543   -0.400832    0.616378
    134          1           0      -14.595317    1.961213    0.393646
    135          1           0      -13.000531    3.667409    1.344254
    136          1           0      -12.505586    2.486853    2.571649
    137          1           0      -13.984412    3.234717    2.781629
    138          1           0      -16.101830    1.185736    1.846267
    139          1           0      -15.006358    1.295896    3.281919
    140          1           0      -15.035535   -0.090969    2.228265
 ---------------------------------------------------------------------

 SCF Done:  E(RPBE1PBE) =  -3005.32351964     A.U. after   15 cycles

 Excitation energies and oscillator strengths:

 Excited State   1:      Singlet-A      1.8758 eV  660.98 nm  f=0.3626  <S**2>=0.000
     245 -> 248        0.16460
     246 -> 247        0.69313
     246 <- 247       -0.10561
 This state for optimization and/or second-order correction.
 Total Energy, E(TD-HF/TD-DFT) =  -3005.25458612
 Copying the excited state density for this state as the 1-particle RhoCI density.

 Excited State   2:      Singlet-A      2.2625 eV  547.99 nm  f=0.0947  <S**2>=0.000
     245 -> 247        0.64656
     246 -> 248       -0.26846

 Excited State   3:      Singlet-A      2.9474 eV  420.65 nm  f=0.0027  <S**2>=0.000
     242 -> 247        0.13967
     243 -> 247        0.67796

 Excited State   4:      Singlet-A      3.0058 eV  412.49 nm  f=0.0000  <S**2>=0.000
     244 -> 247        0.70673

 Excited State   5:      Singlet-A      3.0662 eV  404.36 nm  f=0.0008  <S**2>=0.000
     241 -> 247        0.19533
     242 -> 247        0.64231
     246 -> 248        0.11558

 The electronic state is 1-A.
 Alpha  occ. eigenvalues --  -46.93179 -19.25990 -19.25627 -19.21235 -19.19655
 Alpha  occ. eigenvalues --  -19.19559 -19.19541 -14.42289 -14.41377 -14.39640
 Alpha  occ. eigenvalues --  -14.38661 -10.36839 -10.36643 -10.33093 -10.33077
 Alpha  occ. eigenvalues --  -10.30138 -10.29529 -10.29228 -10.28588 -10.28381
 Alpha  occ. eigenvalues --  -10.28351 -10.28189 -10.28090 -10.27201 -10.27097
 Alpha  occ. eigenvalues --  -10.26918 -10.26777 -10.26525 -10.26454 -10.25981
 Alpha  occ. eigenvalues --  -10.25970 -10.25719 -10.25634 -10.25599 -10.25375
 Alpha  occ. eigenvalues --  -10.25147 -10.24996 -10.24965 -10.24900 -10.24736
 Alpha  occ. eigenvalues --  -10.24554 -10.24267 -10.24215 -10.24199 -10.23865
 Alpha  occ. eigenvalues --  -10.23778 -10.23549 -10.23471 -10.23323 -10.23234
 Alpha  occ. eigenvalues --  -10.23079 -10.23065 -10.22910 -10.22767 -10.22508
 Alpha  occ. eigenvalues --  -10.22337 -10.22302 -10.22128 -10.21942 -10.21935
 Alpha  occ. eigenvalues --  -10.21874 -10.21851 -10.21830 -10.21796 -10.21763
 Alpha  occ. eigenvalues --  -10.21366  -3.15144  -1.87974  -1.87530  -1.87349
 Alpha  occ. eigenvalues --   -1.11362  -1.10684  -1.05705  -1.03062  -1.02983
 Alpha  occ. eigenvalues --   -1.01282  -0.99140  -0.98056  -0.97973  -0.96869
 Alpha  occ. eigenvalues --   -0.85771  -0.84073  -0.83786  -0.83263  -0.82936
 Alpha  occ. eigenvalues --   -0.82524  -0.81950  -0.81635  -0.81309  -0.80464
 Alpha  occ. eigenvalues --   -0.80346  -0.79114  -0.78300  -0.78006  -0.77642
 Alpha  occ. eigenvalues --   -0.76360  -0.76072  -0.75509  -0.75316  -0.74405
 Alpha  occ. eigenvalues --   -0.73651  -0.72576  -0.72036  -0.71666  -0.70447
 Alpha  occ. eigenvalues --   -0.70005  -0.69323  -0.69297  -0.68405  -0.67743
 Alpha  occ. eigenvalues --   -0.67568  -0.66520  -0.66120  -0.64316  -0.63806
 Alpha  occ. eigenvalues --   -0.62747  -0.62026  -0.61820  -0.60679  -0.60299
 Alpha  occ. eigenvalues --   -0.59868  -0.59450  -0.58972  -0.58883  -0.58101
 Alpha  occ. eigenvalues --   -0.57673  -0.57410  -0.57033  -0.56562  -0.54553
 Alpha  occ. eigenvalues --   -0.54004  -0.53770  -0.53163  -0.52806  -0.52455
 Alpha  occ. eigenvalues --   -0.51851  -0.50815  -0.50790  -0.50045  -0.49821
 Alpha  occ. eigenvalues --   -0.49559  -0.49227  -0.48755  -0.48379  -0.48268
 Alpha  occ. eigenvalues --   -0.47971  -0.47741  -0.47502  -0.47130  -0.47040
 Alpha  occ. eigenvalues --   -0.46867  -0.46763  -0.46656  -0.46515  -0.46325
 Alpha  occ. eigenvalues --   -0.45932  -0.45828  -0.45564  -0.45547  -0.45405
 Alpha  occ. eigenvalues --   -0.45129  -0.44955  -0.44688  -0.44197  -0.44005
 Alpha  occ. eigenvalues --   -0.43973  -0.43770  -0.43704  -0.43382  -0.43242
 Alpha  occ. eigenvalues --   -0.42873  -0.42751  -0.42581  -0.42493  -0.42427
 Alpha  occ. eigenvalues --   -0.42336  -0.42179  -0.41878  -0.41730  -0.41585
 Alpha  occ. eigenvalues --   -0.41189  -0.41041  -0.40684  -0.40609  -0.40456
 Alpha  occ. eigenvalues --   -0.40210  -0.40093  -0.40077  -0.39928  -0.39645
 Alpha  occ. eigenvalues --   -0.39279  -0.39193  -0.38701  -0.38565  -0.38491
 Alpha  occ. eigenvalues --   -0.38354  -0.38271  -0.38052  -0.38013  -0.37752
 Alpha  occ. eigenvalues --   -0.37569  -0.37342  -0.37158  -0.37006  -0.36752
 Alpha  occ. eigenvalues --   -0.36422  -0.36353  -0.36293  -0.36185  -0.35904
 Alpha  occ. eigenvalues --   -0.35640  -0.35498  -0.35431  -0.34782  -0.34769
 Alpha  occ. eigenvalues --   -0.34561  -0.34546  -0.34080  -0.34050  -0.33830
 Alpha  occ. eigenvalues --   -0.33222  -0.32813  -0.32766  -0.32701  -0.32517
 Alpha  occ. eigenvalues --   -0.32287  -0.32235  -0.31697  -0.31482  -0.30793
 Alpha  occ. eigenvalues --   -0.30696  -0.30537  -0.29784  -0.29771  -0.29272
 Alpha  occ. eigenvalues --   -0.29183  -0.28614  -0.27949  -0.27213  -0.26188
 Alpha  occ. eigenvalues --   -0.25900  -0.25644  -0.25078  -0.23711  -0.21402
 Alpha  occ. eigenvalues --   -0.19113
 Alpha virt. eigenvalues --   -0.11398  -0.05643  -0.03772  -0.02390  -0.01125
 Alpha virt. eigenvalues --    0.00212   0.00474   0.00831   0.01238   0.02511
 Alpha virt. eigenvalues --    0.04018   0.04606   0.04969   0.05331   0.05825

 Mulliken charges:
               1
     1  Mg   0.961029
     2  C   -0.001252
     3  C   -0.069691
     4  C   -0.070230
     5  C   -0.065514
     6  N   -0.374598
     7  C    0.056900
     8  C   -0.178811
     9  C   -0.145290
    10  C    0.066269
    11  C    0.007543
    12  C    0.024039
    13  C    0.033243
    14  C    0.208202
    15  O   -0.221438
    16  O   -0.384875
    17  N   -0.498812
    18  C    0.183508
    19  C   -0.191356
    20  C   -0.061671
    21  C    0.172820
    22  C    0.060831
    23  C    0.034287
    24  O   -0.225552
    25  C   -0.018371
    26  N   -0.422920
    27  C    0.087713
    28  C   -0.152190
    29  C   -0.058805
    30  C    0.014014
    31  C    0.007643
    32  C   -0.037989
    33  C   -0.073447
    34  N   -0.433498
    35  C    0.153396
    36  C   -0.202682
    37  C   -0.113832
    38  C    0.165730
    39  C    0.092127
    40  C    0.209188
    41  O   -0.236260
    42  C   -0.110976
    43  C    0.288677
    44  O   -0.277948
    45  O   -0.346989
    46  C    0.115958
    47  C    0.224657
    48  C   -0.133880
    49  C   -0.267847
    50  C    0.014972
    51  C    0.031296
    52  C   -0.054459
    53  C   -0.050984
    54  C   -0.209974
    55  C   -0.007581
    56  C    0.014346
    57  C   -0.042225
    58  C   -0.043869
    59  C   -0.227133
    60  C   -0.030341
    61  C    0.026959
    62  C   -0.078659
    63  C   -0.023709
    64  C   -0.222679
    65  C   -0.008293
    66  C   -0.021706
    67  H    0.006357
    68  H   -0.016843
    69  H   -0.008318
    70  H    0.052272
    71  H    0.033653
    72  H    0.069827
    73  H    0.050451
    74  H    0.056294
    75  H    0.042028
    76  H    0.054780
    77  H    0.053020
    78  H    0.067459
    79  H    0.052758
    80  H    0.068416
    81  H    0.056435
    82  H    0.070101
    83  H    0.062967
    84  H    0.071385
    85  H    0.060056
    86  H    0.051268
    87  H    0.049253
    88  H    0.047464
    89  H    0.053534
    90  H    0.052439
    91  H    0.039925
    92  H    0.047127
    93  H    0.042391
    94  H    0.047070
    95  H    0.079962
    96  H    0.065117
    97  H    0.032441
    98  H    0.084398
    99  H    0.058307
   100  H    0.068306
   101  H    0.045621
   102  H    0.058275
   103  H    0.065934
   104  H    0.037576
   105  H    0.068478
   106  H    0.035288
   107  H    0.053671
   108  H    0.054210
   109  H    0.031382
   110  H    0.022844
   111  H    0.041600
   112  H    0.020921
   113  H    0.024983
   114  H    0.030678
   115  H    0.035774
   116  H    0.032637
   117  H    0.034726
   118  H    0.025830
   119  H    0.018415
   120  H    0.041360
   121  H    0.038561
   122  H    0.025281
   123  H    0.025832
   124  H    0.036141
   125  H    0.034212
   126  H    0.039078
   127  H    0.048383
   128  H    0.032562
   129  H    0.035190
   130  H    0.021629
   131  H    0.012676
   132  H    0.024623
   133  H    0.027221
   134  H    0.034302
   135  H    0.048364
   136  H    0.026520
   137  H    0.030788
   138  H    0.037757
   139  H    0.036961
   140  H    0.024598
 Sum of Mulliken charges =  -0.00000

 Dipole moment (field-independent basis, Debye):
    X=             -0.6446    Y=              4.0456    Z=              1.3128  Tot=              4.3018
 Quadrupole moment (field-independent basis, Debye-Ang):
   XX=           -395.0781   YY=           -418.8514   ZZ=           -383.5695
   XY=             53.8329   XZ=              8.2382   YZ=             28.5810

 Normal termination of Gaussian 16 at Wed May  4 04:07:32 2022.
