 Gaussian 16, Revision A.03,
 Gaussian 16:  ES64L-G16RevA.03 25-Dec-2016

 --------------------------------
 #p wB97XD/Def2SVP td=(nstates=5)
 --------------------------------

 -----------------------------------------------------
 step_1351_chromophore_17 TDDFT with wB97XD functional
 -----------------------------------------------------
 Symbolic Z-matrix:
 Charge =  0 Multiplicity = 1

                         Standard orientation:
 ---------------------------------------------------------------------
 Center     Atomic      Atomic             Coordinates (Angstroms)
 Number     Number       Type             X           Y           Z
 ---------------------------------------------------------------------
      1         12           0        4.609283    1.557987   -0.567070
      2          6           0        4.542711   -2.035426   -0.643895
      3          6           0        1.899174    1.446179   -2.774854
      4          6           0        3.966294    4.631686    0.153538
      5          6           0        6.909330    1.268161    2.102171
      6          7           0        3.308924   -0.092552   -1.462092
      7          6           0        3.518943   -1.445146   -1.335411
      8          6           0        2.523373   -2.186506   -2.190695
      9          6           0        2.131223   -1.113962   -3.278973
     10          6           0        2.422067    0.208311   -2.480072
     11          6           0        2.971018   -1.290712   -4.685413
     12          6           0        1.306830   -2.727463   -1.293347
     13          6           0        0.737762   -4.082038   -1.696851
     14          6           0        0.116650   -4.909023   -0.510744
     15          8           0        0.385479   -6.001051   -0.101844
     16          8           0       -0.951543   -4.144422   -0.014762
     17          7           0        3.229282    2.945105   -1.362775
     18          6           0        2.200056    2.684279   -2.224730
     19          6           0        1.536633    3.971332   -2.442562
     20          6           0        2.107188    4.977054   -1.609990
     21          6           0        3.186491    4.246784   -0.909562
     22          6           0        0.313127    4.089239   -3.338133
     23          6           0        1.658572    6.450712   -1.469762
     24          8           0        0.656952    6.843379   -2.034797
     25          6           0        2.364841    7.473976   -0.562699
     26          7           0        5.391414    2.764533    0.913084
     27          6           0        5.068628    4.085948    0.888175
     28          6           0        5.798942    4.847920    2.060105
     29          6           0        6.694586    3.745292    2.705868
     30          6           0        6.351261    2.511425    1.837893
     31          6           0        6.622251    6.231026    1.838723
     32          6           0        6.502818    3.589828    4.192188
     33          6           0        7.704843    3.469575    5.161881
     34          7           0        5.650079   -0.026866    0.504917
     35          6           0        6.621005    0.021186    1.518857
     36          6           0        7.086722   -1.288821    1.836487
     37          6           0        6.303034   -2.125423    1.020152
     38          6           0        5.510142   -1.304309    0.189473
     39          6           0        8.117015   -1.709582    2.830518
     40          6           0        6.063909   -3.579694    0.709557
     41          8           0        6.650762   -4.600333    1.132515
     42          6           0        4.880226   -3.536727   -0.336447
     43          6           0        5.269929   -4.264272   -1.630475
     44          8           0        6.012254   -3.834138   -2.527968
     45          8           0        4.852140   -5.570271   -1.637070
     46          6           0        5.337924   -6.433283   -2.685340
     47          6           0       -1.621808   -4.990100    1.034668
     48          6           0       -3.050967   -4.464806    1.369775
     49          6           0       -3.854589   -4.560229    2.499528
     50          6           0       -3.665829   -5.639578    3.586106
     51          6           0       -5.126272   -3.702647    2.693333
     52          6           0       -5.932086   -3.419116    1.402090
     53          6           0       -5.934273   -1.954822    0.945919
     54          6           0       -7.294358   -1.249347    0.929720
     55          6           0       -7.697638   -0.949227    2.388887
     56          6           0       -7.152156    0.071655    0.085019
     57          6           0       -8.013957    0.211168   -1.181421
     58          6           0       -8.653917    1.645313   -1.195061
     59          6           0      -10.152073    1.645857   -1.844863
     60          6           0      -10.124948    2.566188   -3.135479
     61          6           0      -11.307616    2.018679   -0.777614
     62          6           0      -12.454985    1.026953   -0.705781
     63          6           0      -12.985188    0.643725    0.734772
     64          6           0      -14.032030    1.665224    1.278060
     65          6           0      -13.346271    2.854938    1.983954
     66          6           0      -15.102904    0.996128    2.237906
     67          1           0        1.273203    1.456678   -3.668798
     68          1           0        3.858260    5.694679    0.382019
     69          1           0        7.636882    1.353165    2.911175
     70          1           0        3.038721   -3.022146   -2.663693
     71          1           0        1.080498   -1.187093   -3.562252
     72          1           0        3.788909   -1.976668   -4.463824
     73          1           0        3.314128   -0.272748   -4.871838
     74          1           0        2.267709   -1.679454   -5.421591
     75          1           0        0.657359   -1.862885   -1.429416
     76          1           0        1.581118   -2.696248   -0.238542
     77          1           0        1.583579   -4.631462   -2.109281
     78          1           0       -0.047691   -3.972401   -2.444646
     79          1           0        0.489972    3.480917   -4.225556
     80          1           0       -0.129612    5.074066   -3.484551
     81          1           0       -0.426369    3.617534   -2.692088
     82          1           0        2.294938    6.987707    0.410367
     83          1           0        1.754446    8.375385   -0.599016
     84          1           0        3.403109    7.591036   -0.873704
     85          1           0        4.930422    5.075841    2.677819
     86          1           0        7.718496    3.896113    2.364073
     87          1           0        6.144199    6.989952    2.457793
     88          1           0        6.462924    6.517251    0.798776
     89          1           0        7.677309    6.074220    2.062109
     90          1           0        5.859844    2.748488    4.447257
     91          1           0        6.069808    4.497751    4.611926
     92          1           0        7.763432    4.440015    5.653982
     93          1           0        8.625544    3.212561    4.638696
     94          1           0        7.474333    2.665139    5.860229
     95          1           0        8.754512   -2.512606    2.460450
     96          1           0        7.447457   -2.009381    3.636956
     97          1           0        8.639523   -0.819264    3.181075
     98          1           0        4.082798   -4.077833    0.173670
     99          1           0        5.821581   -7.340377   -2.322625
    100          1           0        6.031975   -6.051203   -3.433831
    101          1           0        4.446192   -6.768653   -3.213580
    102          1           0       -1.012415   -5.181264    1.918075
    103          1           0       -1.907162   -5.986185    0.695122
    104          1           0       -3.338982   -3.635218    0.723794
    105          1           0       -3.549499   -6.575966    3.040678
    106          1           0       -4.489120   -5.551245    4.294171
    107          1           0       -2.783509   -5.330432    4.147174
    108          1           0       -4.833335   -2.740048    3.113669
    109          1           0       -5.881721   -4.184350    3.313931
    110          1           0       -6.964647   -3.678135    1.634866
    111          1           0       -5.611011   -4.018763    0.550520
    112          1           0       -5.531618   -1.985601   -0.067611
    113          1           0       -5.179323   -1.396943    1.499008
    114          1           0       -7.997555   -1.940771    0.465273
    115          1           0       -8.234362   -1.787580    2.832434
    116          1           0       -8.342520   -0.074508    2.314964
    117          1           0       -6.897398   -0.683052    3.080349
    118          1           0       -6.118287    0.176520   -0.242015
    119          1           0       -7.345862    0.849811    0.822909
    120          1           0       -8.892945   -0.432853   -1.216008
    121          1           0       -7.401907    0.104593   -2.076846
    122          1           0       -7.948343    2.281227   -1.728702
    123          1           0       -8.748148    2.097896   -0.207772
    124          1           0      -10.254261    0.666965   -2.313266
    125          1           0      -11.186664    2.681622   -3.352700
    126          1           0       -9.623485    1.911071   -3.848685
    127          1           0       -9.615832    3.516690   -2.974264
    128          1           0      -11.789085    2.943602   -1.095850
    129          1           0      -10.855702    2.135496    0.207609
    130          1           0      -12.348788    0.146087   -1.338705
    131          1           0      -13.328822    1.459409   -1.192981
    132          1           0      -12.122628    0.630244    1.400729
    133          1           0      -13.272543   -0.400832    0.616378
    134          1           0      -14.595317    1.961213    0.393646
    135          1           0      -13.000531    3.667409    1.344254
    136          1           0      -12.505586    2.486853    2.571649
    137          1           0      -13.984412    3.234717    2.781629
    138          1           0      -16.101830    1.185736    1.846267
    139          1           0      -15.006358    1.295896    3.281919
    140          1           0      -15.035535   -0.090969    2.228265
 ---------------------------------------------------------------------

 SCF Done:  E(RwB97XD) =  -3007.83196419     A.U. after   19 cycles

 Excitation energies and oscillator strengths:

 Excited State   1:      Singlet-A      1.7059 eV  726.79 nm  f=0.3729  <S**2>=0.000
     245 -> 248        0.17122
     246 -> 247        0.68466
     245 <- 248        0.10811
 This state for optimization and/or second-order correction.
 Total Energy, E(TD-HF/TD-DFT) =  -3007.76927266
 Copying the excited state density for this state as the 1-particle RhoCI density.

 Excited State   2:      Singlet-A      2.2211 eV  558.21 nm  f=0.0967  <S**2>=0.000
     245 -> 247        0.63200
     246 -> 248       -0.29572

 Excited State   3:      Singlet-A      3.3622 eV  368.76 nm  f=0.0142  <S**2>=0.000
     242 -> 247        0.41897
     243 -> 247        0.53232

 Excited State   4:      Singlet-A      3.4464 eV  359.75 nm  f=0.0868  <S**2>=0.000
     242 -> 247        0.42067
     243 -> 247       -0.38901
     246 -> 248        0.36911

 Excited State   5:      Singlet-A      3.6312 eV  341.44 nm  f=0.6499  <S**2>=0.000
     240 -> 247       -0.14002
     240 -> 249        0.11534
     241 -> 247       -0.14987
     242 -> 247       -0.27945
     243 -> 247        0.15492
     245 -> 247        0.27776
     246 -> 248        0.47982

 The electronic state is 1-A.
 Alpha  occ. eigenvalues --  -46.96164 -19.30490 -19.30094 -19.25832 -19.24601
 Alpha  occ. eigenvalues --  -19.24171 -19.24157 -14.47532 -14.46330 -14.44793
 Alpha  occ. eigenvalues --  -14.43403 -10.43536 -10.43372 -10.40127 -10.39695
 Alpha  occ. eigenvalues --  -10.36663 -10.35965 -10.35836 -10.35329 -10.35040
 Alpha  occ. eigenvalues --  -10.34498 -10.34476 -10.34313 -10.33629 -10.33442
 Alpha  occ. eigenvalues --  -10.33206 -10.32896 -10.32804 -10.32452 -10.32348
 Alpha  occ. eigenvalues --  -10.32114 -10.32040 -10.32011 -10.31910 -10.31816
 Alpha  occ. eigenvalues --  -10.31449 -10.31445 -10.31300 -10.31188 -10.31144
 Alpha  occ. eigenvalues --  -10.30973 -10.30956 -10.30701 -10.30457 -10.30150
 Alpha  occ. eigenvalues --  -10.30049 -10.29952 -10.29799 -10.29745 -10.29697
 Alpha  occ. eigenvalues --  -10.29448 -10.29353 -10.29342 -10.28900 -10.28716
 Alpha  occ. eigenvalues --  -10.28654 -10.28639 -10.28482 -10.28393 -10.28301
 Alpha  occ. eigenvalues --  -10.28273 -10.28243 -10.28237 -10.28211 -10.28202
 Alpha  occ. eigenvalues --  -10.27738  -3.22011  -1.95586  -1.95143  -1.94958
 Alpha  occ. eigenvalues --   -1.18665  -1.17978  -1.13419  -1.10337  -1.10213
 Alpha  occ. eigenvalues --   -1.08558  -1.06565  -1.05593  -1.05213  -1.04227
 Alpha  occ. eigenvalues --   -0.93259  -0.91647  -0.91466  -0.90952  -0.90583
 Alpha  occ. eigenvalues --   -0.90213  -0.89625  -0.89241  -0.88686  -0.88386
 Alpha  occ. eigenvalues --   -0.88037  -0.86766  -0.85973  -0.85573  -0.85320
 Alpha  occ. eigenvalues --   -0.84201  -0.83760  -0.83152  -0.82875  -0.82058
 Alpha  occ. eigenvalues --   -0.81313  -0.80149  -0.79742  -0.79299  -0.77957
 Alpha  occ. eigenvalues --   -0.77656  -0.77037  -0.76988  -0.76091  -0.75403
 Alpha  occ. eigenvalues --   -0.75047  -0.74106  -0.73711  -0.71947  -0.71336
 Alpha  occ. eigenvalues --   -0.70219  -0.69680  -0.69520  -0.68161  -0.67941
 Alpha  occ. eigenvalues --   -0.67407  -0.66887  -0.66545  -0.66367  -0.65525
 Alpha  occ. eigenvalues --   -0.65344  -0.65075  -0.64329  -0.64228  -0.62097
 Alpha  occ. eigenvalues --   -0.61349  -0.61221  -0.60488  -0.60221  -0.59859
 Alpha  occ. eigenvalues --   -0.59231  -0.58377  -0.58251  -0.57384  -0.57162
 Alpha  occ. eigenvalues --   -0.56896  -0.56591  -0.56167  -0.55725  -0.55644
 Alpha  occ. eigenvalues --   -0.55317  -0.55032  -0.55013  -0.54591  -0.54454
 Alpha  occ. eigenvalues --   -0.54377  -0.54268  -0.53985  -0.53915  -0.53585
 Alpha  occ. eigenvalues --   -0.53332  -0.53130  -0.52952  -0.52857  -0.52659
 Alpha  occ. eigenvalues --   -0.52533  -0.52410  -0.52036  -0.51449  -0.51426
 Alpha  occ. eigenvalues --   -0.51339  -0.51085  -0.50916  -0.50693  -0.50542
 Alpha  occ. eigenvalues --   -0.50191  -0.50095  -0.49890  -0.49790  -0.49704
 Alpha  occ. eigenvalues --   -0.49624  -0.49494  -0.49207  -0.48951  -0.48859
 Alpha  occ. eigenvalues --   -0.48532  -0.48122  -0.47921  -0.47835  -0.47667
 Alpha  occ. eigenvalues --   -0.47370  -0.47312  -0.47183  -0.47061  -0.46861
 Alpha  occ. eigenvalues --   -0.46462  -0.46350  -0.45785  -0.45710  -0.45600
 Alpha  occ. eigenvalues --   -0.45488  -0.45411  -0.45211  -0.45180  -0.44958
 Alpha  occ. eigenvalues --   -0.44587  -0.44429  -0.44334  -0.44190  -0.43793
 Alpha  occ. eigenvalues --   -0.43544  -0.43399  -0.43348  -0.43312  -0.42892
 Alpha  occ. eigenvalues --   -0.42727  -0.42511  -0.42457  -0.41859  -0.41751
 Alpha  occ. eigenvalues --   -0.41578  -0.41471  -0.41113  -0.40982  -0.40894
 Alpha  occ. eigenvalues --   -0.40303  -0.39888  -0.39769  -0.39697  -0.39597
 Alpha  occ. eigenvalues --   -0.39339  -0.39275  -0.38696  -0.38357  -0.37825
 Alpha  occ. eigenvalues --   -0.37677  -0.37533  -0.36642  -0.36631  -0.36102
 Alpha  occ. eigenvalues --   -0.35869  -0.35587  -0.34781  -0.33821  -0.33509
 Alpha  occ. eigenvalues --   -0.32694  -0.32553  -0.31323  -0.30470  -0.26485
 Alpha  occ. eigenvalues --   -0.23330
 Alpha virt. eigenvalues --   -0.07189  -0.00227   0.02554   0.04145   0.04809
 Alpha virt. eigenvalues --    0.07014   0.07371   0.07535   0.08015   0.08995
 Alpha virt. eigenvalues --    0.10681   0.11335   0.11708   0.11981   0.12525

 Mulliken charges:
               1
     1  Mg   0.954035
     2  C   -0.001818
     3  C   -0.091745
     4  C   -0.071957
     5  C   -0.071620
     6  N   -0.346268
     7  C    0.026875
     8  C   -0.143712
     9  C   -0.124169
    10  C    0.058449
    11  C    0.020058
    12  C    0.030066
    13  C    0.051567
    14  C    0.202256
    15  O   -0.220737
    16  O   -0.386935
    17  N   -0.468730
    18  C    0.180870
    19  C   -0.179918
    20  C   -0.056844
    21  C    0.172344
    22  C    0.073665
    23  C    0.029138
    24  O   -0.220451
    25  C   -0.002860
    26  N   -0.387391
    27  C    0.069102
    28  C   -0.130426
    29  C   -0.027223
    30  C   -0.009661
    31  C    0.021683
    32  C   -0.024756
    33  C   -0.058840
    34  N   -0.396528
    35  C    0.139765
    36  C   -0.194249
    37  C   -0.114436
    38  C    0.140314
    39  C    0.104359
    40  C    0.188653
    41  O   -0.228922
    42  C   -0.077428
    43  C    0.266248
    44  O   -0.273305
    45  O   -0.345271
    46  C    0.132030
    47  C    0.241013
    48  C   -0.138361
    49  C   -0.256257
    50  C    0.029778
    51  C    0.047816
    52  C   -0.036628
    53  C   -0.035745
    54  C   -0.179574
    55  C    0.003285
    56  C    0.030399
    57  C   -0.023091
    58  C   -0.031732
    59  C   -0.199719
    60  C   -0.014339
    61  C    0.043243
    62  C   -0.062233
    63  C   -0.008147
    64  C   -0.193692
    65  C    0.003790
    66  C   -0.009808
    67  H    0.000757
    68  H   -0.031632
    69  H   -0.017496
    70  H    0.031334
    71  H    0.024935
    72  H    0.065856
    73  H    0.042960
    74  H    0.051929
    75  H    0.032110
    76  H    0.047087
    77  H    0.047599
    78  H    0.061884
    79  H    0.048236
    80  H    0.066846
    81  H    0.050974
    82  H    0.064259
    83  H    0.062918
    84  H    0.066941
    85  H    0.048522
    86  H    0.038036
    87  H    0.044175
    88  H    0.040278
    89  H    0.049147
    90  H    0.044938
    91  H    0.029854
    92  H    0.041554
    93  H    0.036101
    94  H    0.041918
    95  H    0.076207
    96  H    0.058115
    97  H    0.024841
    98  H    0.078150
    99  H    0.053906
   100  H    0.064417
   101  H    0.040502
   102  H    0.053189
   103  H    0.058648
   104  H    0.029787
   105  H    0.063418
   106  H    0.030329
   107  H    0.047605
   108  H    0.044565
   109  H    0.024520
   110  H    0.013070
   111  H    0.033082
   112  H    0.011011
   113  H    0.013423
   114  H    0.019725
   115  H    0.030318
   116  H    0.024908
   117  H    0.028856
   118  H    0.017856
   119  H    0.006956
   120  H    0.029478
   121  H    0.031797
   122  H    0.017152
   123  H    0.014755
   124  H    0.021995
   125  H    0.026884
   126  H    0.032564
   127  H    0.042444
   128  H    0.024000
   129  H    0.023043
   130  H    0.014336
   131  H    0.002079
   132  H    0.012917
   133  H    0.020521
   134  H    0.022343
   135  H    0.043190
   136  H    0.019079
   137  H    0.024785
   138  H    0.032434
   139  H    0.031015
   140  H    0.018488
 Sum of Mulliken charges =  -0.00000

 Dipole moment (field-independent basis, Debye):
    X=             -1.0331    Y=              4.6915    Z=              0.9846  Tot=              4.9038
 Quadrupole moment (field-independent basis, Debye-Ang):
   XX=           -398.2658   YY=           -416.1798   ZZ=           -383.0532
   XY=             55.7449   XZ=              6.5320   YZ=             27.5658

 Normal termination of Gaussian 16 at Wed May  4 04:36:22 2022.
