 Gaussian 16, Revision A.03,
 Gaussian 16:  ES64L-G16RevA.03 25-Dec-2016

 --------------------
 #p ZINDO=(nstates=5)
 --------------------

 ------------------------------
 step_1351_chromophore_17 ZINDO
 ------------------------------
 Symbolic Z-matrix:
 Charge =  0 Multiplicity = 1

                         Standard orientation:
 ---------------------------------------------------------------------
 Center     Atomic      Atomic             Coordinates (Angstroms)
 Number     Number       Type             X           Y           Z
 ---------------------------------------------------------------------
      1         12           0        4.609283    1.557987   -0.567070
      2          6           0        4.542711   -2.035426   -0.643895
      3          6           0        1.899174    1.446179   -2.774854
      4          6           0        3.966294    4.631686    0.153538
      5          6           0        6.909330    1.268161    2.102171
      6          7           0        3.308924   -0.092552   -1.462092
      7          6           0        3.518943   -1.445146   -1.335411
      8          6           0        2.523373   -2.186506   -2.190695
      9          6           0        2.131223   -1.113962   -3.278973
     10          6           0        2.422067    0.208311   -2.480072
     11          6           0        2.971018   -1.290712   -4.685413
     12          6           0        1.306830   -2.727463   -1.293347
     13          6           0        0.737762   -4.082038   -1.696851
     14          6           0        0.116650   -4.909023   -0.510744
     15          8           0        0.385479   -6.001051   -0.101844
     16          8           0       -0.951543   -4.144422   -0.014762
     17          7           0        3.229282    2.945105   -1.362775
     18          6           0        2.200056    2.684279   -2.224730
     19          6           0        1.536633    3.971332   -2.442562
     20          6           0        2.107188    4.977054   -1.609990
     21          6           0        3.186491    4.246784   -0.909562
     22          6           0        0.313127    4.089239   -3.338133
     23          6           0        1.658572    6.450712   -1.469762
     24          8           0        0.656952    6.843379   -2.034797
     25          6           0        2.364841    7.473976   -0.562699
     26          7           0        5.391414    2.764533    0.913084
     27          6           0        5.068628    4.085948    0.888175
     28          6           0        5.798942    4.847920    2.060105
     29          6           0        6.694586    3.745292    2.705868
     30          6           0        6.351261    2.511425    1.837893
     31          6           0        6.622251    6.231026    1.838723
     32          6           0        6.502818    3.589828    4.192188
     33          6           0        7.704843    3.469575    5.161881
     34          7           0        5.650079   -0.026866    0.504917
     35          6           0        6.621005    0.021186    1.518857
     36          6           0        7.086722   -1.288821    1.836487
     37          6           0        6.303034   -2.125423    1.020152
     38          6           0        5.510142   -1.304309    0.189473
     39          6           0        8.117015   -1.709582    2.830518
     40          6           0        6.063909   -3.579694    0.709557
     41          8           0        6.650762   -4.600333    1.132515
     42          6           0        4.880226   -3.536727   -0.336447
     43          6           0        5.269929   -4.264272   -1.630475
     44          8           0        6.012254   -3.834138   -2.527968
     45          8           0        4.852140   -5.570271   -1.637070
     46          6           0        5.337924   -6.433283   -2.685340
     47          6           0       -1.621808   -4.990100    1.034668
     48          6           0       -3.050967   -4.464806    1.369775
     49          6           0       -3.854589   -4.560229    2.499528
     50          6           0       -3.665829   -5.639578    3.586106
     51          6           0       -5.126272   -3.702647    2.693333
     52          6           0       -5.932086   -3.419116    1.402090
     53          6           0       -5.934273   -1.954822    0.945919
     54          6           0       -7.294358   -1.249347    0.929720
     55          6           0       -7.697638   -0.949227    2.388887
     56          6           0       -7.152156    0.071655    0.085019
     57          6           0       -8.013957    0.211168   -1.181421
     58          6           0       -8.653917    1.645313   -1.195061
     59          6           0      -10.152073    1.645857   -1.844863
     60          6           0      -10.124948    2.566188   -3.135479
     61          6           0      -11.307616    2.018679   -0.777614
     62          6           0      -12.454985    1.026953   -0.705781
     63          6           0      -12.985188    0.643725    0.734772
     64          6           0      -14.032030    1.665224    1.278060
     65          6           0      -13.346271    2.854938    1.983954
     66          6           0      -15.102904    0.996128    2.237906
     67          1           0        1.273203    1.456678   -3.668798
     68          1           0        3.858260    5.694679    0.382019
     69          1           0        7.636882    1.353165    2.911175
     70          1           0        3.038721   -3.022146   -2.663693
     71          1           0        1.080498   -1.187093   -3.562252
     72          1           0        3.788909   -1.976668   -4.463824
     73          1           0        3.314128   -0.272748   -4.871838
     74          1           0        2.267709   -1.679454   -5.421591
     75          1           0        0.657359   -1.862885   -1.429416
     76          1           0        1.581118   -2.696248   -0.238542
     77          1           0        1.583579   -4.631462   -2.109281
     78          1           0       -0.047691   -3.972401   -2.444646
     79          1           0        0.489972    3.480917   -4.225556
     80          1           0       -0.129612    5.074066   -3.484551
     81          1           0       -0.426369    3.617534   -2.692088
     82          1           0        2.294938    6.987707    0.410367
     83          1           0        1.754446    8.375385   -0.599016
     84          1           0        3.403109    7.591036   -0.873704
     85          1           0        4.930422    5.075841    2.677819
     86          1           0        7.718496    3.896113    2.364073
     87          1           0        6.144199    6.989952    2.457793
     88          1           0        6.462924    6.517251    0.798776
     89          1           0        7.677309    6.074220    2.062109
     90          1           0        5.859844    2.748488    4.447257
     91          1           0        6.069808    4.497751    4.611926
     92          1           0        7.763432    4.440015    5.653982
     93          1           0        8.625544    3.212561    4.638696
     94          1           0        7.474333    2.665139    5.860229
     95          1           0        8.754512   -2.512606    2.460450
     96          1           0        7.447457   -2.009381    3.636956
     97          1           0        8.639523   -0.819264    3.181075
     98          1           0        4.082798   -4.077833    0.173670
     99          1           0        5.821581   -7.340377   -2.322625
    100          1           0        6.031975   -6.051203   -3.433831
    101          1           0        4.446192   -6.768653   -3.213580
    102          1           0       -1.012415   -5.181264    1.918075
    103          1           0       -1.907162   -5.986185    0.695122
    104          1           0       -3.338982   -3.635218    0.723794
    105          1           0       -3.549499   -6.575966    3.040678
    106          1           0       -4.489120   -5.551245    4.294171
    107          1           0       -2.783509   -5.330432    4.147174
    108          1           0       -4.833335   -2.740048    3.113669
    109          1           0       -5.881721   -4.184350    3.313931
    110          1           0       -6.964647   -3.678135    1.634866
    111          1           0       -5.611011   -4.018763    0.550520
    112          1           0       -5.531618   -1.985601   -0.067611
    113          1           0       -5.179323   -1.396943    1.499008
    114          1           0       -7.997555   -1.940771    0.465273
    115          1           0       -8.234362   -1.787580    2.832434
    116          1           0       -8.342520   -0.074508    2.314964
    117          1           0       -6.897398   -0.683052    3.080349
    118          1           0       -6.118287    0.176520   -0.242015
    119          1           0       -7.345862    0.849811    0.822909
    120          1           0       -8.892945   -0.432853   -1.216008
    121          1           0       -7.401907    0.104593   -2.076846
    122          1           0       -7.948343    2.281227   -1.728702
    123          1           0       -8.748148    2.097896   -0.207772
    124          1           0      -10.254261    0.666965   -2.313266
    125          1           0      -11.186664    2.681622   -3.352700
    126          1           0       -9.623485    1.911071   -3.848685
    127          1           0       -9.615832    3.516690   -2.974264
    128          1           0      -11.789085    2.943602   -1.095850
    129          1           0      -10.855702    2.135496    0.207609
    130          1           0      -12.348788    0.146087   -1.338705
    131          1           0      -13.328822    1.459409   -1.192981
    132          1           0      -12.122628    0.630244    1.400729
    133          1           0      -13.272543   -0.400832    0.616378
    134          1           0      -14.595317    1.961213    0.393646
    135          1           0      -13.000531    3.667409    1.344254
    136          1           0      -12.505586    2.486853    2.571649
    137          1           0      -13.984412    3.234717    2.781629
    138          1           0      -16.101830    1.185736    1.846267
    139          1           0      -15.006358    1.295896    3.281919
    140          1           0      -15.035535   -0.090969    2.228265
 ---------------------------------------------------------------------

 SCF Done:  E(RZINDO/S) =  -473.739348462     A.U. after   19 cycles

 Excitation energies and oscillator strengths:

 Excited State   1:      Singlet-A      1.3260 eV  935.02 nm  f=0.5713  <S**2>=0.000
     175 ->178        -0.16032
     176 ->177         0.66753
 This state for optimization and/or second-order correction.
 Total Energy, E(CIS/TDA) =  -473.690618616
 Copying the excited state density for this state as the 1-particle RhoCI density.

 Excited State   2:      Singlet-A      1.9865 eV  624.13 nm  f=0.0264  <S**2>=0.000
     175 ->177         0.52732
     176 ->178         0.43295

 Excited State   3:      Singlet-A      2.9718 eV  417.21 nm  f=1.0168  <S**2>=0.000
     171 ->177         0.14542
     175 ->177        -0.38522
     176 ->178         0.50800
     176 ->179         0.13509
     176 ->180         0.13091

 Excited State   4:      Singlet-A      2.9842 eV  415.47 nm  f=0.0136  <S**2>=0.000
     167 ->179        -0.11264
     168 ->177         0.27769
     168 ->178        -0.21788
     168 ->179        -0.34717
     168 ->181        -0.29613
     168 ->184         0.12975
     168 ->186        -0.23909

 Excited State   5:      Singlet-A      3.1164 eV  397.84 nm  f=0.0491  <S**2>=0.000
     176 ->178        -0.12825
     176 ->180         0.66940

 The electronic state is 1-A.
 Alpha  occ. eigenvalues --   -1.82478  -1.80580  -1.79516  -1.72331  -1.70798
 Alpha  occ. eigenvalues --   -1.70430  -1.63599  -1.60342  -1.59485  -1.54753
 Alpha  occ. eigenvalues --   -1.53271  -1.48733  -1.48443  -1.45912  -1.45185
 Alpha  occ. eigenvalues --   -1.44651  -1.41631  -1.39816  -1.37994  -1.37508
 Alpha  occ. eigenvalues --   -1.34066  -1.32985  -1.32872  -1.31802  -1.29142
 Alpha  occ. eigenvalues --   -1.27167  -1.26834  -1.22459  -1.20691  -1.17922
 Alpha  occ. eigenvalues --   -1.16432  -1.15220  -1.14648  -1.13998  -1.13513
 Alpha  occ. eigenvalues --   -1.11369  -1.10644  -1.09148  -1.05442  -1.03421
 Alpha  occ. eigenvalues --   -1.01846  -1.00122  -0.98134  -0.97362  -0.96309
 Alpha  occ. eigenvalues --   -0.96176  -0.94255  -0.93112  -0.92984  -0.92633
 Alpha  occ. eigenvalues --   -0.90551  -0.90235  -0.89429  -0.88021  -0.86871
 Alpha  occ. eigenvalues --   -0.86256  -0.84929  -0.83501  -0.81723  -0.79859
 Alpha  occ. eigenvalues --   -0.79258  -0.77274  -0.76272  -0.76060  -0.76032
 Alpha  occ. eigenvalues --   -0.74668  -0.74280  -0.73864  -0.73416  -0.72963
 Alpha  occ. eigenvalues --   -0.72226  -0.71868  -0.71688  -0.71173  -0.70479
 Alpha  occ. eigenvalues --   -0.69966  -0.69363  -0.68891  -0.68233  -0.67742
 Alpha  occ. eigenvalues --   -0.67527  -0.66468  -0.65952  -0.65568  -0.65223
 Alpha  occ. eigenvalues --   -0.64930  -0.64514  -0.64355  -0.63981  -0.63714
 Alpha  occ. eigenvalues --   -0.63434  -0.63274  -0.63203  -0.62888  -0.62814
 Alpha  occ. eigenvalues --   -0.62107  -0.61579  -0.61351  -0.60647  -0.59963
 Alpha  occ. eigenvalues --   -0.59490  -0.59394  -0.58849  -0.58767  -0.58730
 Alpha  occ. eigenvalues --   -0.58611  -0.58250  -0.57812  -0.57352  -0.56606
 Alpha  occ. eigenvalues --   -0.55847  -0.55569  -0.55302  -0.55018  -0.54102
 Alpha  occ. eigenvalues --   -0.53927  -0.53881  -0.53683  -0.53142  -0.52828
 Alpha  occ. eigenvalues --   -0.52689  -0.52482  -0.52057  -0.51828  -0.51719
 Alpha  occ. eigenvalues --   -0.51197  -0.50938  -0.50496  -0.50096  -0.49985
 Alpha  occ. eigenvalues --   -0.49758  -0.49694  -0.49683  -0.49510  -0.49033
 Alpha  occ. eigenvalues --   -0.48717  -0.48665  -0.48198  -0.48004  -0.47815
 Alpha  occ. eigenvalues --   -0.47429  -0.47385  -0.46899  -0.46890  -0.46566
 Alpha  occ. eigenvalues --   -0.46461  -0.46350  -0.46132  -0.45900  -0.45807
 Alpha  occ. eigenvalues --   -0.45180  -0.45041  -0.44844  -0.44571  -0.44175
 Alpha  occ. eigenvalues --   -0.44120  -0.43760  -0.43474  -0.43118  -0.42493
 Alpha  occ. eigenvalues --   -0.41876  -0.40808  -0.40703  -0.39505  -0.39029
 Alpha  occ. eigenvalues --   -0.37991  -0.37213  -0.36252  -0.35095  -0.34598
 Alpha  occ. eigenvalues --   -0.33810  -0.33040  -0.31593  -0.31015  -0.27177
 Alpha  occ. eigenvalues --   -0.22106
 Alpha virt. eigenvalues --   -0.08414  -0.02505  -0.00329   0.00916   0.01031
 Alpha virt. eigenvalues --    0.01983   0.02903   0.02963   0.04287   0.04372
 Alpha virt. eigenvalues --    0.05788   0.06375   0.07016   0.07517   0.07870

 Mulliken charges:
               1
     1  Mg   0.434505
     2  C   -0.057913
     3  C   -0.085587
     4  C   -0.072415
     5  C   -0.037314
     6  N   -0.314886
     7  C    0.127259
     8  C   -0.004568
     9  C   -0.011216
    10  C    0.170578
    11  C   -0.055811
    12  C   -0.025397
    13  C    0.011565
    14  C    0.461217
    15  O   -0.484637
    16  O   -0.273643
    17  N   -0.334177
    18  C    0.155940
    19  C    0.053265
    20  C   -0.047317
    21  C    0.132138
    22  C   -0.045860
    23  C    0.325426
    24  O   -0.511706
    25  C   -0.027451
    26  N   -0.238241
    27  C    0.134922
    28  C   -0.009167
    29  C    0.007207
    30  C    0.069600
    31  C   -0.054645
    32  C   -0.029624
    33  C   -0.060987
    34  N   -0.322724
    35  C    0.051795
    36  C    0.035251
    37  C   -0.081152
    38  C    0.118134
    39  C   -0.038843
    40  C    0.327199
    41  O   -0.526770
    42  C    0.063812
    43  C    0.479715
    44  O   -0.532438
    45  O   -0.256293
    46  C    0.079025
    47  C    0.103616
    48  C   -0.108592
    49  C   -0.015813
    50  C   -0.050837
    51  C   -0.020857
    52  C   -0.039586
    53  C   -0.034515
    54  C   -0.009907
    55  C   -0.055892
    56  C   -0.039180
    57  C   -0.036440
    58  C   -0.051136
    59  C   -0.037807
    60  C   -0.065306
    61  C   -0.027364
    62  C   -0.044199
    63  C   -0.036896
    64  C   -0.004755
    65  C   -0.053837
    66  C   -0.063101
    67  H    0.023553
    68  H    0.010922
    69  H    0.021540
    70  H    0.027831
    71  H    0.022289
    72  H    0.040124
    73  H    0.030638
    74  H    0.029914
    75  H    0.025033
    76  H    0.031468
    77  H    0.037398
    78  H    0.045294
    79  H    0.032825
    80  H    0.051707
    81  H    0.030330
    82  H    0.039491
    83  H    0.046975
    84  H    0.042096
    85  H    0.030610
    86  H    0.033322
    87  H    0.024950
    88  H    0.021704
    89  H    0.035014
    90  H    0.025646
    91  H    0.012448
    92  H    0.022325
    93  H    0.021491
    94  H    0.022153
    95  H    0.049032
    96  H    0.036997
    97  H    0.020221
    98  H    0.057294
    99  H    0.037339
   100  H    0.052373
   101  H    0.023297
   102  H    0.056667
   103  H    0.050222
   104  H    0.022176
   105  H    0.041033
   106  H    0.025795
   107  H    0.028717
   108  H    0.033538
   109  H    0.021632
   110  H    0.011323
   111  H    0.024225
   112  H    0.002799
   113  H    0.018743
   114  H    0.026366
   115  H    0.016405
   116  H    0.013100
   117  H    0.022892
   118  H    0.017017
   119  H    0.022073
   120  H    0.025892
   121  H    0.024869
   122  H    0.016518
   123  H    0.020138
   124  H    0.024999
   125  H    0.018713
   126  H    0.021822
   127  H    0.028461
   128  H    0.021859
   129  H    0.026090
   130  H    0.018568
   131  H    0.006977
   132  H    0.015055
   133  H    0.019877
   134  H    0.023134
   135  H    0.024695
   136  H    0.016125
   137  H    0.014608
   138  H    0.018112
   139  H    0.024115
   140  H    0.013641
 Sum of Mulliken charges =  -0.00000

 Dipole moment (field-independent basis, Debye):
    X=             -3.0154    Y=              7.2889    Z=              0.5071  Tot=              7.9043
 N-N= 4.321685680479D+03 E-N= 0.000000000000D+00  KE=-9.317272437268D+03
 Leave Link  601 at Wed May  4 04:49:42 2022, MaxMem=  6710886400 cpu:               0.8 elap:               0.0
 (Enter /sw/apps/gaussian-16.0/g16/l9999.exe)
 1\1\GINC-BP1-COMPUTE036\SP\RZINDO CIS\STO-3G\C55H74Mg1N4O6\OF15641\04-
 May-2022\0\\#p ZINDO=(nstates=5)\\step_1351_chromophore_17 ZINDO\\0,1\
 Mg,0,29.944,59.308,40.648\C,0,26.839,57.817,39.619\C,0,31.505,56.484,3
 9.299\C,0,32.733,60.921,40.641\C,0,28.09,62.24,41.33\N,0,29.253,57.471
 ,39.48\C,0,27.949,57.12,39.223\C,0,27.919,55.771,38.551\C,0,29.285,55.
 125,39.004\C,0,30.131,56.424,39.265\C,0,29.12,54.116,40.296\C,0,27.734
 ,55.939,36.965\C,0,26.88,54.878,36.282\C,0,26.127,55.376,34.993\O,0,24

 Normal termination of Gaussian 16 at Wed May  4 04:49:42 2022.
