 Gaussian 16, Revision A.03,
 Gaussian 16:  ES64L-G16RevA.03 25-Dec-2016

 ------------------------------
 #p blyp/Def2SVP td=(nstates=5)
 ------------------------------

 ---------------------------------------------------
 step_1801_chromophore_25 TDDFT with blyp functional
 ---------------------------------------------------
 Symbolic Z-matrix:
 Charge =  0 Multiplicity = 1

                         Standard orientation:
 ---------------------------------------------------------------------
 Center     Atomic      Atomic             Coordinates (Angstroms)
 Number     Number       Type             X           Y           Z
 ---------------------------------------------------------------------
      1         12           0        6.139640    0.387263   -0.007125
      2          6           0        3.798801   -2.161889   -0.165399
      3          6           0        3.676664    2.687569   -0.738268
      4          6           0        8.480127    2.805736   -0.303141
      5          6           0        8.593292   -1.880645    0.696497
      6          7           0        3.960703    0.226443   -0.510972
      7          6           0        3.245568   -0.881540   -0.267324
      8          6           0        1.724520   -0.538946   -0.281223
      9          6           0        1.689180    1.058135   -0.606882
     10          6           0        3.228697    1.355063   -0.682609
     11          6           0        0.890386    1.593353   -1.838935
     12          6           0        0.823830   -0.957660    0.990494
     13          6           0       -0.204720   -2.053291    0.819267
     14          6           0       -1.493560   -1.880680    1.546426
     15          8           0       -1.738448   -2.397209    2.607819
     16          8           0       -2.370338   -1.206308    0.708784
     17          7           0        6.047219    2.441179   -0.476729
     18          6           0        4.964867    3.230865   -0.630515
     19          6           0        5.387940    4.578211   -0.822685
     20          6           0        6.830469    4.626644   -0.646806
     21          6           0        7.130368    3.229039   -0.503518
     22          6           0        4.427050    5.717831   -0.911135
     23          6           0        7.797237    5.834585   -0.708238
     24          8           0        9.016446    5.799817   -0.578183
     25          6           0        7.263432    7.278846   -0.958111
     26          7           0        8.275706    0.438301    0.041177
     27          6           0        9.025628    1.551026   -0.078236
     28          6           0       10.485705    1.373334    0.419726
     29          6           0       10.469982   -0.119623    0.882234
     30          6           0        9.023601   -0.551598    0.567973
     31          6           0       11.699893    1.597825   -0.462578
     32          6           0       10.970410   -0.364133    2.340029
     33          6           0       10.122530    0.285940    3.475165
     34          7           0        6.261928   -1.637285    0.210795
     35          6           0        7.330920   -2.453122    0.516251
     36          6           0        6.886369   -3.783968    0.698857
     37          6           0        5.482212   -3.781549    0.413275
     38          6           0        5.186145   -2.434362    0.077778
     39          6           0        7.642858   -4.978999    1.075277
     40          6           0        4.219717   -4.504681    0.295972
     41          8           0        4.053173   -5.729027    0.424626
     42          6           0        3.077275   -3.488183   -0.102619
     43          6           0        2.500849   -3.928313   -1.456339
     44          8           0        2.990976   -3.845436   -2.593145
     45          8           0        1.241593   -4.360351   -1.217779
     46          6           0        0.477983   -4.744800   -2.435239
     47          6           0       -3.750894   -1.168591    1.312373
     48          6           0       -4.672688   -1.154863    0.110086
     49          6           0       -5.668380   -2.006213   -0.173681
     50          6           0       -5.807304   -3.365292    0.521069
     51          6           0       -6.649638   -1.745428   -1.253477
     52          6           0       -7.302313   -0.387422   -1.484529
     53          6           0       -8.918273   -0.432725   -1.493764
     54          6           0       -9.641075    0.880632   -1.091510
     55          6           0      -10.330181    0.981030    0.291196
     56          6           0      -10.704338    1.183493   -2.204814
     57          6           0      -11.789900    0.115910   -2.583677
     58          6           0      -13.261199    0.573972   -2.375724
     59          6           0      -14.037638   -0.010698   -1.185031
     60          6           0      -15.282629   -0.770276   -1.626935
     61          6           0      -14.497057    1.186183   -0.258567
     62          6           0      -14.697129    0.833793    1.200341
     63          6           0      -14.950212    2.095053    2.090463
     64          6           0      -13.805770    2.170605    3.210869
     65          6           0      -14.329855    2.905846    4.456389
     66          6           0      -12.517537    2.803185    2.681449
     67          1           0        2.885389    3.439536   -0.719435
     68          1           0        9.160617    3.632565   -0.091583
     69          1           0        9.369549   -2.539928    1.089420
     70          1           0        1.461935   -0.910264   -1.271098
     71          1           0        1.145573    1.489554    0.233705
     72          1           0        0.393807    0.796409   -2.393578
     73          1           0        1.585773    2.129601   -2.484952
     74          1           0        0.225627    2.378553   -1.479222
     75          1           0        0.354074   -0.057462    1.385972
     76          1           0        1.515942   -1.268569    1.772943
     77          1           0        0.145454   -3.038735    1.125836
     78          1           0       -0.478126   -2.232586   -0.220210
     79          1           0        4.793168    6.607224   -1.423227
     80          1           0        4.019223    6.007899    0.056970
     81          1           0        3.592518    5.374521   -1.522005
     82          1           0        6.560572    7.339755   -1.788447
     83          1           0        8.066417    7.909555   -1.339838
     84          1           0        6.803540    7.524312   -0.000633
     85          1           0       10.600109    1.935253    1.346911
     86          1           0       11.036606   -0.772894    0.218702
     87          1           0       11.291999    1.746819   -1.462943
     88          1           0       12.307412    0.693341   -0.458476
     89          1           0       12.290395    2.459493   -0.149842
     90          1           0       11.958201    0.071700    2.492567
     91          1           0       10.976326   -1.438813    2.523498
     92          1           0        9.550122    1.153744    3.144470
     93          1           0       10.777936    0.672951    4.255784
     94          1           0        9.507124   -0.492291    3.926861
     95          1           0        8.328300   -4.842590    1.912584
     96          1           0        8.301593   -5.209798    0.238067
     97          1           0        6.935093   -5.766514    1.332638
     98          1           0        2.290104   -3.629726    0.636847
     99          1           0        0.047440   -3.942703   -3.034057
    100          1           0       -0.265031   -5.498007   -2.174204
    101          1           0        1.120711   -5.227067   -3.172296
    102          1           0       -3.728588   -0.188127    1.788959
    103          1           0       -4.020624   -1.866917    2.105769
    104          1           0       -4.715901   -0.243799   -0.485837
    105          1           0       -6.554510   -3.358122    1.314098
    106          1           0       -4.862974   -3.746098    0.909256
    107          1           0       -5.993694   -4.144214   -0.217399
    108          1           0       -7.428572   -2.506704   -1.284034
    109          1           0       -6.106034   -2.032812   -2.153822
    110          1           0       -7.022117    0.131022   -2.401174
    111          1           0       -6.961486    0.228282   -0.652892
    112          1           0       -9.345755   -1.198913   -0.848270
    113          1           0       -9.124874   -0.786346   -2.503976
    114          1           0       -8.823545    1.600807   -1.116594
    115          1           0      -11.388875    1.230861    0.236194
    116          1           0       -9.871118    1.835747    0.788013
    117          1           0      -10.348398    0.120565    0.959715
    118          1           0      -10.180917    1.516969   -3.100431
    119          1           0      -11.263923    2.100515   -2.015541
    120          1           0      -11.561316   -0.593769   -1.788216
    121          1           0      -11.606296   -0.194365   -3.612057
    122          1           0      -13.709175    0.304249   -3.331921
    123          1           0      -13.255051    1.655604   -2.241358
    124          1           0      -13.406508   -0.710146   -0.635221
    125          1           0      -16.069597   -0.730910   -0.873409
    126          1           0      -15.105134   -1.845140   -1.679082
    127          1           0      -15.526268   -0.376599   -2.613586
    128          1           0      -15.321507    1.717856   -0.733088
    129          1           0      -13.671695    1.896047   -0.199613
    130          1           0      -13.880068    0.274051    1.657043
    131          1           0      -15.612526    0.247898    1.284350
    132          1           0      -15.979211    1.887544    2.383817
    133          1           0      -14.958381    3.021264    1.514849
    134          1           0      -13.714497    1.105812    3.421712
    135          1           0      -15.286237    3.376267    4.229799
    136          1           0      -13.680721    3.689931    4.846257
    137          1           0      -14.380084    2.150916    5.242210
    138          1           0      -11.895417    2.049107    2.200157
    139          1           0      -11.965544    3.332973    3.458391
    140          1           0      -12.823413    3.509039    1.910143
 ---------------------------------------------------------------------

 SCF Done:  E(RB-LYP) =  -3007.37556562     A.U. after   21 cycles

 Excitation energies and oscillator strengths:

 Excited State   1:      Singlet-A      1.8488 eV  670.63 nm  f=0.2814  <S**2>=0.000
     245 -> 248       -0.19954
     246 -> 247        0.67989
     246 <- 247       -0.14188
 This state for optimization and/or second-order correction.
 Total Energy, E(TD-HF/TD-DFT) =  -3007.30762483
 Copying the excited state density for this state as the 1-particle RhoCI density.

 Excited State   2:      Singlet-A      1.9095 eV  649.29 nm  f=0.0402  <S**2>=0.000
     243 -> 247        0.32671
     244 -> 247        0.48280
     245 -> 247       -0.37096

 Excited State   3:      Singlet-A      1.9341 eV  641.05 nm  f=0.0041  <S**2>=0.000
     243 -> 247        0.51585
     244 -> 247       -0.46204
     245 -> 247       -0.13212

 Excited State   4:      Singlet-A      2.0177 eV  614.48 nm  f=0.0724  <S**2>=0.000
     243 -> 247        0.34952
     244 -> 247        0.21975
     245 -> 247        0.52764
     246 -> 248        0.20052

 Excited State   5:      Singlet-A      2.3760 eV  521.83 nm  f=0.0002  <S**2>=0.000
     241 -> 247        0.70672

 The electronic state is 1-A.
 Alpha  occ. eigenvalues --  -46.27484 -18.83038 -18.81716 -18.76813 -18.76728
 Alpha  occ. eigenvalues --  -18.76160 -18.75621 -14.03395 -14.03188 -14.01092
 Alpha  occ. eigenvalues --  -14.00789 -10.04282 -10.03271 -10.00796  -9.99922
 Alpha  occ. eigenvalues --   -9.97779  -9.97746  -9.96944  -9.96903  -9.96422
 Alpha  occ. eigenvalues --   -9.96060  -9.95472  -9.95355  -9.95115  -9.94798
 Alpha  occ. eigenvalues --   -9.94604  -9.94578  -9.94232  -9.94145  -9.93982
 Alpha  occ. eigenvalues --   -9.93814  -9.93694  -9.93629  -9.93483  -9.93420
 Alpha  occ. eigenvalues --   -9.93259  -9.93002  -9.92955  -9.92654  -9.92640
 Alpha  occ. eigenvalues --   -9.92637  -9.92480  -9.92406  -9.92337  -9.92298
 Alpha  occ. eigenvalues --   -9.92170  -9.92145  -9.92068  -9.92039  -9.91997
 Alpha  occ. eigenvalues --   -9.91905  -9.91794  -9.91667  -9.91547  -9.91529
 Alpha  occ. eigenvalues --   -9.91359  -9.91353  -9.91270  -9.91039  -9.91037
 Alpha  occ. eigenvalues --   -9.90973  -9.90903  -9.90836  -9.90798  -9.90593
 Alpha  occ. eigenvalues --   -9.90521  -2.92090  -1.72513  -1.71972  -1.71805
 Alpha  occ. eigenvalues --   -0.98097  -0.97166  -0.91835  -0.90244  -0.90114
 Alpha  occ. eigenvalues --   -0.88974  -0.87237  -0.86581  -0.86336  -0.85535
 Alpha  occ. eigenvalues --   -0.75426  -0.73944  -0.73079  -0.72561  -0.72096
 Alpha  occ. eigenvalues --   -0.71837  -0.71771  -0.70861  -0.70797  -0.70559
 Alpha  occ. eigenvalues --   -0.70208  -0.69130  -0.67913  -0.67587  -0.67246
 Alpha  occ. eigenvalues --   -0.66617  -0.65920  -0.65162  -0.64949  -0.64353
 Alpha  occ. eigenvalues --   -0.64201  -0.62763  -0.62288  -0.61858  -0.61010
 Alpha  occ. eigenvalues --   -0.60864  -0.60139  -0.60039  -0.59450  -0.58806
 Alpha  occ. eigenvalues --   -0.58267  -0.57764  -0.56674  -0.55967  -0.55304
 Alpha  occ. eigenvalues --   -0.54216  -0.53964  -0.53137  -0.52855  -0.51529
 Alpha  occ. eigenvalues --   -0.51089  -0.51051  -0.50905  -0.50396  -0.49857
 Alpha  occ. eigenvalues --   -0.49224  -0.48880  -0.48836  -0.48194  -0.46977
 Alpha  occ. eigenvalues --   -0.46106  -0.45729  -0.45268  -0.44909  -0.44547
 Alpha  occ. eigenvalues --   -0.43983  -0.43338  -0.42887  -0.42621  -0.42478
 Alpha  occ. eigenvalues --   -0.41967  -0.41817  -0.41654  -0.41486  -0.41398
 Alpha  occ. eigenvalues --   -0.41299  -0.41125  -0.40437  -0.40292  -0.40149
 Alpha  occ. eigenvalues --   -0.40062  -0.39789  -0.39676  -0.39573  -0.39125
 Alpha  occ. eigenvalues --   -0.38955  -0.38675  -0.38604  -0.38521  -0.38433
 Alpha  occ. eigenvalues --   -0.38320  -0.37837  -0.37616  -0.37546  -0.37412
 Alpha  occ. eigenvalues --   -0.37180  -0.37128  -0.37033  -0.36726  -0.36382
 Alpha  occ. eigenvalues --   -0.36287  -0.36124  -0.35937  -0.35874  -0.35740
 Alpha  occ. eigenvalues --   -0.35551  -0.35534  -0.35227  -0.34729  -0.34688
 Alpha  occ. eigenvalues --   -0.34514  -0.34463  -0.34225  -0.34137  -0.33934
 Alpha  occ. eigenvalues --   -0.33764  -0.33540  -0.33307  -0.33192  -0.33048
 Alpha  occ. eigenvalues --   -0.32746  -0.32542  -0.32421  -0.32395  -0.32237
 Alpha  occ. eigenvalues --   -0.32007  -0.31964  -0.31675  -0.31581  -0.31230
 Alpha  occ. eigenvalues --   -0.31206  -0.31077  -0.30904  -0.30794  -0.30693
 Alpha  occ. eigenvalues --   -0.30632  -0.30530  -0.30388  -0.30213  -0.30008
 Alpha  occ. eigenvalues --   -0.29824  -0.29698  -0.29349  -0.29118  -0.29026
 Alpha  occ. eigenvalues --   -0.28578  -0.28497  -0.28213  -0.28078  -0.27885
 Alpha  occ. eigenvalues --   -0.27755  -0.27431  -0.27105  -0.26730  -0.26683
 Alpha  occ. eigenvalues --   -0.26455  -0.26326  -0.25742  -0.25509  -0.25392
 Alpha  occ. eigenvalues --   -0.25298  -0.24930  -0.24687  -0.24023  -0.23668
 Alpha  occ. eigenvalues --   -0.23641  -0.22306  -0.22027  -0.21655  -0.20949
 Alpha  occ. eigenvalues --   -0.20510  -0.20421  -0.18854  -0.18728  -0.17243
 Alpha  occ. eigenvalues --   -0.16228
 Alpha virt. eigenvalues --   -0.11780  -0.06841  -0.06471  -0.04877  -0.03237
 Alpha virt. eigenvalues --   -0.02883  -0.02455  -0.01925  -0.01189  -0.00010
 Alpha virt. eigenvalues --    0.01361   0.01617   0.02352   0.02515   0.03077

 Mulliken charges:
               1
     1  Mg   0.690354
     2  C    0.044324
     3  C   -0.052211
     4  C   -0.070345
     5  C   -0.097738
     6  N   -0.177867
     7  C   -0.123354
     8  C    0.084239
     9  C   -0.106190
    10  C    0.040634
    11  C    0.135083
    12  C    0.147028
    13  C    0.157392
    14  C    0.032898
    15  O   -0.176868
    16  O   -0.301520
    17  N   -0.230514
    18  C    0.100827
    19  C   -0.126508
    20  C    0.028365
    21  C    0.073472
    22  C    0.153648
    23  C   -0.050914
    24  O   -0.161283
    25  C    0.109863
    26  N   -0.198951
    27  C    0.039028
    28  C   -0.002112
    29  C    0.021829
    30  C    0.000029
    31  C    0.161155
    32  C    0.080726
    33  C    0.041156
    34  N   -0.278796
    35  C    0.168710
    36  C   -0.180354
    37  C    0.114683
    38  C    0.057200
    39  C    0.183998
    40  C   -0.078758
    41  O   -0.154549
    42  C    0.065846
    43  C    0.124887
    44  O   -0.196067
    45  O   -0.255929
    46  C    0.210811
    47  C    0.315523
    48  C   -0.059203
    49  C   -0.164965
    50  C    0.121818
    51  C    0.165453
    52  C    0.067319
    53  C    0.052947
    54  C   -0.013110
    55  C    0.079573
    56  C    0.040455
    57  C    0.068352
    58  C    0.135985
    59  C   -0.060993
    60  C    0.120234
    61  C    0.052742
    62  C    0.070682
    63  C    0.068015
    64  C   -0.118843
    65  C    0.119854
    66  C    0.122510
    67  H   -0.058893
    68  H   -0.040628
    69  H   -0.073573
    70  H   -0.021437
    71  H   -0.017713
    72  H    0.002281
    73  H   -0.010288
    74  H   -0.011530
    75  H   -0.013639
    76  H   -0.011518
    77  H    0.002024
    78  H   -0.010882
    79  H   -0.024728
    80  H    0.010157
    81  H   -0.013076
    82  H    0.006183
    83  H   -0.002957
    84  H    0.020664
    85  H   -0.019823
    86  H   -0.023456
    87  H   -0.007183
    88  H   -0.010381
    89  H   -0.001333
    90  H   -0.016906
    91  H   -0.016867
    92  H    0.005148
    93  H   -0.013397
    94  H   -0.000992
    95  H   -0.015950
    96  H    0.001841
    97  H    0.015014
    98  H    0.002162
    99  H    0.014809
   100  H    0.018243
   101  H    0.016486
   102  H   -0.021290
   103  H    0.011958
   104  H   -0.042981
   105  H    0.011860
   106  H   -0.005510
   107  H   -0.010978
   108  H   -0.044366
   109  H   -0.016387
   110  H   -0.020698
   111  H   -0.023158
   112  H   -0.030001
   113  H   -0.019360
   114  H   -0.040069
   115  H   -0.001655
   116  H   -0.002568
   117  H   -0.016205
   118  H   -0.050469
   119  H   -0.052524
   120  H   -0.025388
   121  H   -0.018187
   122  H   -0.041793
   123  H   -0.033375
   124  H   -0.042988
   125  H   -0.020706
   126  H   -0.027306
   127  H   -0.011447
   128  H   -0.028024
   129  H   -0.030262
   130  H   -0.024293
   131  H   -0.041724
   132  H   -0.032222
   133  H   -0.030234
   134  H   -0.030942
   135  H   -0.011459
   136  H   -0.027739
   137  H   -0.014328
   138  H   -0.016558
   139  H   -0.010935
   140  H   -0.015256
 Sum of Mulliken charges =  -0.00000

 Dipole moment (field-independent basis, Debye):
    X=             -2.8962    Y=              3.3237    Z=              0.5995  Tot=              4.4491
 Quadrupole moment (field-independent basis, Debye-Ang):
   XX=           -382.4187   YY=           -428.4983   ZZ=           -410.2397
   XY=              0.6722   XZ=             26.8298   YZ=              5.1754

 Normal termination of Gaussian 16 at Fri Apr 29 02:36:18 2022.
