 Gaussian 16, Revision A.03,
 Gaussian 16:  ES64L-G16RevA.03 25-Dec-2016

 -----------------------------------
 #p cam-b3lyp/Def2SVP td=(nstates=5)
 -----------------------------------

 --------------------------------------------------------
 step_1801_chromophore_25 TDDFT with cam-b3lyp functional
 --------------------------------------------------------
 Symbolic Z-matrix:
 Charge =  0 Multiplicity = 1

                         Standard orientation:
 ---------------------------------------------------------------------
 Center     Atomic      Atomic             Coordinates (Angstroms)
 Number     Number       Type             X           Y           Z
 ---------------------------------------------------------------------
      1         12           0        6.139640    0.387263   -0.007125
      2          6           0        3.798801   -2.161889   -0.165399
      3          6           0        3.676664    2.687569   -0.738268
      4          6           0        8.480127    2.805736   -0.303141
      5          6           0        8.593292   -1.880645    0.696497
      6          7           0        3.960703    0.226443   -0.510972
      7          6           0        3.245568   -0.881540   -0.267324
      8          6           0        1.724520   -0.538946   -0.281223
      9          6           0        1.689180    1.058135   -0.606882
     10          6           0        3.228697    1.355063   -0.682609
     11          6           0        0.890386    1.593353   -1.838935
     12          6           0        0.823830   -0.957660    0.990494
     13          6           0       -0.204720   -2.053291    0.819267
     14          6           0       -1.493560   -1.880680    1.546426
     15          8           0       -1.738448   -2.397209    2.607819
     16          8           0       -2.370338   -1.206308    0.708784
     17          7           0        6.047219    2.441179   -0.476729
     18          6           0        4.964867    3.230865   -0.630515
     19          6           0        5.387940    4.578211   -0.822685
     20          6           0        6.830469    4.626644   -0.646806
     21          6           0        7.130368    3.229039   -0.503518
     22          6           0        4.427050    5.717831   -0.911135
     23          6           0        7.797237    5.834585   -0.708238
     24          8           0        9.016446    5.799817   -0.578183
     25          6           0        7.263432    7.278846   -0.958111
     26          7           0        8.275706    0.438301    0.041177
     27          6           0        9.025628    1.551026   -0.078236
     28          6           0       10.485705    1.373334    0.419726
     29          6           0       10.469982   -0.119623    0.882234
     30          6           0        9.023601   -0.551598    0.567973
     31          6           0       11.699893    1.597825   -0.462578
     32          6           0       10.970410   -0.364133    2.340029
     33          6           0       10.122530    0.285940    3.475165
     34          7           0        6.261928   -1.637285    0.210795
     35          6           0        7.330920   -2.453122    0.516251
     36          6           0        6.886369   -3.783968    0.698857
     37          6           0        5.482212   -3.781549    0.413275
     38          6           0        5.186145   -2.434362    0.077778
     39          6           0        7.642858   -4.978999    1.075277
     40          6           0        4.219717   -4.504681    0.295972
     41          8           0        4.053173   -5.729027    0.424626
     42          6           0        3.077275   -3.488183   -0.102619
     43          6           0        2.500849   -3.928313   -1.456339
     44          8           0        2.990976   -3.845436   -2.593145
     45          8           0        1.241593   -4.360351   -1.217779
     46          6           0        0.477983   -4.744800   -2.435239
     47          6           0       -3.750894   -1.168591    1.312373
     48          6           0       -4.672688   -1.154863    0.110086
     49          6           0       -5.668380   -2.006213   -0.173681
     50          6           0       -5.807304   -3.365292    0.521069
     51          6           0       -6.649638   -1.745428   -1.253477
     52          6           0       -7.302313   -0.387422   -1.484529
     53          6           0       -8.918273   -0.432725   -1.493764
     54          6           0       -9.641075    0.880632   -1.091510
     55          6           0      -10.330181    0.981030    0.291196
     56          6           0      -10.704338    1.183493   -2.204814
     57          6           0      -11.789900    0.115910   -2.583677
     58          6           0      -13.261199    0.573972   -2.375724
     59          6           0      -14.037638   -0.010698   -1.185031
     60          6           0      -15.282629   -0.770276   -1.626935
     61          6           0      -14.497057    1.186183   -0.258567
     62          6           0      -14.697129    0.833793    1.200341
     63          6           0      -14.950212    2.095053    2.090463
     64          6           0      -13.805770    2.170605    3.210869
     65          6           0      -14.329855    2.905846    4.456389
     66          6           0      -12.517537    2.803185    2.681449
     67          1           0        2.885389    3.439536   -0.719435
     68          1           0        9.160617    3.632565   -0.091583
     69          1           0        9.369549   -2.539928    1.089420
     70          1           0        1.461935   -0.910264   -1.271098
     71          1           0        1.145573    1.489554    0.233705
     72          1           0        0.393807    0.796409   -2.393578
     73          1           0        1.585773    2.129601   -2.484952
     74          1           0        0.225627    2.378553   -1.479222
     75          1           0        0.354074   -0.057462    1.385972
     76          1           0        1.515942   -1.268569    1.772943
     77          1           0        0.145454   -3.038735    1.125836
     78          1           0       -0.478126   -2.232586   -0.220210
     79          1           0        4.793168    6.607224   -1.423227
     80          1           0        4.019223    6.007899    0.056970
     81          1           0        3.592518    5.374521   -1.522005
     82          1           0        6.560572    7.339755   -1.788447
     83          1           0        8.066417    7.909555   -1.339838
     84          1           0        6.803540    7.524312   -0.000633
     85          1           0       10.600109    1.935253    1.346911
     86          1           0       11.036606   -0.772894    0.218702
     87          1           0       11.291999    1.746819   -1.462943
     88          1           0       12.307412    0.693341   -0.458476
     89          1           0       12.290395    2.459493   -0.149842
     90          1           0       11.958201    0.071700    2.492567
     91          1           0       10.976326   -1.438813    2.523498
     92          1           0        9.550122    1.153744    3.144470
     93          1           0       10.777936    0.672951    4.255784
     94          1           0        9.507124   -0.492291    3.926861
     95          1           0        8.328300   -4.842590    1.912584
     96          1           0        8.301593   -5.209798    0.238067
     97          1           0        6.935093   -5.766514    1.332638
     98          1           0        2.290104   -3.629726    0.636847
     99          1           0        0.047440   -3.942703   -3.034057
    100          1           0       -0.265031   -5.498007   -2.174204
    101          1           0        1.120711   -5.227067   -3.172296
    102          1           0       -3.728588   -0.188127    1.788959
    103          1           0       -4.020624   -1.866917    2.105769
    104          1           0       -4.715901   -0.243799   -0.485837
    105          1           0       -6.554510   -3.358122    1.314098
    106          1           0       -4.862974   -3.746098    0.909256
    107          1           0       -5.993694   -4.144214   -0.217399
    108          1           0       -7.428572   -2.506704   -1.284034
    109          1           0       -6.106034   -2.032812   -2.153822
    110          1           0       -7.022117    0.131022   -2.401174
    111          1           0       -6.961486    0.228282   -0.652892
    112          1           0       -9.345755   -1.198913   -0.848270
    113          1           0       -9.124874   -0.786346   -2.503976
    114          1           0       -8.823545    1.600807   -1.116594
    115          1           0      -11.388875    1.230861    0.236194
    116          1           0       -9.871118    1.835747    0.788013
    117          1           0      -10.348398    0.120565    0.959715
    118          1           0      -10.180917    1.516969   -3.100431
    119          1           0      -11.263923    2.100515   -2.015541
    120          1           0      -11.561316   -0.593769   -1.788216
    121          1           0      -11.606296   -0.194365   -3.612057
    122          1           0      -13.709175    0.304249   -3.331921
    123          1           0      -13.255051    1.655604   -2.241358
    124          1           0      -13.406508   -0.710146   -0.635221
    125          1           0      -16.069597   -0.730910   -0.873409
    126          1           0      -15.105134   -1.845140   -1.679082
    127          1           0      -15.526268   -0.376599   -2.613586
    128          1           0      -15.321507    1.717856   -0.733088
    129          1           0      -13.671695    1.896047   -0.199613
    130          1           0      -13.880068    0.274051    1.657043
    131          1           0      -15.612526    0.247898    1.284350
    132          1           0      -15.979211    1.887544    2.383817
    133          1           0      -14.958381    3.021264    1.514849
    134          1           0      -13.714497    1.105812    3.421712
    135          1           0      -15.286237    3.376267    4.229799
    136          1           0      -13.680721    3.689931    4.846257
    137          1           0      -14.380084    2.150916    5.242210
    138          1           0      -11.895417    2.049107    2.200157
    139          1           0      -11.965544    3.332973    3.458391
    140          1           0      -12.823413    3.509039    1.910143
 ---------------------------------------------------------------------

 SCF Done:  E(RCAM-B3LYP) =  -3007.16693060     A.U. after   19 cycles

 Excitation energies and oscillator strengths:

 Excited State   1:      Singlet-A      1.7470 eV  709.71 nm  f=0.3812  <S**2>=0.000
     245 -> 248       -0.19167
     246 -> 247        0.68251
     245 <- 248       -0.11000
 This state for optimization and/or second-order correction.
 Total Energy, E(TD-HF/TD-DFT) =  -3007.10273043
 Copying the excited state density for this state as the 1-particle RhoCI density.

 Excited State   2:      Singlet-A      2.1877 eV  566.74 nm  f=0.1556  <S**2>=0.000
     245 -> 247        0.65326
     246 -> 248        0.26071

 Excited State   3:      Singlet-A      3.3288 eV  372.46 nm  f=0.0022  <S**2>=0.000
     244 -> 247        0.68045

 Excited State   4:      Singlet-A      3.4356 eV  360.88 nm  f=0.0022  <S**2>=0.000
     239 -> 247        0.23457
     239 -> 249       -0.13096
     239 -> 250        0.11362
     240 -> 247        0.11428
     241 -> 247        0.44766
     241 -> 249       -0.22241
     241 -> 250        0.17738
     243 -> 247        0.29124

 Excited State   5:      Singlet-A      3.5036 eV  353.88 nm  f=0.0244  <S**2>=0.000
     240 -> 247       -0.11142
     241 -> 247       -0.20971
     243 -> 247        0.55566
     246 -> 248       -0.27956

 The electronic state is 1-A.
 Alpha  occ. eigenvalues --  -46.89014 -19.26033 -19.24628 -19.19872 -19.19797
 Alpha  occ. eigenvalues --  -19.19349 -19.18898 -14.42193 -14.42100 -14.39497
 Alpha  occ. eigenvalues --  -14.39181 -10.39766 -10.38575 -10.36058 -10.35379
 Alpha  occ. eigenvalues --  -10.31942 -10.31842 -10.31510 -10.31348 -10.30860
 Alpha  occ. eigenvalues --  -10.30430 -10.29773 -10.29598 -10.29283 -10.29228
 Alpha  occ. eigenvalues --  -10.29112 -10.28746 -10.28309 -10.28304 -10.28231
 Alpha  occ. eigenvalues --  -10.28225 -10.28135 -10.27562 -10.27558 -10.27386
 Alpha  occ. eigenvalues --  -10.27366 -10.27045 -10.27014 -10.26816 -10.26511
 Alpha  occ. eigenvalues --  -10.26392 -10.26261 -10.26182 -10.26170 -10.26122
 Alpha  occ. eigenvalues --  -10.25967 -10.25886 -10.25782 -10.25712 -10.25648
 Alpha  occ. eigenvalues --  -10.25629 -10.25536 -10.25527 -10.25512 -10.25447
 Alpha  occ. eigenvalues --  -10.25396 -10.25047 -10.24898 -10.24759 -10.24737
 Alpha  occ. eigenvalues --  -10.24596 -10.24588 -10.24547 -10.24477 -10.24175
 Alpha  occ. eigenvalues --  -10.24094  -3.17524  -1.92424  -1.91976  -1.91835
 Alpha  occ. eigenvalues --   -1.16630  -1.15701  -1.10221  -1.08684  -1.08019
 Alpha  occ. eigenvalues --   -1.06904  -1.04964  -1.04203  -1.04020  -1.03084
 Alpha  occ. eigenvalues --   -0.92616  -0.90820  -0.89914  -0.89252  -0.88838
 Alpha  occ. eigenvalues --   -0.88529  -0.88465  -0.87452  -0.87381  -0.87156
 Alpha  occ. eigenvalues --   -0.86821  -0.85510  -0.84147  -0.83758  -0.83391
 Alpha  occ. eigenvalues --   -0.82689  -0.81922  -0.81039  -0.80840  -0.80320
 Alpha  occ. eigenvalues --   -0.80066  -0.78489  -0.77929  -0.77384  -0.76414
 Alpha  occ. eigenvalues --   -0.76297  -0.75497  -0.75327  -0.74742  -0.74025
 Alpha  occ. eigenvalues --   -0.73351  -0.72798  -0.71549  -0.70820  -0.69963
 Alpha  occ. eigenvalues --   -0.68820  -0.68598  -0.67612  -0.67337  -0.65543
 Alpha  occ. eigenvalues --   -0.65318  -0.65147  -0.64919  -0.64433  -0.63914
 Alpha  occ. eigenvalues --   -0.63083  -0.62760  -0.62654  -0.61995  -0.60622
 Alpha  occ. eigenvalues --   -0.59648  -0.59180  -0.58861  -0.58339  -0.58052
 Alpha  occ. eigenvalues --   -0.57447  -0.56649  -0.56013  -0.55812  -0.55578
 Alpha  occ. eigenvalues --   -0.55125  -0.54807  -0.54676  -0.54557  -0.54501
 Alpha  occ. eigenvalues --   -0.54085  -0.54034  -0.53481  -0.53274  -0.52689
 Alpha  occ. eigenvalues --   -0.52624  -0.52557  -0.52381  -0.52248  -0.51905
 Alpha  occ. eigenvalues --   -0.51565  -0.51357  -0.51094  -0.51049  -0.50940
 Alpha  occ. eigenvalues --   -0.50751  -0.50386  -0.49877  -0.49787  -0.49592
 Alpha  occ. eigenvalues --   -0.49497  -0.49232  -0.49140  -0.48988  -0.48800
 Alpha  occ. eigenvalues --   -0.48506  -0.48469  -0.48309  -0.48108  -0.48009
 Alpha  occ. eigenvalues --   -0.47815  -0.47465  -0.47348  -0.46851  -0.46803
 Alpha  occ. eigenvalues --   -0.46374  -0.46260  -0.46080  -0.45967  -0.45815
 Alpha  occ. eigenvalues --   -0.45610  -0.45482  -0.45104  -0.44924  -0.44694
 Alpha  occ. eigenvalues --   -0.44583  -0.44358  -0.44166  -0.44001  -0.43840
 Alpha  occ. eigenvalues --   -0.43679  -0.43626  -0.43429  -0.43184  -0.42897
 Alpha  occ. eigenvalues --   -0.42681  -0.42538  -0.42418  -0.42305  -0.42222
 Alpha  occ. eigenvalues --   -0.42027  -0.41926  -0.41898  -0.41502  -0.41422
 Alpha  occ. eigenvalues --   -0.41184  -0.40979  -0.40457  -0.40246  -0.40043
 Alpha  occ. eigenvalues --   -0.39580  -0.39570  -0.39163  -0.39013  -0.38946
 Alpha  occ. eigenvalues --   -0.38708  -0.38321  -0.38045  -0.37890  -0.37510
 Alpha  occ. eigenvalues --   -0.37254  -0.37137  -0.36834  -0.36417  -0.36304
 Alpha  occ. eigenvalues --   -0.36115  -0.35889  -0.35465  -0.34558  -0.34398
 Alpha  occ. eigenvalues --   -0.34029  -0.33875  -0.33382  -0.31233  -0.30974
 Alpha  occ. eigenvalues --   -0.30851  -0.30266  -0.30162  -0.29701  -0.23889
 Alpha  occ. eigenvalues --   -0.21643
 Alpha virt. eigenvalues --   -0.09003  -0.01675   0.00034   0.02097   0.02467
 Alpha virt. eigenvalues --    0.04169   0.04997   0.05542   0.06308   0.06707
 Alpha virt. eigenvalues --    0.07791   0.08549   0.08725   0.08978   0.09246

 Mulliken charges:
               1
     1  Mg   0.823944
     2  C    0.010770
     3  C   -0.064079
     4  C   -0.081881
     5  C   -0.098535
     6  N   -0.251942
     7  C   -0.068628
     8  C    0.022021
     9  C   -0.136605
    10  C    0.054859
    11  C    0.073629
    12  C    0.088736
    13  C    0.086658
    14  C    0.117145
    15  O   -0.217974
    16  O   -0.363984
    17  N   -0.319427
    18  C    0.107496
    19  C   -0.134367
    20  C   -0.039851
    21  C    0.096801
    22  C    0.095765
    23  C    0.024146
    24  O   -0.203066
    25  C    0.036388
    26  N   -0.270271
    27  C    0.055758
    28  C   -0.058465
    29  C   -0.032957
    30  C    0.018281
    31  C    0.102090
    32  C    0.029935
    33  C   -0.019253
    34  N   -0.371083
    35  C    0.168580
    36  C   -0.172166
    37  C    0.034207
    38  C    0.095512
    39  C    0.127496
    40  C    0.021906
    41  O   -0.192811
    42  C   -0.009931
    43  C    0.216753
    44  O   -0.235247
    45  O   -0.320144
    46  C    0.170932
    47  C    0.274565
    48  C   -0.081246
    49  C   -0.184288
    50  C    0.058633
    51  C    0.101551
    52  C    0.012519
    53  C    0.004964
    54  C   -0.071743
    55  C    0.026538
    56  C   -0.005330
    57  C    0.012200
    58  C    0.081142
    59  C   -0.119971
    60  C    0.064506
    61  C    0.003907
    62  C    0.019563
    63  C    0.016587
    64  C   -0.176821
    65  C    0.059343
    66  C    0.067013
    67  H   -0.024876
    68  H    0.000290
    69  H   -0.037771
    70  H    0.012159
    71  H    0.014631
    72  H    0.026821
    73  H    0.016199
    74  H    0.012462
    75  H    0.017144
    76  H    0.019976
    77  H    0.032618
    78  H    0.022498
    79  H    0.002770
    80  H    0.036707
    81  H    0.013119
    82  H    0.031403
    83  H    0.030691
    84  H    0.045910
    85  H    0.013760
    86  H    0.012262
    87  H    0.018685
    88  H    0.013817
    89  H    0.023263
    90  H    0.011406
    91  H    0.009708
    92  H    0.025170
    93  H    0.011516
    94  H    0.022284
    95  H    0.010064
    96  H    0.028785
    97  H    0.042676
    98  H    0.044157
    99  H    0.036426
   100  H    0.041880
   101  H    0.042967
   102  H    0.010379
   103  H    0.045376
   104  H   -0.009808
   105  H    0.036406
   106  H    0.018998
   107  H    0.014242
   108  H   -0.011633
   109  H    0.014452
   110  H    0.007578
   111  H    0.004033
   112  H   -0.004210
   113  H    0.008744
   114  H   -0.006065
   115  H    0.010532
   116  H    0.020294
   117  H    0.008102
   118  H   -0.020132
   119  H   -0.023351
   120  H   -0.000812
   121  H    0.010921
   122  H   -0.011048
   123  H   -0.003693
   124  H   -0.011466
   125  H    0.003001
   126  H   -0.001510
   127  H    0.011406
   128  H    0.001579
   129  H   -0.009437
   130  H    0.000920
   131  H   -0.013922
   132  H   -0.001668
   133  H   -0.002690
   134  H    0.000046
   135  H    0.012307
   136  H   -0.002886
   137  H    0.009619
   138  H    0.002120
   139  H    0.014201
   140  H    0.006723
 Sum of Mulliken charges =  -0.00000

 Dipole moment (field-independent basis, Debye):
    X=             -3.0199    Y=              3.7036    Z=              0.6495  Tot=              4.8226
 Quadrupole moment (field-independent basis, Debye-Ang):
   XX=           -380.9686   YY=           -424.3245   ZZ=           -410.4665
   XY=              2.0632   XZ=             28.2835   YZ=              4.5868

 Normal termination of Gaussian 16 at Fri Apr 29 01:43:09 2022.
