 Gaussian 16, Revision A.03,
 Gaussian 16:  ES64L-G16RevA.03 25-Dec-2016

 ---------------------------------
 #p PBE1PBE/Def2SVP td=(nstates=5)
 ---------------------------------

 ------------------------------------------------------
 step_1801_chromophore_25 TDDFT with PBE1PBE functional
 ------------------------------------------------------
 Symbolic Z-matrix:
 Charge =  0 Multiplicity = 1

                         Standard orientation:
 ---------------------------------------------------------------------
 Center     Atomic      Atomic             Coordinates (Angstroms)
 Number     Number       Type             X           Y           Z
 ---------------------------------------------------------------------
      1         12           0        6.139640    0.387263   -0.007125
      2          6           0        3.798801   -2.161889   -0.165399
      3          6           0        3.676664    2.687569   -0.738268
      4          6           0        8.480127    2.805736   -0.303141
      5          6           0        8.593292   -1.880645    0.696497
      6          7           0        3.960703    0.226443   -0.510972
      7          6           0        3.245568   -0.881540   -0.267324
      8          6           0        1.724520   -0.538946   -0.281223
      9          6           0        1.689180    1.058135   -0.606882
     10          6           0        3.228697    1.355063   -0.682609
     11          6           0        0.890386    1.593353   -1.838935
     12          6           0        0.823830   -0.957660    0.990494
     13          6           0       -0.204720   -2.053291    0.819267
     14          6           0       -1.493560   -1.880680    1.546426
     15          8           0       -1.738448   -2.397209    2.607819
     16          8           0       -2.370338   -1.206308    0.708784
     17          7           0        6.047219    2.441179   -0.476729
     18          6           0        4.964867    3.230865   -0.630515
     19          6           0        5.387940    4.578211   -0.822685
     20          6           0        6.830469    4.626644   -0.646806
     21          6           0        7.130368    3.229039   -0.503518
     22          6           0        4.427050    5.717831   -0.911135
     23          6           0        7.797237    5.834585   -0.708238
     24          8           0        9.016446    5.799817   -0.578183
     25          6           0        7.263432    7.278846   -0.958111
     26          7           0        8.275706    0.438301    0.041177
     27          6           0        9.025628    1.551026   -0.078236
     28          6           0       10.485705    1.373334    0.419726
     29          6           0       10.469982   -0.119623    0.882234
     30          6           0        9.023601   -0.551598    0.567973
     31          6           0       11.699893    1.597825   -0.462578
     32          6           0       10.970410   -0.364133    2.340029
     33          6           0       10.122530    0.285940    3.475165
     34          7           0        6.261928   -1.637285    0.210795
     35          6           0        7.330920   -2.453122    0.516251
     36          6           0        6.886369   -3.783968    0.698857
     37          6           0        5.482212   -3.781549    0.413275
     38          6           0        5.186145   -2.434362    0.077778
     39          6           0        7.642858   -4.978999    1.075277
     40          6           0        4.219717   -4.504681    0.295972
     41          8           0        4.053173   -5.729027    0.424626
     42          6           0        3.077275   -3.488183   -0.102619
     43          6           0        2.500849   -3.928313   -1.456339
     44          8           0        2.990976   -3.845436   -2.593145
     45          8           0        1.241593   -4.360351   -1.217779
     46          6           0        0.477983   -4.744800   -2.435239
     47          6           0       -3.750894   -1.168591    1.312373
     48          6           0       -4.672688   -1.154863    0.110086
     49          6           0       -5.668380   -2.006213   -0.173681
     50          6           0       -5.807304   -3.365292    0.521069
     51          6           0       -6.649638   -1.745428   -1.253477
     52          6           0       -7.302313   -0.387422   -1.484529
     53          6           0       -8.918273   -0.432725   -1.493764
     54          6           0       -9.641075    0.880632   -1.091510
     55          6           0      -10.330181    0.981030    0.291196
     56          6           0      -10.704338    1.183493   -2.204814
     57          6           0      -11.789900    0.115910   -2.583677
     58          6           0      -13.261199    0.573972   -2.375724
     59          6           0      -14.037638   -0.010698   -1.185031
     60          6           0      -15.282629   -0.770276   -1.626935
     61          6           0      -14.497057    1.186183   -0.258567
     62          6           0      -14.697129    0.833793    1.200341
     63          6           0      -14.950212    2.095053    2.090463
     64          6           0      -13.805770    2.170605    3.210869
     65          6           0      -14.329855    2.905846    4.456389
     66          6           0      -12.517537    2.803185    2.681449
     67          1           0        2.885389    3.439536   -0.719435
     68          1           0        9.160617    3.632565   -0.091583
     69          1           0        9.369549   -2.539928    1.089420
     70          1           0        1.461935   -0.910264   -1.271098
     71          1           0        1.145573    1.489554    0.233705
     72          1           0        0.393807    0.796409   -2.393578
     73          1           0        1.585773    2.129601   -2.484952
     74          1           0        0.225627    2.378553   -1.479222
     75          1           0        0.354074   -0.057462    1.385972
     76          1           0        1.515942   -1.268569    1.772943
     77          1           0        0.145454   -3.038735    1.125836
     78          1           0       -0.478126   -2.232586   -0.220210
     79          1           0        4.793168    6.607224   -1.423227
     80          1           0        4.019223    6.007899    0.056970
     81          1           0        3.592518    5.374521   -1.522005
     82          1           0        6.560572    7.339755   -1.788447
     83          1           0        8.066417    7.909555   -1.339838
     84          1           0        6.803540    7.524312   -0.000633
     85          1           0       10.600109    1.935253    1.346911
     86          1           0       11.036606   -0.772894    0.218702
     87          1           0       11.291999    1.746819   -1.462943
     88          1           0       12.307412    0.693341   -0.458476
     89          1           0       12.290395    2.459493   -0.149842
     90          1           0       11.958201    0.071700    2.492567
     91          1           0       10.976326   -1.438813    2.523498
     92          1           0        9.550122    1.153744    3.144470
     93          1           0       10.777936    0.672951    4.255784
     94          1           0        9.507124   -0.492291    3.926861
     95          1           0        8.328300   -4.842590    1.912584
     96          1           0        8.301593   -5.209798    0.238067
     97          1           0        6.935093   -5.766514    1.332638
     98          1           0        2.290104   -3.629726    0.636847
     99          1           0        0.047440   -3.942703   -3.034057
    100          1           0       -0.265031   -5.498007   -2.174204
    101          1           0        1.120711   -5.227067   -3.172296
    102          1           0       -3.728588   -0.188127    1.788959
    103          1           0       -4.020624   -1.866917    2.105769
    104          1           0       -4.715901   -0.243799   -0.485837
    105          1           0       -6.554510   -3.358122    1.314098
    106          1           0       -4.862974   -3.746098    0.909256
    107          1           0       -5.993694   -4.144214   -0.217399
    108          1           0       -7.428572   -2.506704   -1.284034
    109          1           0       -6.106034   -2.032812   -2.153822
    110          1           0       -7.022117    0.131022   -2.401174
    111          1           0       -6.961486    0.228282   -0.652892
    112          1           0       -9.345755   -1.198913   -0.848270
    113          1           0       -9.124874   -0.786346   -2.503976
    114          1           0       -8.823545    1.600807   -1.116594
    115          1           0      -11.388875    1.230861    0.236194
    116          1           0       -9.871118    1.835747    0.788013
    117          1           0      -10.348398    0.120565    0.959715
    118          1           0      -10.180917    1.516969   -3.100431
    119          1           0      -11.263923    2.100515   -2.015541
    120          1           0      -11.561316   -0.593769   -1.788216
    121          1           0      -11.606296   -0.194365   -3.612057
    122          1           0      -13.709175    0.304249   -3.331921
    123          1           0      -13.255051    1.655604   -2.241358
    124          1           0      -13.406508   -0.710146   -0.635221
    125          1           0      -16.069597   -0.730910   -0.873409
    126          1           0      -15.105134   -1.845140   -1.679082
    127          1           0      -15.526268   -0.376599   -2.613586
    128          1           0      -15.321507    1.717856   -0.733088
    129          1           0      -13.671695    1.896047   -0.199613
    130          1           0      -13.880068    0.274051    1.657043
    131          1           0      -15.612526    0.247898    1.284350
    132          1           0      -15.979211    1.887544    2.383817
    133          1           0      -14.958381    3.021264    1.514849
    134          1           0      -13.714497    1.105812    3.421712
    135          1           0      -15.286237    3.376267    4.229799
    136          1           0      -13.680721    3.689931    4.846257
    137          1           0      -14.380084    2.150916    5.242210
    138          1           0      -11.895417    2.049107    2.200157
    139          1           0      -11.965544    3.332973    3.458391
    140          1           0      -12.823413    3.509039    1.910143
 ---------------------------------------------------------------------

 SCF Done:  E(RPBE1PBE) =  -3005.35657076     A.U. after   15 cycles

 Excitation energies and oscillator strengths:

 Excited State   1:      Singlet-A      1.9037 eV  651.28 nm  f=0.3651  <S**2>=0.000
     245 -> 248        0.18642
     246 -> 247        0.68936
     246 <- 247       -0.10233
 This state for optimization and/or second-order correction.
 Total Energy, E(TD-HF/TD-DFT) =  -3005.28661111
 Copying the excited state density for this state as the 1-particle RhoCI density.

 Excited State   2:      Singlet-A      2.1990 eV  563.82 nm  f=0.1449  <S**2>=0.000
     245 -> 247        0.66236
     246 -> 248       -0.23909

 Excited State   3:      Singlet-A      2.9400 eV  421.71 nm  f=0.0014  <S**2>=0.000
     240 -> 247       -0.11323
     241 -> 247        0.40857
     241 -> 249       -0.12375
     242 -> 247       -0.19252
     243 -> 247       -0.13284
     244 -> 247        0.47089

 Excited State   4:      Singlet-A      3.0198 eV  410.57 nm  f=0.0007  <S**2>=0.000
     241 -> 247       -0.12119
     242 -> 247        0.43449
     243 -> 247        0.31051
     244 -> 247        0.41322

 Excited State   5:      Singlet-A      3.0646 eV  404.57 nm  f=0.0028  <S**2>=0.000
     240 -> 247        0.11676
     241 -> 247        0.52109
     242 -> 247        0.22020
     243 -> 247        0.20875
     244 -> 247       -0.29232

 The electronic state is 1-A.
 Alpha  occ. eigenvalues --  -46.92411 -19.26666 -19.25350 -19.20140 -19.20036
 Alpha  occ. eigenvalues --  -19.19602 -19.19100 -14.41715 -14.41554 -14.39139
 Alpha  occ. eigenvalues --  -14.38842 -10.36785 -10.35600 -10.33247 -10.32523
 Alpha  occ. eigenvalues --  -10.29333 -10.29188 -10.29101 -10.29064 -10.28574
 Alpha  occ. eigenvalues --  -10.28164 -10.27465 -10.27266 -10.26992 -10.26871
 Alpha  occ. eigenvalues --  -10.26712 -10.26583 -10.26148 -10.26054 -10.26032
 Alpha  occ. eigenvalues --  -10.25827 -10.25725 -10.25414 -10.25200 -10.25199
 Alpha  occ. eigenvalues --  -10.25134 -10.24704 -10.24650 -10.24384 -10.24114
 Alpha  occ. eigenvalues --  -10.23953 -10.23730 -10.23709 -10.23671 -10.23589
 Alpha  occ. eigenvalues --  -10.23476 -10.23348 -10.23344 -10.23267 -10.23264
 Alpha  occ. eigenvalues --  -10.23139 -10.23099 -10.23095 -10.23067 -10.23010
 Alpha  occ. eigenvalues --  -10.22985 -10.22608 -10.22378 -10.22315 -10.22292
 Alpha  occ. eigenvalues --  -10.22155 -10.22154 -10.22068 -10.21975 -10.21565
 Alpha  occ. eigenvalues --  -10.21487  -3.14503  -1.87345  -1.86873  -1.86737
 Alpha  occ. eigenvalues --   -1.11395  -1.10495  -1.04979  -1.03381  -1.02904
 Alpha  occ. eigenvalues --   -1.01698  -0.99613  -0.98897  -0.98644  -0.97757
 Alpha  occ. eigenvalues --   -0.86939  -0.84969  -0.84000  -0.83521  -0.83001
 Alpha  occ. eigenvalues --   -0.82827  -0.82624  -0.81781  -0.81500  -0.81465
 Alpha  occ. eigenvalues --   -0.81133  -0.79770  -0.78354  -0.78015  -0.77656
 Alpha  occ. eigenvalues --   -0.76875  -0.76202  -0.75337  -0.75028  -0.74512
 Alpha  occ. eigenvalues --   -0.74252  -0.72810  -0.72193  -0.71690  -0.70657
 Alpha  occ. eigenvalues --   -0.70499  -0.69693  -0.69590  -0.68891  -0.68224
 Alpha  occ. eigenvalues --   -0.67709  -0.67182  -0.66003  -0.65121  -0.64292
 Alpha  occ. eigenvalues --   -0.63110  -0.63035  -0.61828  -0.61769  -0.60050
 Alpha  occ. eigenvalues --   -0.59680  -0.59528  -0.59371  -0.58979  -0.58027
 Alpha  occ. eigenvalues --   -0.57584  -0.57226  -0.56975  -0.56234  -0.55201
 Alpha  occ. eigenvalues --   -0.54225  -0.53592  -0.53422  -0.52861  -0.52582
 Alpha  occ. eigenvalues --   -0.51987  -0.51089  -0.50590  -0.50302  -0.50083
 Alpha  occ. eigenvalues --   -0.49597  -0.49273  -0.49174  -0.49039  -0.49005
 Alpha  occ. eigenvalues --   -0.48578  -0.48479  -0.47982  -0.47926  -0.47195
 Alpha  occ. eigenvalues --   -0.47096  -0.47017  -0.46954  -0.46712  -0.46478
 Alpha  occ. eigenvalues --   -0.46125  -0.45930  -0.45637  -0.45573  -0.45480
 Alpha  occ. eigenvalues --   -0.45299  -0.44978  -0.44485  -0.44351  -0.44185
 Alpha  occ. eigenvalues --   -0.44072  -0.43806  -0.43789  -0.43580  -0.43442
 Alpha  occ. eigenvalues --   -0.43146  -0.43042  -0.42942  -0.42692  -0.42644
 Alpha  occ. eigenvalues --   -0.42412  -0.42116  -0.42011  -0.41550  -0.41498
 Alpha  occ. eigenvalues --   -0.41118  -0.40874  -0.40799  -0.40664  -0.40467
 Alpha  occ. eigenvalues --   -0.40269  -0.40154  -0.39887  -0.39636  -0.39350
 Alpha  occ. eigenvalues --   -0.39315  -0.39127  -0.38934  -0.38715  -0.38638
 Alpha  occ. eigenvalues --   -0.38455  -0.38353  -0.38156  -0.38008  -0.37738
 Alpha  occ. eigenvalues --   -0.37554  -0.37265  -0.37256  -0.37064  -0.36960
 Alpha  occ. eigenvalues --   -0.36843  -0.36741  -0.36631  -0.36369  -0.36171
 Alpha  occ. eigenvalues --   -0.36053  -0.35879  -0.35300  -0.35077  -0.34881
 Alpha  occ. eigenvalues --   -0.34483  -0.34370  -0.34013  -0.33959  -0.33752
 Alpha  occ. eigenvalues --   -0.33696  -0.33119  -0.33041  -0.32697  -0.32276
 Alpha  occ. eigenvalues --   -0.32111  -0.32047  -0.31857  -0.31401  -0.31259
 Alpha  occ. eigenvalues --   -0.31111  -0.30773  -0.30351  -0.29739  -0.29335
 Alpha  occ. eigenvalues --   -0.29046  -0.28854  -0.28739  -0.26821  -0.26029
 Alpha  occ. eigenvalues --   -0.25802  -0.25598  -0.25578  -0.25283  -0.20884
 Alpha  occ. eigenvalues --   -0.19225
 Alpha virt. eigenvalues --   -0.11416  -0.05169  -0.04176  -0.02308  -0.00386
 Alpha virt. eigenvalues --   -0.00217   0.00388   0.01124   0.01794   0.02996
 Alpha virt. eigenvalues --    0.04135   0.04556   0.05264   0.05425   0.05964

 Mulliken charges:
               1
     1  Mg   0.972453
     2  C    0.005412
     3  C   -0.057821
     4  C   -0.064245
     5  C   -0.086722
     6  N   -0.359110
     7  C    0.005663
     8  C   -0.050930
     9  C   -0.194266
    10  C    0.085738
    11  C    0.013059
    12  C    0.031321
    13  C    0.007054
    14  C    0.186469
    15  O   -0.252003
    16  O   -0.389417
    17  N   -0.440881
    18  C    0.135446
    19  C   -0.165277
    20  C   -0.077232
    21  C    0.119154
    22  C    0.037686
    23  C    0.067991
    24  O   -0.238469
    25  C   -0.036226
    26  N   -0.378755
    27  C    0.094917
    28  C   -0.133902
    29  C   -0.108514
    30  C    0.062042
    31  C    0.042830
    32  C   -0.033792
    33  C   -0.089557
    34  N   -0.498744
    35  C    0.183720
    36  C   -0.197809
    37  C   -0.011114
    38  C    0.144135
    39  C    0.074930
    40  C    0.119307
    41  O   -0.237333
    42  C   -0.125819
    43  C    0.310294
    44  O   -0.270129
    45  O   -0.351688
    46  C    0.115418
    47  C    0.227124
    48  C   -0.095974
    49  C   -0.226330
    50  C   -0.004647
    51  C    0.045885
    52  C   -0.056361
    53  C   -0.041612
    54  C   -0.163482
    55  C   -0.039538
    56  C   -0.057533
    57  C   -0.055523
    58  C    0.029680
    59  C   -0.205174
    60  C    0.007076
    61  C   -0.059974
    62  C   -0.040297
    63  C   -0.032630
    64  C   -0.272982
    65  C   -0.000064
    66  C   -0.001631
    67  H    0.006107
    68  H    0.031792
    69  H   -0.005254
    70  H    0.053444
    71  H    0.051417
    72  H    0.053552
    73  H    0.044393
    74  H    0.039353
    75  H    0.048636
    76  H    0.052968
    77  H    0.065217
    78  H    0.056277
    79  H    0.030899
    80  H    0.064685
    81  H    0.040536
    82  H    0.056837
    83  H    0.057852
    84  H    0.073045
    85  H    0.052164
    86  H    0.050364
    87  H    0.047566
    88  H    0.040963
    89  H    0.050188
    90  H    0.044584
    91  H    0.041997
    92  H    0.052583
    93  H    0.039699
    94  H    0.050248
    95  H    0.037410
    96  H    0.057197
    97  H    0.069477
    98  H    0.084261
    99  H    0.057877
   100  H    0.063647
   101  H    0.064385
   102  H    0.039697
   103  H    0.070110
   104  H    0.020138
   105  H    0.064120
   106  H    0.046185
   107  H    0.041423
   108  H    0.019928
   109  H    0.048783
   110  H    0.039764
   111  H    0.037893
   112  H    0.026711
   113  H    0.041866
   114  H    0.032557
   115  H    0.046079
   116  H    0.047188
   117  H    0.034122
   118  H    0.014126
   119  H    0.010047
   120  H    0.035711
   121  H    0.042029
   122  H    0.021399
   123  H    0.028364
   124  H    0.024842
   125  H    0.030851
   126  H    0.027179
   127  H    0.038037
   128  H    0.034245
   129  H    0.025020
   130  H    0.031247
   131  H    0.020086
   132  H    0.030335
   133  H    0.028988
   134  H    0.038344
   135  H    0.039383
   136  H    0.024237
   137  H    0.037130
   138  H    0.038762
   139  H    0.041844
   140  H    0.033571
 Sum of Mulliken charges =  -0.00000

 Dipole moment (field-independent basis, Debye):
    X=             -3.0397    Y=              3.7466    Z=              0.6859  Tot=              4.8732
 Quadrupole moment (field-independent basis, Debye-Ang):
   XX=           -374.9522   YY=           -421.5423   ZZ=           -407.9358
   XY=              1.6579   XZ=             29.3435   YZ=              4.5400

 Normal termination of Gaussian 16 at Fri Apr 29 01:58:39 2022.
