 Gaussian 16, Revision A.03,
 Gaussian 16:  ES64L-G16RevA.03 25-Dec-2016

 --------------------------------
 #p wB97XD/Def2SVP td=(nstates=5)
 --------------------------------

 -----------------------------------------------------
 step_1801_chromophore_25 TDDFT with wB97XD functional
 -----------------------------------------------------
 Symbolic Z-matrix:
 Charge =  0 Multiplicity = 1

                         Standard orientation:
 ---------------------------------------------------------------------
 Center     Atomic      Atomic             Coordinates (Angstroms)
 Number     Number       Type             X           Y           Z
 ---------------------------------------------------------------------
      1         12           0        6.139640    0.387263   -0.007125
      2          6           0        3.798801   -2.161889   -0.165399
      3          6           0        3.676664    2.687569   -0.738268
      4          6           0        8.480127    2.805736   -0.303141
      5          6           0        8.593292   -1.880645    0.696497
      6          7           0        3.960703    0.226443   -0.510972
      7          6           0        3.245568   -0.881540   -0.267324
      8          6           0        1.724520   -0.538946   -0.281223
      9          6           0        1.689180    1.058135   -0.606882
     10          6           0        3.228697    1.355063   -0.682609
     11          6           0        0.890386    1.593353   -1.838935
     12          6           0        0.823830   -0.957660    0.990494
     13          6           0       -0.204720   -2.053291    0.819267
     14          6           0       -1.493560   -1.880680    1.546426
     15          8           0       -1.738448   -2.397209    2.607819
     16          8           0       -2.370338   -1.206308    0.708784
     17          7           0        6.047219    2.441179   -0.476729
     18          6           0        4.964867    3.230865   -0.630515
     19          6           0        5.387940    4.578211   -0.822685
     20          6           0        6.830469    4.626644   -0.646806
     21          6           0        7.130368    3.229039   -0.503518
     22          6           0        4.427050    5.717831   -0.911135
     23          6           0        7.797237    5.834585   -0.708238
     24          8           0        9.016446    5.799817   -0.578183
     25          6           0        7.263432    7.278846   -0.958111
     26          7           0        8.275706    0.438301    0.041177
     27          6           0        9.025628    1.551026   -0.078236
     28          6           0       10.485705    1.373334    0.419726
     29          6           0       10.469982   -0.119623    0.882234
     30          6           0        9.023601   -0.551598    0.567973
     31          6           0       11.699893    1.597825   -0.462578
     32          6           0       10.970410   -0.364133    2.340029
     33          6           0       10.122530    0.285940    3.475165
     34          7           0        6.261928   -1.637285    0.210795
     35          6           0        7.330920   -2.453122    0.516251
     36          6           0        6.886369   -3.783968    0.698857
     37          6           0        5.482212   -3.781549    0.413275
     38          6           0        5.186145   -2.434362    0.077778
     39          6           0        7.642858   -4.978999    1.075277
     40          6           0        4.219717   -4.504681    0.295972
     41          8           0        4.053173   -5.729027    0.424626
     42          6           0        3.077275   -3.488183   -0.102619
     43          6           0        2.500849   -3.928313   -1.456339
     44          8           0        2.990976   -3.845436   -2.593145
     45          8           0        1.241593   -4.360351   -1.217779
     46          6           0        0.477983   -4.744800   -2.435239
     47          6           0       -3.750894   -1.168591    1.312373
     48          6           0       -4.672688   -1.154863    0.110086
     49          6           0       -5.668380   -2.006213   -0.173681
     50          6           0       -5.807304   -3.365292    0.521069
     51          6           0       -6.649638   -1.745428   -1.253477
     52          6           0       -7.302313   -0.387422   -1.484529
     53          6           0       -8.918273   -0.432725   -1.493764
     54          6           0       -9.641075    0.880632   -1.091510
     55          6           0      -10.330181    0.981030    0.291196
     56          6           0      -10.704338    1.183493   -2.204814
     57          6           0      -11.789900    0.115910   -2.583677
     58          6           0      -13.261199    0.573972   -2.375724
     59          6           0      -14.037638   -0.010698   -1.185031
     60          6           0      -15.282629   -0.770276   -1.626935
     61          6           0      -14.497057    1.186183   -0.258567
     62          6           0      -14.697129    0.833793    1.200341
     63          6           0      -14.950212    2.095053    2.090463
     64          6           0      -13.805770    2.170605    3.210869
     65          6           0      -14.329855    2.905846    4.456389
     66          6           0      -12.517537    2.803185    2.681449
     67          1           0        2.885389    3.439536   -0.719435
     68          1           0        9.160617    3.632565   -0.091583
     69          1           0        9.369549   -2.539928    1.089420
     70          1           0        1.461935   -0.910264   -1.271098
     71          1           0        1.145573    1.489554    0.233705
     72          1           0        0.393807    0.796409   -2.393578
     73          1           0        1.585773    2.129601   -2.484952
     74          1           0        0.225627    2.378553   -1.479222
     75          1           0        0.354074   -0.057462    1.385972
     76          1           0        1.515942   -1.268569    1.772943
     77          1           0        0.145454   -3.038735    1.125836
     78          1           0       -0.478126   -2.232586   -0.220210
     79          1           0        4.793168    6.607224   -1.423227
     80          1           0        4.019223    6.007899    0.056970
     81          1           0        3.592518    5.374521   -1.522005
     82          1           0        6.560572    7.339755   -1.788447
     83          1           0        8.066417    7.909555   -1.339838
     84          1           0        6.803540    7.524312   -0.000633
     85          1           0       10.600109    1.935253    1.346911
     86          1           0       11.036606   -0.772894    0.218702
     87          1           0       11.291999    1.746819   -1.462943
     88          1           0       12.307412    0.693341   -0.458476
     89          1           0       12.290395    2.459493   -0.149842
     90          1           0       11.958201    0.071700    2.492567
     91          1           0       10.976326   -1.438813    2.523498
     92          1           0        9.550122    1.153744    3.144470
     93          1           0       10.777936    0.672951    4.255784
     94          1           0        9.507124   -0.492291    3.926861
     95          1           0        8.328300   -4.842590    1.912584
     96          1           0        8.301593   -5.209798    0.238067
     97          1           0        6.935093   -5.766514    1.332638
     98          1           0        2.290104   -3.629726    0.636847
     99          1           0        0.047440   -3.942703   -3.034057
    100          1           0       -0.265031   -5.498007   -2.174204
    101          1           0        1.120711   -5.227067   -3.172296
    102          1           0       -3.728588   -0.188127    1.788959
    103          1           0       -4.020624   -1.866917    2.105769
    104          1           0       -4.715901   -0.243799   -0.485837
    105          1           0       -6.554510   -3.358122    1.314098
    106          1           0       -4.862974   -3.746098    0.909256
    107          1           0       -5.993694   -4.144214   -0.217399
    108          1           0       -7.428572   -2.506704   -1.284034
    109          1           0       -6.106034   -2.032812   -2.153822
    110          1           0       -7.022117    0.131022   -2.401174
    111          1           0       -6.961486    0.228282   -0.652892
    112          1           0       -9.345755   -1.198913   -0.848270
    113          1           0       -9.124874   -0.786346   -2.503976
    114          1           0       -8.823545    1.600807   -1.116594
    115          1           0      -11.388875    1.230861    0.236194
    116          1           0       -9.871118    1.835747    0.788013
    117          1           0      -10.348398    0.120565    0.959715
    118          1           0      -10.180917    1.516969   -3.100431
    119          1           0      -11.263923    2.100515   -2.015541
    120          1           0      -11.561316   -0.593769   -1.788216
    121          1           0      -11.606296   -0.194365   -3.612057
    122          1           0      -13.709175    0.304249   -3.331921
    123          1           0      -13.255051    1.655604   -2.241358
    124          1           0      -13.406508   -0.710146   -0.635221
    125          1           0      -16.069597   -0.730910   -0.873409
    126          1           0      -15.105134   -1.845140   -1.679082
    127          1           0      -15.526268   -0.376599   -2.613586
    128          1           0      -15.321507    1.717856   -0.733088
    129          1           0      -13.671695    1.896047   -0.199613
    130          1           0      -13.880068    0.274051    1.657043
    131          1           0      -15.612526    0.247898    1.284350
    132          1           0      -15.979211    1.887544    2.383817
    133          1           0      -14.958381    3.021264    1.514849
    134          1           0      -13.714497    1.105812    3.421712
    135          1           0      -15.286237    3.376267    4.229799
    136          1           0      -13.680721    3.689931    4.846257
    137          1           0      -14.380084    2.150916    5.242210
    138          1           0      -11.895417    2.049107    2.200157
    139          1           0      -11.965544    3.332973    3.458391
    140          1           0      -12.823413    3.509039    1.910143
 ---------------------------------------------------------------------

 SCF Done:  E(RwB97XD) =  -3007.86557484     A.U. after   19 cycles

 Excitation energies and oscillator strengths:

 Excited State   1:      Singlet-A      1.6875 eV  734.70 nm  f=0.3796  <S**2>=0.000
     245 -> 248       -0.19721
     246 -> 247        0.68042
     245 <- 248       -0.11959
 This state for optimization and/or second-order correction.
 Total Energy, E(TD-HF/TD-DFT) =  -3007.80355893
 Copying the excited state density for this state as the 1-particle RhoCI density.

 Excited State   2:      Singlet-A      2.1306 eV  581.93 nm  f=0.1517  <S**2>=0.000
     245 -> 247        0.65120
     246 -> 248        0.26341
     246 <- 248        0.10103

 Excited State   3:      Singlet-A      3.3447 eV  370.69 nm  f=0.0013  <S**2>=0.000
     244 -> 247        0.67609

 Excited State   4:      Singlet-A      3.4654 eV  357.78 nm  f=0.0020  <S**2>=0.000
     239 -> 247       -0.13206
     241 -> 247        0.47737
     241 -> 249       -0.27505
     241 -> 250       -0.20125
     242 -> 247        0.25831
     243 -> 247       -0.15013

 Excited State   5:      Singlet-A      3.5311 eV  351.12 nm  f=0.0491  <S**2>=0.000
     241 -> 247       -0.23548
     242 -> 247        0.45118
     242 -> 249        0.10157
     243 -> 247       -0.28039
     246 -> 248       -0.32094

 The electronic state is 1-A.
 Alpha  occ. eigenvalues --  -46.95360 -19.31259 -19.29910 -19.24832 -19.24763
 Alpha  occ. eigenvalues --  -19.24368 -19.23979 -14.46755 -14.46699 -14.44076
 Alpha  occ. eigenvalues --  -14.43784 -10.43632 -10.42402 -10.40045 -10.39436
 Alpha  occ. eigenvalues --  -10.35868 -10.35603 -10.35537 -10.35367 -10.34869
 Alpha  occ. eigenvalues --  -10.34441 -10.33778 -10.33625 -10.33287 -10.33252
 Alpha  occ. eigenvalues --  -10.33187 -10.32824 -10.32429 -10.32372 -10.32360
 Alpha  occ. eigenvalues --  -10.32353 -10.32117 -10.31617 -10.31559 -10.31466
 Alpha  occ. eigenvalues --  -10.31419 -10.31072 -10.30961 -10.30859 -10.30431
 Alpha  occ. eigenvalues --  -10.30406 -10.30187 -10.30088 -10.30036 -10.30034
 Alpha  occ. eigenvalues --  -10.29849 -10.29808 -10.29717 -10.29680 -10.29617
 Alpha  occ. eigenvalues --  -10.29593 -10.29501 -10.29471 -10.29394 -10.29383
 Alpha  occ. eigenvalues --  -10.29351 -10.28977 -10.28755 -10.28702 -10.28694
 Alpha  occ. eigenvalues --  -10.28523 -10.28500 -10.28424 -10.28423 -10.28005
 Alpha  occ. eigenvalues --  -10.27904  -3.21306  -1.94897  -1.94426  -1.94288
 Alpha  occ. eigenvalues --   -1.18819  -1.17889  -1.12430  -1.10937  -1.10255
 Alpha  occ. eigenvalues --   -1.09103  -1.06973  -1.06240  -1.06031  -1.05120
 Alpha  occ. eigenvalues --   -0.94603  -0.92642  -0.91674  -0.91105  -0.90667
 Alpha  occ. eigenvalues --   -0.90422  -0.90292  -0.89385  -0.89164  -0.89105
 Alpha  occ. eigenvalues --   -0.88767  -0.87397  -0.86013  -0.85658  -0.85277
 Alpha  occ. eigenvalues --   -0.84533  -0.83849  -0.82984  -0.82700  -0.82233
 Alpha  occ. eigenvalues --   -0.81929  -0.80442  -0.79835  -0.79310  -0.78294
 Alpha  occ. eigenvalues --   -0.78184  -0.77305  -0.77253  -0.76571  -0.75878
 Alpha  occ. eigenvalues --   -0.75293  -0.74764  -0.73525  -0.72746  -0.71873
 Alpha  occ. eigenvalues --   -0.70712  -0.70613  -0.69466  -0.69342  -0.67501
 Alpha  occ. eigenvalues --   -0.67178  -0.67140  -0.66856  -0.66434  -0.65716
 Alpha  occ. eigenvalues --   -0.65080  -0.64651  -0.64606  -0.63853  -0.62615
 Alpha  occ. eigenvalues --   -0.61630  -0.61104  -0.60862  -0.60299  -0.60014
 Alpha  occ. eigenvalues --   -0.59442  -0.58559  -0.57979  -0.57752  -0.57518
 Alpha  occ. eigenvalues --   -0.57049  -0.56704  -0.56624  -0.56471  -0.56442
 Alpha  occ. eigenvalues --   -0.55997  -0.55922  -0.55385  -0.55244  -0.54600
 Alpha  occ. eigenvalues --   -0.54506  -0.54448  -0.54314  -0.54117  -0.53827
 Alpha  occ. eigenvalues --   -0.53479  -0.53319  -0.53010  -0.52992  -0.52824
 Alpha  occ. eigenvalues --   -0.52684  -0.52300  -0.51783  -0.51714  -0.51480
 Alpha  occ. eigenvalues --   -0.51386  -0.51104  -0.51055  -0.50891  -0.50755
 Alpha  occ. eigenvalues --   -0.50465  -0.50404  -0.50216  -0.49979  -0.49948
 Alpha  occ. eigenvalues --   -0.49691  -0.49382  -0.49264  -0.48811  -0.48741
 Alpha  occ. eigenvalues --   -0.48310  -0.48111  -0.47992  -0.47861  -0.47702
 Alpha  occ. eigenvalues --   -0.47505  -0.47423  -0.47037  -0.46819  -0.46554
 Alpha  occ. eigenvalues --   -0.46512  -0.46295  -0.46063  -0.45892  -0.45778
 Alpha  occ. eigenvalues --   -0.45612  -0.45521  -0.45439  -0.45086  -0.44835
 Alpha  occ. eigenvalues --   -0.44613  -0.44410  -0.44366  -0.44236  -0.44112
 Alpha  occ. eigenvalues --   -0.43961  -0.43871  -0.43785  -0.43412  -0.43291
 Alpha  occ. eigenvalues --   -0.43110  -0.42880  -0.42353  -0.42135  -0.41915
 Alpha  occ. eigenvalues --   -0.41457  -0.41435  -0.41046  -0.40916  -0.40816
 Alpha  occ. eigenvalues --   -0.40654  -0.40158  -0.39964  -0.39741  -0.39345
 Alpha  occ. eigenvalues --   -0.39194  -0.39102  -0.38909  -0.38417  -0.38201
 Alpha  occ. eigenvalues --   -0.38075  -0.37739  -0.37335  -0.36537  -0.36367
 Alpha  occ. eigenvalues --   -0.35880  -0.35811  -0.35631  -0.33412  -0.32932
 Alpha  occ. eigenvalues --   -0.32894  -0.32325  -0.32301  -0.31881  -0.25792
 Alpha  occ. eigenvalues --   -0.23453
 Alpha virt. eigenvalues --   -0.07366   0.00251   0.02111   0.04189   0.05524
 Alpha virt. eigenvalues --    0.06455   0.07136   0.07886   0.08616   0.09500
 Alpha virt. eigenvalues --    0.10450   0.11466   0.11863   0.12188   0.12751

 Mulliken charges:
               1
     1  Mg   0.963159
     2  C   -0.002655
     3  C   -0.075798
     4  C   -0.080171
     5  C   -0.103147
     6  N   -0.324129
     7  C   -0.024341
     8  C   -0.027254
     9  C   -0.173266
    10  C    0.076176
    11  C    0.025000
    12  C    0.045330
    13  C    0.024784
    14  C    0.177598
    15  O   -0.250171
    16  O   -0.389967
    17  N   -0.405197
    18  C    0.126104
    19  C   -0.155664
    20  C   -0.076493
    21  C    0.113935
    22  C    0.050927
    23  C    0.065901
    24  O   -0.234061
    25  C   -0.023815
    26  N   -0.343083
    27  C    0.075505
    28  C   -0.109374
    29  C   -0.078234
    30  C    0.044354
    31  C    0.053549
    32  C   -0.018779
    33  C   -0.073817
    34  N   -0.461871
    35  C    0.177462
    36  C   -0.187902
    37  C   -0.009428
    38  C    0.129310
    39  C    0.082224
    40  C    0.099572
    41  O   -0.227371
    42  C   -0.079683
    43  C    0.284021
    44  O   -0.264768
    45  O   -0.350144
    46  C    0.130844
    47  C    0.239791
    48  C   -0.103625
    49  C   -0.211227
    50  C    0.007664
    51  C    0.058253
    52  C   -0.034985
    53  C   -0.031430
    54  C   -0.131617
    55  C   -0.015007
    56  C   -0.038635
    57  C   -0.033852
    58  C    0.044939
    59  C   -0.178783
    60  C    0.019061
    61  C   -0.031375
    62  C   -0.023094
    63  C   -0.022656
    64  C   -0.237906
    65  C    0.010922
    66  C    0.018779
    67  H   -0.000608
    68  H    0.026333
    69  H   -0.011465
    70  H    0.038333
    71  H    0.039687
    72  H    0.048860
    73  H    0.036941
    74  H    0.034254
    75  H    0.041313
    76  H    0.045513
    77  H    0.058225
    78  H    0.048661
    79  H    0.024975
    80  H    0.060124
    81  H    0.034526
    82  H    0.051029
    83  H    0.056445
    84  H    0.068102
    85  H    0.039346
    86  H    0.038712
    87  H    0.041355
    88  H    0.034386
    89  H    0.045917
    90  H    0.036626
    91  H    0.034136
    92  H    0.043871
    93  H    0.034724
    94  H    0.044250
    95  H    0.032533
    96  H    0.052391
    97  H    0.066885
    98  H    0.073038
    99  H    0.054168
   100  H    0.060773
   101  H    0.059800
   102  H    0.035997
   103  H    0.065895
   104  H    0.016536
   105  H    0.059675
   106  H    0.040135
   107  H    0.036120
   108  H    0.011701
   109  H    0.040868
   110  H    0.033342
   111  H    0.025051
   112  H    0.016855
   113  H    0.032221
   114  H    0.021684
   115  H    0.019408
   116  H    0.041887
   117  H    0.029661
   118  H    0.005595
   119  H   -0.001502
   120  H    0.017616
   121  H    0.036588
   122  H    0.013792
   123  H    0.016720
   124  H    0.012675
   125  H    0.023570
   126  H    0.021945
   127  H    0.031085
   128  H    0.026419
   129  H    0.005784
   130  H    0.020218
   131  H    0.010547
   132  H    0.023500
   133  H    0.018891
   134  H    0.025518
   135  H    0.033436
   136  H    0.018292
   137  H    0.031781
   138  H    0.023208
   139  H    0.036701
   140  H    0.026039
 Sum of Mulliken charges =  -0.00000

 Dipole moment (field-independent basis, Debye):
    X=             -3.0811    Y=              3.7490    Z=              0.6950  Tot=              4.9022
 Quadrupole moment (field-independent basis, Debye-Ang):
   XX=           -375.6064   YY=           -419.9095   ZZ=           -407.6129
   XY=              2.0308   XZ=             29.3103   YZ=              4.4714

 Normal termination of Gaussian 16 at Fri Apr 29 02:24:07 2022.
