 Gaussian 16, Revision A.03,
 Gaussian 16:  ES64L-G16RevA.03 25-Dec-2016

 --------------------
 #p ZINDO=(nstates=5)
 --------------------

 ------------------------------
 step_1801_chromophore_25 ZINDO
 ------------------------------
 Symbolic Z-matrix:
 Charge =  0 Multiplicity = 1

                         Standard orientation:
 ---------------------------------------------------------------------
 Center     Atomic      Atomic             Coordinates (Angstroms)
 Number     Number       Type             X           Y           Z
 ---------------------------------------------------------------------
      1         12           0        6.139640    0.387263   -0.007125
      2          6           0        3.798801   -2.161889   -0.165399
      3          6           0        3.676664    2.687569   -0.738268
      4          6           0        8.480127    2.805736   -0.303141
      5          6           0        8.593292   -1.880645    0.696497
      6          7           0        3.960703    0.226443   -0.510972
      7          6           0        3.245568   -0.881540   -0.267324
      8          6           0        1.724520   -0.538946   -0.281223
      9          6           0        1.689180    1.058135   -0.606882
     10          6           0        3.228697    1.355063   -0.682609
     11          6           0        0.890386    1.593353   -1.838935
     12          6           0        0.823830   -0.957660    0.990494
     13          6           0       -0.204720   -2.053291    0.819267
     14          6           0       -1.493560   -1.880680    1.546426
     15          8           0       -1.738448   -2.397209    2.607819
     16          8           0       -2.370338   -1.206308    0.708784
     17          7           0        6.047219    2.441179   -0.476729
     18          6           0        4.964867    3.230865   -0.630515
     19          6           0        5.387940    4.578211   -0.822685
     20          6           0        6.830469    4.626644   -0.646806
     21          6           0        7.130368    3.229039   -0.503518
     22          6           0        4.427050    5.717831   -0.911135
     23          6           0        7.797237    5.834585   -0.708238
     24          8           0        9.016446    5.799817   -0.578183
     25          6           0        7.263432    7.278846   -0.958111
     26          7           0        8.275706    0.438301    0.041177
     27          6           0        9.025628    1.551026   -0.078236
     28          6           0       10.485705    1.373334    0.419726
     29          6           0       10.469982   -0.119623    0.882234
     30          6           0        9.023601   -0.551598    0.567973
     31          6           0       11.699893    1.597825   -0.462578
     32          6           0       10.970410   -0.364133    2.340029
     33          6           0       10.122530    0.285940    3.475165
     34          7           0        6.261928   -1.637285    0.210795
     35          6           0        7.330920   -2.453122    0.516251
     36          6           0        6.886369   -3.783968    0.698857
     37          6           0        5.482212   -3.781549    0.413275
     38          6           0        5.186145   -2.434362    0.077778
     39          6           0        7.642858   -4.978999    1.075277
     40          6           0        4.219717   -4.504681    0.295972
     41          8           0        4.053173   -5.729027    0.424626
     42          6           0        3.077275   -3.488183   -0.102619
     43          6           0        2.500849   -3.928313   -1.456339
     44          8           0        2.990976   -3.845436   -2.593145
     45          8           0        1.241593   -4.360351   -1.217779
     46          6           0        0.477983   -4.744800   -2.435239
     47          6           0       -3.750894   -1.168591    1.312373
     48          6           0       -4.672688   -1.154863    0.110086
     49          6           0       -5.668380   -2.006213   -0.173681
     50          6           0       -5.807304   -3.365292    0.521069
     51          6           0       -6.649638   -1.745428   -1.253477
     52          6           0       -7.302313   -0.387422   -1.484529
     53          6           0       -8.918273   -0.432725   -1.493764
     54          6           0       -9.641075    0.880632   -1.091510
     55          6           0      -10.330181    0.981030    0.291196
     56          6           0      -10.704338    1.183493   -2.204814
     57          6           0      -11.789900    0.115910   -2.583677
     58          6           0      -13.261199    0.573972   -2.375724
     59          6           0      -14.037638   -0.010698   -1.185031
     60          6           0      -15.282629   -0.770276   -1.626935
     61          6           0      -14.497057    1.186183   -0.258567
     62          6           0      -14.697129    0.833793    1.200341
     63          6           0      -14.950212    2.095053    2.090463
     64          6           0      -13.805770    2.170605    3.210869
     65          6           0      -14.329855    2.905846    4.456389
     66          6           0      -12.517537    2.803185    2.681449
     67          1           0        2.885389    3.439536   -0.719435
     68          1           0        9.160617    3.632565   -0.091583
     69          1           0        9.369549   -2.539928    1.089420
     70          1           0        1.461935   -0.910264   -1.271098
     71          1           0        1.145573    1.489554    0.233705
     72          1           0        0.393807    0.796409   -2.393578
     73          1           0        1.585773    2.129601   -2.484952
     74          1           0        0.225627    2.378553   -1.479222
     75          1           0        0.354074   -0.057462    1.385972
     76          1           0        1.515942   -1.268569    1.772943
     77          1           0        0.145454   -3.038735    1.125836
     78          1           0       -0.478126   -2.232586   -0.220210
     79          1           0        4.793168    6.607224   -1.423227
     80          1           0        4.019223    6.007899    0.056970
     81          1           0        3.592518    5.374521   -1.522005
     82          1           0        6.560572    7.339755   -1.788447
     83          1           0        8.066417    7.909555   -1.339838
     84          1           0        6.803540    7.524312   -0.000633
     85          1           0       10.600109    1.935253    1.346911
     86          1           0       11.036606   -0.772894    0.218702
     87          1           0       11.291999    1.746819   -1.462943
     88          1           0       12.307412    0.693341   -0.458476
     89          1           0       12.290395    2.459493   -0.149842
     90          1           0       11.958201    0.071700    2.492567
     91          1           0       10.976326   -1.438813    2.523498
     92          1           0        9.550122    1.153744    3.144470
     93          1           0       10.777936    0.672951    4.255784
     94          1           0        9.507124   -0.492291    3.926861
     95          1           0        8.328300   -4.842590    1.912584
     96          1           0        8.301593   -5.209798    0.238067
     97          1           0        6.935093   -5.766514    1.332638
     98          1           0        2.290104   -3.629726    0.636847
     99          1           0        0.047440   -3.942703   -3.034057
    100          1           0       -0.265031   -5.498007   -2.174204
    101          1           0        1.120711   -5.227067   -3.172296
    102          1           0       -3.728588   -0.188127    1.788959
    103          1           0       -4.020624   -1.866917    2.105769
    104          1           0       -4.715901   -0.243799   -0.485837
    105          1           0       -6.554510   -3.358122    1.314098
    106          1           0       -4.862974   -3.746098    0.909256
    107          1           0       -5.993694   -4.144214   -0.217399
    108          1           0       -7.428572   -2.506704   -1.284034
    109          1           0       -6.106034   -2.032812   -2.153822
    110          1           0       -7.022117    0.131022   -2.401174
    111          1           0       -6.961486    0.228282   -0.652892
    112          1           0       -9.345755   -1.198913   -0.848270
    113          1           0       -9.124874   -0.786346   -2.503976
    114          1           0       -8.823545    1.600807   -1.116594
    115          1           0      -11.388875    1.230861    0.236194
    116          1           0       -9.871118    1.835747    0.788013
    117          1           0      -10.348398    0.120565    0.959715
    118          1           0      -10.180917    1.516969   -3.100431
    119          1           0      -11.263923    2.100515   -2.015541
    120          1           0      -11.561316   -0.593769   -1.788216
    121          1           0      -11.606296   -0.194365   -3.612057
    122          1           0      -13.709175    0.304249   -3.331921
    123          1           0      -13.255051    1.655604   -2.241358
    124          1           0      -13.406508   -0.710146   -0.635221
    125          1           0      -16.069597   -0.730910   -0.873409
    126          1           0      -15.105134   -1.845140   -1.679082
    127          1           0      -15.526268   -0.376599   -2.613586
    128          1           0      -15.321507    1.717856   -0.733088
    129          1           0      -13.671695    1.896047   -0.199613
    130          1           0      -13.880068    0.274051    1.657043
    131          1           0      -15.612526    0.247898    1.284350
    132          1           0      -15.979211    1.887544    2.383817
    133          1           0      -14.958381    3.021264    1.514849
    134          1           0      -13.714497    1.105812    3.421712
    135          1           0      -15.286237    3.376267    4.229799
    136          1           0      -13.680721    3.689931    4.846257
    137          1           0      -14.380084    2.150916    5.242210
    138          1           0      -11.895417    2.049107    2.200157
    139          1           0      -11.965544    3.332973    3.458391
    140          1           0      -12.823413    3.509039    1.910143
 ---------------------------------------------------------------------

 SCF Done:  E(RZINDO/S) =  -474.260027503     A.U. after   20 cycles

 Excitation energies and oscillator strengths:

 Excited State   1:      Singlet-A      1.2776 eV  970.44 nm  f=0.5968  <S**2>=0.000
     175 ->178        -0.20391
     176 ->177         0.65880
 This state for optimization and/or second-order correction.
 Total Energy, E(CIS/TDA) =  -474.213076081
 Copying the excited state density for this state as the 1-particle RhoCI density.

 Excited State   2:      Singlet-A      1.8804 eV  659.34 nm  f=0.1091  <S**2>=0.000
     175 ->177         0.58434
     176 ->178         0.36648

 Excited State   3:      Singlet-A      2.9472 eV  420.69 nm  f=0.0017  <S**2>=0.000
     168 ->177         0.35483
     168 ->178        -0.16205
     168 ->179        -0.37937
     168 ->180         0.22240
     168 ->182         0.14926
     168 ->185        -0.12404
     168 ->186         0.12822

 Excited State   4:      Singlet-A      2.9692 eV  417.57 nm  f=0.0049  <S**2>=0.000
     169 ->177         0.18143
     169 ->179         0.22137
     169 ->180         0.27481
     169 ->185         0.11128
     169 ->186        -0.12057
     169 ->187         0.11156
     170 ->177         0.19500
     170 ->179         0.23807
     170 ->180         0.27839
     170 ->185         0.11302
     170 ->186        -0.12232
     170 ->187         0.11052

 Excited State   5:      Singlet-A      3.0462 eV  407.01 nm  f=0.8100  <S**2>=0.000
     171 ->177         0.16900
     172 ->177        -0.11117
     175 ->177        -0.29024
     176 ->178         0.52955
     176 ->179         0.24163

 The electronic state is 1-A.
 Alpha  occ. eigenvalues --   -1.84751  -1.82745  -1.80083  -1.73320  -1.72283
 Alpha  occ. eigenvalues --   -1.70748  -1.65673  -1.59800  -1.58066  -1.57991
 Alpha  occ. eigenvalues --   -1.55582  -1.51719  -1.48390  -1.47832  -1.47089
 Alpha  occ. eigenvalues --   -1.44378  -1.42978  -1.40263  -1.38782  -1.37759
 Alpha  occ. eigenvalues --   -1.36257  -1.34947  -1.33390  -1.32360  -1.30065
 Alpha  occ. eigenvalues --   -1.27737  -1.24866  -1.21734  -1.20510  -1.18681
 Alpha  occ. eigenvalues --   -1.17781  -1.17752  -1.15728  -1.14184  -1.12758
 Alpha  occ. eigenvalues --   -1.12089  -1.11045  -1.10087  -1.05705  -1.04089
 Alpha  occ. eigenvalues --   -1.02790  -1.01344  -0.99279  -0.98053  -0.97549
 Alpha  occ. eigenvalues --   -0.96977  -0.95598  -0.94121  -0.93132  -0.92807
 Alpha  occ. eigenvalues --   -0.90854  -0.90133  -0.88378  -0.87560  -0.85406
 Alpha  occ. eigenvalues --   -0.84936  -0.83806  -0.83585  -0.81496  -0.81021
 Alpha  occ. eigenvalues --   -0.79166  -0.78231  -0.77302  -0.76740  -0.76497
 Alpha  occ. eigenvalues --   -0.76249  -0.75681  -0.75174  -0.74780  -0.74555
 Alpha  occ. eigenvalues --   -0.73627  -0.72748  -0.71688  -0.71477  -0.70944
 Alpha  occ. eigenvalues --   -0.70359  -0.70101  -0.69106  -0.68244  -0.67986
 Alpha  occ. eigenvalues --   -0.67403  -0.67007  -0.66021  -0.65840  -0.65558
 Alpha  occ. eigenvalues --   -0.64716  -0.64571  -0.64146  -0.63877  -0.63481
 Alpha  occ. eigenvalues --   -0.63270  -0.63177  -0.62958  -0.62795  -0.62094
 Alpha  occ. eigenvalues --   -0.61998  -0.61498  -0.61449  -0.61243  -0.60741
 Alpha  occ. eigenvalues --   -0.59811  -0.59676  -0.59259  -0.58576  -0.57882
 Alpha  occ. eigenvalues --   -0.57670  -0.57487  -0.57317  -0.56677  -0.56600
 Alpha  occ. eigenvalues --   -0.56148  -0.55829  -0.55448  -0.55080  -0.54531
 Alpha  occ. eigenvalues --   -0.53989  -0.53592  -0.53347  -0.53051  -0.52734
 Alpha  occ. eigenvalues --   -0.52680  -0.51807  -0.51685  -0.51372  -0.51210
 Alpha  occ. eigenvalues --   -0.50802  -0.50607  -0.50430  -0.50290  -0.50176
 Alpha  occ. eigenvalues --   -0.49970  -0.49366  -0.49227  -0.48969  -0.48820
 Alpha  occ. eigenvalues --   -0.48672  -0.48507  -0.48397  -0.48237  -0.47919
 Alpha  occ. eigenvalues --   -0.47485  -0.47406  -0.47113  -0.46746  -0.46630
 Alpha  occ. eigenvalues --   -0.46436  -0.46286  -0.45785  -0.45671  -0.45501
 Alpha  occ. eigenvalues --   -0.45176  -0.44900  -0.44681  -0.44407  -0.44240
 Alpha  occ. eigenvalues --   -0.43958  -0.43400  -0.43236  -0.42547  -0.42504
 Alpha  occ. eigenvalues --   -0.42183  -0.41978  -0.41896  -0.39196  -0.38974
 Alpha  occ. eigenvalues --   -0.38596  -0.37423  -0.35566  -0.35284  -0.34756
 Alpha  occ. eigenvalues --   -0.33059  -0.32842  -0.32662  -0.32261  -0.26389
 Alpha  occ. eigenvalues --   -0.22370
 Alpha virt. eigenvalues --   -0.08941  -0.02129  -0.00715   0.01078   0.01732
 Alpha virt. eigenvalues --    0.02200   0.02381   0.03020   0.04524   0.04573
 Alpha virt. eigenvalues --    0.06095   0.06504   0.07117   0.07333   0.07629

 Mulliken charges:
               1
     1  Mg   0.429716
     2  C   -0.052857
     3  C   -0.070480
     4  C   -0.063681
     5  C   -0.061371
     6  N   -0.272704
     7  C    0.142226
     8  C   -0.019000
     9  C   -0.018065
    10  C    0.119262
    11  C   -0.051890
    12  C   -0.009394
    13  C    0.007163
    14  C    0.472072
    15  O   -0.507537
    16  O   -0.273943
    17  N   -0.311543
    18  C    0.103239
    19  C   -0.004210
    20  C   -0.062132
    21  C    0.139778
    22  C   -0.047277
    23  C    0.325407
    24  O   -0.519378
    25  C   -0.033619
    26  N   -0.252744
    27  C    0.121193
    28  C    0.002480
    29  C   -0.001892
    30  C    0.132495
    31  C   -0.046708
    32  C   -0.028496
    33  C   -0.059341
    34  N   -0.331685
    35  C    0.107990
    36  C    0.056314
    37  C   -0.064841
    38  C    0.125033
    39  C   -0.034719
    40  C    0.333246
    41  O   -0.526044
    42  C    0.059889
    43  C    0.487128
    44  O   -0.523066
    45  O   -0.257837
    46  C    0.068625
    47  C    0.102737
    48  C   -0.097560
    49  C    0.012848
    50  C   -0.048049
    51  C   -0.015565
    52  C   -0.034691
    53  C   -0.041157
    54  C   -0.003007
    55  C   -0.057528
    56  C   -0.042994
    57  C   -0.045057
    58  C   -0.038372
    59  C   -0.013310
    60  C   -0.059599
    61  C   -0.033358
    62  C   -0.041166
    63  C   -0.051641
    64  C   -0.013266
    65  C   -0.059519
    66  C   -0.054425
    67  H    0.020311
    68  H    0.046143
    69  H    0.017731
    70  H    0.040733
    71  H    0.028681
    72  H    0.030323
    73  H    0.022183
    74  H    0.020535
    75  H    0.030819
    76  H    0.025611
    77  H    0.037384
    78  H    0.034082
    79  H    0.025166
    80  H    0.032618
    81  H    0.017529
    82  H    0.027716
    83  H    0.041483
    84  H    0.045782
    85  H    0.032313
    86  H    0.028636
    87  H    0.024274
    88  H    0.022547
    89  H    0.027190
    90  H    0.021753
    91  H    0.020041
    92  H    0.026339
    93  H    0.014540
    94  H    0.021029
    95  H    0.024005
    96  H    0.036949
    97  H    0.038953
    98  H    0.060890
    99  H    0.044370
   100  H    0.034772
   101  H    0.044819
   102  H    0.033016
   103  H    0.066902
   104  H    0.024880
   105  H    0.035975
   106  H    0.021284
   107  H    0.020853
   108  H    0.016155
   109  H    0.022497
   110  H    0.025831
   111  H    0.017075
   112  H    0.017432
   113  H    0.018525
   114  H    0.020421
   115  H    0.020063
   116  H    0.015059
   117  H    0.023028
   118  H    0.003573
   119  H    0.007117
   120  H    0.025769
   121  H    0.030066
   122  H    0.016497
   123  H    0.023390
   124  H    0.023369
   125  H    0.019388
   126  H    0.010075
   127  H    0.026961
   128  H    0.027257
   129  H    0.007345
   130  H    0.026736
   131  H    0.010337
   132  H    0.021245
   133  H    0.019871
   134  H    0.023327
   135  H    0.021899
   136  H    0.016752
   137  H    0.016758
   138  H    0.020551
   139  H    0.022688
   140  H    0.019663
 Sum of Mulliken charges =   0.00000

 Dipole moment (field-independent basis, Debye):
    X=             -4.0989    Y=              4.7790    Z=              1.9131  Tot=              6.5802
 N-N= 4.222746748166D+03 E-N= 0.000000000000D+00  KE=-9.119439387161D+03
 Leave Link  601 at Fri Apr 29 02:36:25 2022, MaxMem=  6710886400 cpu:               1.8 elap:               0.1
 (Enter /sw/apps/gaussian-16.0/g16/l9999.exe)
 1\1\GINC-BP1-COMPUTE159\SP\RZINDO CIS\STO-3G\C55H74Mg1N4O6\OF15641\29-
 Apr-2022\0\\#p ZINDO=(nstates=5)\\step_1801_chromophore_25 ZINDO\\0,1\
 Mg,0,-2.479,34.491,26.742\C,0,-3.817,32.887,29.506\C,0,-1.027,36.836,2
 8.812\C,0,-1.558,36.307,24.046\C,0,-3.928,32.189,24.678\N,0,-2.532,34.
 86,28.953\C,0,-2.944,33.931,29.828\C,0,-2.436,34.293,31.257\C,0,-1.618
 ,35.686,31.037\C,0,-1.775,35.852,29.484\C,0,-2.011,36.966,31.843\C,0,-
 1.61,33.185,32.09\C,0,-2.256,32.567,33.31\C,0,-1.364,32.287,34.47\O,0,

 Normal termination of Gaussian 16 at Fri Apr 29 02:36:25 2022.
