 Gaussian 16, Revision A.03,
 Gaussian 16:  ES64L-G16RevA.03 25-Dec-2016

 ------------------------------
 #p blyp/Def2SVP td=(nstates=5)
 ------------------------------

 ---------------------------------------------------
 step_1601_chromophore_27 TDDFT with blyp functional
 ---------------------------------------------------
 Symbolic Z-matrix:
 Charge =  0 Multiplicity = 1

                         Standard orientation:
 ---------------------------------------------------------------------
 Center     Atomic      Atomic             Coordinates (Angstroms)
 Number     Number       Type             X           Y           Z
 ---------------------------------------------------------------------
      1         12           0       -4.530730    0.892773    0.123756
      2          6           0       -4.001405   -2.559079    0.280346
      3          6           0       -1.110341    1.322463    0.464623
      4          6           0       -5.039055    4.189930    0.086551
      5          6           0       -7.993955    0.318121    0.340707
      6          7           0       -2.702202   -0.474612    0.252251
      7          6           0       -2.783236   -1.827624    0.098452
      8          6           0       -1.322296   -2.361610   -0.001845
      9          6           0       -0.441408   -1.139549    0.498034
     10          6           0       -1.472570    0.045300    0.375882
     11          6           0        0.160432   -1.247569    2.015706
     12          6           0       -1.014359   -2.812741   -1.521123
     13          6           0       -0.077806   -3.940513   -1.600032
     14          6           0        1.401362   -4.024508   -1.917274
     15          8           0        1.864027   -4.335684   -3.018132
     16          8           0        2.125496   -3.729266   -0.814111
     17          7           0       -3.274219    2.497388    0.271316
     18          6           0       -1.926092    2.473324    0.388927
     19          6           0       -1.401057    3.772300    0.460541
     20          6           0       -2.476846    4.669735    0.252849
     21          6           0       -3.690294    3.843915    0.153158
     22          6           0        0.100221    4.134906    0.596977
     23          6           0       -2.406744    6.233174    0.130846
     24          8           0       -3.477778    6.844021   -0.064997
     25          6           0       -1.103789    7.010699    0.080947
     26          7           0       -6.180206    2.048828    0.080634
     27          6           0       -6.190288    3.368715    0.029861
     28          6           0       -7.609985    4.020163   -0.299808
     29          6           0       -8.484769    2.736473   -0.055252
     30          6           0       -7.535720    1.598254    0.197085
     31          6           0       -8.033909    5.345826    0.497407
     32          6           0       -9.584586    2.410515   -1.146769
     33          6           0      -11.061037    2.170113   -0.617635
     34          7           0       -5.815274   -0.735245    0.337119
     35          6           0       -7.161606   -0.790487    0.356493
     36          6           0       -7.574619   -2.146617    0.314381
     37          6           0       -6.416883   -2.925087    0.281725
     38          6           0       -5.317505   -1.987044    0.287098
     39          6           0       -8.992503   -2.529781    0.294043
     40          6           0       -5.854435   -4.338045    0.229353
     41          8           0       -6.331378   -5.463826    0.166939
     42          6           0       -4.271955   -4.079693    0.251999
     43          6           0       -3.708875   -4.884797    1.377553
     44          8           0       -3.824062   -4.589396    2.564204
     45          8           0       -2.974180   -5.861075    0.873352
     46          6           0       -2.143494   -6.692569    1.769005
     47          6           0        3.573145   -3.995009   -0.932781
     48          6           0        4.400923   -2.811264   -1.568390
     49          6           0        5.643811   -2.514524   -1.410835
     50          6           0        6.688911   -3.407585   -0.859838
     51          6           0        6.013992   -0.999413   -1.772652
     52          6           0        6.259815   -0.714533   -3.265118
     53          6           0        7.630654   -0.195795   -3.496131
     54          6           0        7.609237    1.258108   -3.961685
     55          6           0        7.375994    1.446399   -5.468732
     56          6           0        8.795398    2.026562   -3.445468
     57          6           0        8.708408    2.452460   -1.922333
     58          6           0       10.068102    2.287195   -1.145019
     59          6           0        9.736182    1.600919    0.185738
     60          6           0        9.585623    0.072465    0.077944
     61          6           0       10.633356    2.122100    1.325063
     62          6           0        9.884074    2.248905    2.685404
     63          6           0        9.742796    0.905973    3.443219
     64          6           0       10.235463    0.769640    4.828954
     65          6           0       11.754280    0.316053    4.847145
     66          6           0        9.357012   -0.153156    5.702915
     67          1           0       -0.018885    1.331245    0.485368
     68          1           0       -5.276005    5.256372    0.080558
     69          1           0       -9.078994    0.210833    0.278340
     70          1           0       -1.268664   -3.296859    0.555615
     71          1           0        0.335795   -0.852854   -0.210635
     72          1           0       -0.102599   -0.358845    2.588681
     73          1           0        1.250330   -1.225586    2.029572
     74          1           0       -0.097380   -2.156313    2.560274
     75          1           0       -0.575552   -1.920874   -1.969296
     76          1           0       -1.932365   -2.983313   -2.082362
     77          1           0       -0.594279   -4.671304   -2.223048
     78          1           0       -0.082463   -4.516383   -0.674669
     79          1           0        0.670556    4.092861   -0.331064
     80          1           0        0.567604    3.531337    1.373860
     81          1           0        0.110486    5.180827    0.904373
     82          1           0       -0.361108    6.503282   -0.533635
     83          1           0       -0.694038    7.094792    1.087404
     84          1           0       -1.203168    7.962139   -0.443801
     85          1           0       -7.812078    4.211799   -1.353938
     86          1           0       -9.010802    2.936156    0.878580
     87          1           0       -7.242926    5.986279    0.887195
     88          1           0       -8.716740    5.126257    1.318738
     89          1           0       -8.517570    5.970599   -0.253124
     90          1           0       -9.330636    1.538870   -1.749456
     91          1           0       -9.767768    3.184561   -1.893503
     92          1           0      -11.517077    1.238611   -0.953930
     93          1           0      -11.648405    3.010798   -0.985585
     94          1           0      -11.065324    2.234845    0.469907
     95          1           0       -9.517226   -1.970953   -0.481272
     96          1           0       -9.540857   -2.298569    1.207957
     97          1           0       -9.199920   -3.588064    0.134944
     98          1           0       -3.919654   -4.435535   -0.716512
     99          1           0       -2.671811   -6.859406    2.707106
    100          1           0       -1.189219   -6.182081    1.897401
    101          1           0       -2.109142   -7.687694    1.325687
    102          1           0        3.836735   -4.968978   -1.346159
    103          1           0        3.978126   -3.991769    0.079511
    104          1           0        3.717168   -2.049380   -1.943023
    105          1           0        7.011550   -2.895673    0.047062
    106          1           0        7.594180   -3.499471   -1.460503
    107          1           0        6.249358   -4.391728   -0.699634
    108          1           0        6.861464   -0.740894   -1.137148
    109          1           0        5.199877   -0.365218   -1.419611
    110          1           0        5.625494    0.106493   -3.598515
    111          1           0        6.036904   -1.511780   -3.974020
    112          1           0        7.890530   -0.833349   -4.340592
    113          1           0        8.336125   -0.297823   -2.671359
    114          1           0        6.787573    1.843497   -3.547661
    115          1           0        7.167256    0.548923   -6.051039
    116          1           0        8.226049    1.895872   -5.982143
    117          1           0        6.571810    2.151941   -5.678809
    118          1           0        8.892524    2.967253   -3.987685
    119          1           0        9.691268    1.410530   -3.518768
    120          1           0        7.819995    2.038841   -1.444237
    121          1           0        8.556119    3.528475   -1.830869
    122          1           0       10.463772    3.274874   -0.907044
    123          1           0       10.864362    1.757551   -1.667861
    124          1           0        8.700713    1.862606    0.404421
    125          1           0        8.560391   -0.131702    0.390041
    126          1           0       10.267631   -0.570592    0.633893
    127          1           0        9.663004   -0.227621   -0.966669
    128          1           0       11.115517    3.070112    1.089940
    129          1           0       11.463261    1.423390    1.430777
    130          1           0        8.924729    2.720524    2.469800
    131          1           0       10.423381    2.882381    3.390964
    132          1           0       10.253515    0.192545    2.796964
    133          1           0        8.693349    0.610653    3.410277
    134          1           0       10.261677    1.767267    5.265095
    135          1           0       11.924132   -0.260174    5.756124
    136          1           0       12.520118    1.091882    4.840685
    137          1           0       11.956756   -0.361523    4.016810
    138          1           0        8.813932   -0.850834    5.065736
    139          1           0        8.682993    0.540560    6.205300
    140          1           0        9.704985   -0.874143    6.442606
 ---------------------------------------------------------------------

 SCF Done:  E(RB-LYP) =  -3007.34401921     A.U. after   21 cycles

 Excitation energies and oscillator strengths:

 Excited State   1:      Singlet-A      1.7996 eV  688.96 nm  f=0.3181  <S**2>=0.000
     245 -> 248        0.17071
     246 -> 247        0.69316
     246 <- 247       -0.15647
 This state for optimization and/or second-order correction.
 Total Energy, E(TD-HF/TD-DFT) =  -3007.27788591
 Copying the excited state density for this state as the 1-particle RhoCI density.

 Excited State   2:      Singlet-A      2.0012 eV  619.55 nm  f=0.0111  <S**2>=0.000
     244 -> 247        0.64234
     245 -> 247       -0.26848

 Excited State   3:      Singlet-A      2.0529 eV  603.94 nm  f=0.0429  <S**2>=0.000
     243 -> 247       -0.32510
     244 -> 247        0.28261
     245 -> 247        0.50750
     246 -> 248       -0.20409

 Excited State   4:      Singlet-A      2.1084 eV  588.06 nm  f=0.0156  <S**2>=0.000
     243 -> 247        0.62259
     245 -> 247        0.28093
     246 -> 248       -0.14479

 Excited State   5:      Singlet-A      2.4044 eV  515.65 nm  f=0.0002  <S**2>=0.000
     241 -> 247       -0.18122
     242 -> 247        0.68331

 The electronic state is 1-A.
 Alpha  occ. eigenvalues --  -46.25971 -18.83469 -18.82464 -18.76716 -18.76568
 Alpha  occ. eigenvalues --  -18.75903 -18.75668 -14.03313 -14.02778 -14.00949
 Alpha  occ. eigenvalues --  -14.00659 -10.04496 -10.03434 -10.00746 -10.00562
 Alpha  occ. eigenvalues --   -9.98781  -9.98355  -9.97078  -9.96744  -9.96225
 Alpha  occ. eigenvalues --   -9.95969  -9.95566  -9.95221  -9.94827  -9.94811
 Alpha  occ. eigenvalues --   -9.94584  -9.94573  -9.94544  -9.94525  -9.93764
 Alpha  occ. eigenvalues --   -9.93710  -9.93607  -9.93319  -9.93152  -9.93121
 Alpha  occ. eigenvalues --   -9.93100  -9.92904  -9.92854  -9.92785  -9.92740
 Alpha  occ. eigenvalues --   -9.92705  -9.92580  -9.92392  -9.92317  -9.92222
 Alpha  occ. eigenvalues --   -9.92212  -9.92211  -9.92189  -9.91920  -9.91870
 Alpha  occ. eigenvalues --   -9.91668  -9.91539  -9.91536  -9.91443  -9.91363
 Alpha  occ. eigenvalues --   -9.91292  -9.91289  -9.91244  -9.91132  -9.91101
 Alpha  occ. eigenvalues --   -9.90938  -9.90886  -9.90776  -9.90775  -9.90568
 Alpha  occ. eigenvalues --   -9.90566  -2.90814  -1.71243  -1.70686  -1.70535
 Alpha  occ. eigenvalues --   -0.98614  -0.98582  -0.91518  -0.90517  -0.89695
 Alpha  occ. eigenvalues --   -0.89192  -0.86760  -0.85762  -0.85620  -0.84617
 Alpha  occ. eigenvalues --   -0.74654  -0.74252  -0.73431  -0.73003  -0.72533
 Alpha  occ. eigenvalues --   -0.72456  -0.71567  -0.71481  -0.70597  -0.70288
 Alpha  occ. eigenvalues --   -0.69750  -0.68648  -0.68196  -0.67566  -0.66791
 Alpha  occ. eigenvalues --   -0.66452  -0.66161  -0.65585  -0.65369  -0.64480
 Alpha  occ. eigenvalues --   -0.64112  -0.62415  -0.62179  -0.61942  -0.61174
 Alpha  occ. eigenvalues --   -0.60676  -0.60535  -0.60226  -0.59903  -0.59277
 Alpha  occ. eigenvalues --   -0.58711  -0.57794  -0.56760  -0.56154  -0.54565
 Alpha  occ. eigenvalues --   -0.54456  -0.53821  -0.52899  -0.52509  -0.51791
 Alpha  occ. eigenvalues --   -0.51200  -0.51067  -0.50876  -0.50423  -0.50233
 Alpha  occ. eigenvalues --   -0.49868  -0.49646  -0.48944  -0.48676  -0.46821
 Alpha  occ. eigenvalues --   -0.46333  -0.45936  -0.45647  -0.44778  -0.44696
 Alpha  occ. eigenvalues --   -0.44446  -0.43889  -0.43190  -0.42929  -0.42317
 Alpha  occ. eigenvalues --   -0.42011  -0.41900  -0.41592  -0.41327  -0.40942
 Alpha  occ. eigenvalues --   -0.40824  -0.40502  -0.40366  -0.40127  -0.39963
 Alpha  occ. eigenvalues --   -0.39884  -0.39793  -0.39744  -0.39290  -0.39002
 Alpha  occ. eigenvalues --   -0.38942  -0.38880  -0.38749  -0.38631  -0.38376
 Alpha  occ. eigenvalues --   -0.38204  -0.38095  -0.37679  -0.37491  -0.37261
 Alpha  occ. eigenvalues --   -0.37081  -0.36916  -0.36634  -0.36531  -0.36489
 Alpha  occ. eigenvalues --   -0.36259  -0.36174  -0.36005  -0.35853  -0.35847
 Alpha  occ. eigenvalues --   -0.35454  -0.35319  -0.35156  -0.34805  -0.34756
 Alpha  occ. eigenvalues --   -0.34627  -0.34515  -0.34395  -0.34248  -0.33901
 Alpha  occ. eigenvalues --   -0.33852  -0.33357  -0.33293  -0.33208  -0.33187
 Alpha  occ. eigenvalues --   -0.33009  -0.32885  -0.32785  -0.32554  -0.32319
 Alpha  occ. eigenvalues --   -0.32299  -0.32185  -0.32061  -0.31652  -0.31463
 Alpha  occ. eigenvalues --   -0.31314  -0.31108  -0.31082  -0.30902  -0.30787
 Alpha  occ. eigenvalues --   -0.30756  -0.30576  -0.30347  -0.30178  -0.29771
 Alpha  occ. eigenvalues --   -0.29745  -0.29439  -0.29321  -0.28960  -0.28842
 Alpha  occ. eigenvalues --   -0.28792  -0.28716  -0.28189  -0.28096  -0.28044
 Alpha  occ. eigenvalues --   -0.27875  -0.27543  -0.26826  -0.26448  -0.26417
 Alpha  occ. eigenvalues --   -0.26222  -0.26122  -0.25798  -0.25603  -0.25433
 Alpha  occ. eigenvalues --   -0.25269  -0.25162  -0.24586  -0.23904  -0.23861
 Alpha  occ. eigenvalues --   -0.23001  -0.22259  -0.21390  -0.21146  -0.20885
 Alpha  occ. eigenvalues --   -0.20509  -0.20436  -0.19207  -0.18906  -0.17532
 Alpha  occ. eigenvalues --   -0.15785
 Alpha virt. eigenvalues --   -0.11607  -0.07009  -0.06116  -0.04806  -0.03410
 Alpha virt. eigenvalues --   -0.02015  -0.01745  -0.00845  -0.00675  -0.00122
 Alpha virt. eigenvalues --    0.01005   0.01438   0.01819   0.02275   0.02600

 Mulliken charges:
               1
     1  Mg   0.702015
     2  C    0.060605
     3  C   -0.050881
     4  C   -0.052010
     5  C   -0.129091
     6  N   -0.183314
     7  C   -0.043855
     8  C   -0.025076
     9  C    0.049672
    10  C   -0.071919
    11  C    0.110227
    12  C    0.142579
    13  C    0.149954
    14  C    0.067939
    15  O   -0.192581
    16  O   -0.257045
    17  N   -0.311373
    18  C    0.206891
    19  C   -0.168657
    20  C    0.041766
    21  C    0.117066
    22  C    0.187179
    23  C   -0.053474
    24  O   -0.183196
    25  C    0.132696
    26  N   -0.256286
    27  C    0.045798
    28  C    0.000850
    29  C    0.058664
    30  C    0.073113
    31  C    0.101480
    32  C    0.051436
    33  C    0.038157
    34  N   -0.239755
    35  C    0.147607
    36  C   -0.176696
    37  C    0.047553
    38  C    0.039068
    39  C    0.175006
    40  C    0.010742
    41  O   -0.119721
    42  C    0.005286
    43  C    0.104963
    44  O   -0.193614
    45  O   -0.245247
    46  C    0.207989
    47  C    0.283885
    48  C   -0.078505
    49  C   -0.163280
    50  C    0.167485
    51  C    0.119353
    52  C    0.106745
    53  C    0.133169
    54  C   -0.084707
    55  C    0.108844
    56  C    0.118841
    57  C    0.031540
    58  C    0.115340
    59  C   -0.101802
    60  C    0.100930
    61  C    0.108847
    62  C    0.083104
    63  C    0.104118
    64  C   -0.057571
    65  C    0.081828
    66  C    0.088141
    67  H   -0.072817
    68  H   -0.047984
    69  H   -0.061164
    70  H   -0.024353
    71  H   -0.027018
    72  H   -0.005244
    73  H   -0.013468
    74  H    0.006796
    75  H   -0.027145
    76  H   -0.012799
    77  H   -0.016346
    78  H   -0.028421
    79  H    0.010121
    80  H   -0.003088
    81  H   -0.041196
    82  H   -0.001917
    83  H    0.032457
    84  H   -0.002583
    85  H   -0.009383
    86  H   -0.024583
    87  H    0.013826
    88  H   -0.006420
    89  H   -0.010281
    90  H   -0.012747
    91  H   -0.021457
    92  H    0.003014
    93  H   -0.008023
    94  H   -0.005838
    95  H   -0.011083
    96  H   -0.006884
    97  H   -0.003118
    98  H   -0.005124
    99  H    0.023427
   100  H    0.027272
   101  H    0.022293
   102  H    0.013085
   103  H   -0.004845
   104  H   -0.037879
   105  H   -0.001281
   106  H   -0.000460
   107  H   -0.013729
   108  H   -0.045218
   109  H   -0.030996
   110  H   -0.038645
   111  H   -0.024249
   112  H   -0.042919
   113  H   -0.033920
   114  H   -0.043312
   115  H   -0.023382
   116  H   -0.027318
   117  H   -0.024567
   118  H   -0.041613
   119  H   -0.033636
   120  H   -0.016173
   121  H   -0.034603
   122  H   -0.039928
   123  H   -0.023225
   124  H   -0.040921
   125  H    0.000751
   126  H   -0.009702
   127  H   -0.016852
   128  H   -0.042602
   129  H   -0.038949
   130  H   -0.034285
   131  H   -0.041054
   132  H   -0.039340
   133  H   -0.045154
   134  H   -0.035106
   135  H   -0.024906
   136  H   -0.011133
   137  H   -0.022436
   138  H   -0.021772
   139  H   -0.008260
   140  H   -0.017004
 Sum of Mulliken charges =  -0.00000

 Dipole moment (field-independent basis, Debye):
    X=              3.5755    Y=              2.5637    Z=              0.1273  Tot=              4.4015
 Quadrupole moment (field-independent basis, Debye-Ang):
   XX=           -380.1581   YY=           -423.3735   ZZ=           -419.0855
   XY=            -23.8833   XZ=             17.7471   YZ=             -7.1368

 Normal termination of Gaussian 16 at Wed May  4 11:00:22 2022.
