 Gaussian 16, Revision A.03,
 Gaussian 16:  ES64L-G16RevA.03 25-Dec-2016

 -----------------------------------
 #p cam-b3lyp/Def2SVP td=(nstates=5)
 -----------------------------------

 --------------------------------------------------------
 step_1601_chromophore_27 TDDFT with cam-b3lyp functional
 --------------------------------------------------------
 Symbolic Z-matrix:
 Charge =  0 Multiplicity = 1

                         Standard orientation:
 ---------------------------------------------------------------------
 Center     Atomic      Atomic             Coordinates (Angstroms)
 Number     Number       Type             X           Y           Z
 ---------------------------------------------------------------------
      1         12           0       -4.530730    0.892773    0.123756
      2          6           0       -4.001405   -2.559079    0.280346
      3          6           0       -1.110341    1.322463    0.464623
      4          6           0       -5.039055    4.189930    0.086551
      5          6           0       -7.993955    0.318121    0.340707
      6          7           0       -2.702202   -0.474612    0.252251
      7          6           0       -2.783236   -1.827624    0.098452
      8          6           0       -1.322296   -2.361610   -0.001845
      9          6           0       -0.441408   -1.139549    0.498034
     10          6           0       -1.472570    0.045300    0.375882
     11          6           0        0.160432   -1.247569    2.015706
     12          6           0       -1.014359   -2.812741   -1.521123
     13          6           0       -0.077806   -3.940513   -1.600032
     14          6           0        1.401362   -4.024508   -1.917274
     15          8           0        1.864027   -4.335684   -3.018132
     16          8           0        2.125496   -3.729266   -0.814111
     17          7           0       -3.274219    2.497388    0.271316
     18          6           0       -1.926092    2.473324    0.388927
     19          6           0       -1.401057    3.772300    0.460541
     20          6           0       -2.476846    4.669735    0.252849
     21          6           0       -3.690294    3.843915    0.153158
     22          6           0        0.100221    4.134906    0.596977
     23          6           0       -2.406744    6.233174    0.130846
     24          8           0       -3.477778    6.844021   -0.064997
     25          6           0       -1.103789    7.010699    0.080947
     26          7           0       -6.180206    2.048828    0.080634
     27          6           0       -6.190288    3.368715    0.029861
     28          6           0       -7.609985    4.020163   -0.299808
     29          6           0       -8.484769    2.736473   -0.055252
     30          6           0       -7.535720    1.598254    0.197085
     31          6           0       -8.033909    5.345826    0.497407
     32          6           0       -9.584586    2.410515   -1.146769
     33          6           0      -11.061037    2.170113   -0.617635
     34          7           0       -5.815274   -0.735245    0.337119
     35          6           0       -7.161606   -0.790487    0.356493
     36          6           0       -7.574619   -2.146617    0.314381
     37          6           0       -6.416883   -2.925087    0.281725
     38          6           0       -5.317505   -1.987044    0.287098
     39          6           0       -8.992503   -2.529781    0.294043
     40          6           0       -5.854435   -4.338045    0.229353
     41          8           0       -6.331378   -5.463826    0.166939
     42          6           0       -4.271955   -4.079693    0.251999
     43          6           0       -3.708875   -4.884797    1.377553
     44          8           0       -3.824062   -4.589396    2.564204
     45          8           0       -2.974180   -5.861075    0.873352
     46          6           0       -2.143494   -6.692569    1.769005
     47          6           0        3.573145   -3.995009   -0.932781
     48          6           0        4.400923   -2.811264   -1.568390
     49          6           0        5.643811   -2.514524   -1.410835
     50          6           0        6.688911   -3.407585   -0.859838
     51          6           0        6.013992   -0.999413   -1.772652
     52          6           0        6.259815   -0.714533   -3.265118
     53          6           0        7.630654   -0.195795   -3.496131
     54          6           0        7.609237    1.258108   -3.961685
     55          6           0        7.375994    1.446399   -5.468732
     56          6           0        8.795398    2.026562   -3.445468
     57          6           0        8.708408    2.452460   -1.922333
     58          6           0       10.068102    2.287195   -1.145019
     59          6           0        9.736182    1.600919    0.185738
     60          6           0        9.585623    0.072465    0.077944
     61          6           0       10.633356    2.122100    1.325063
     62          6           0        9.884074    2.248905    2.685404
     63          6           0        9.742796    0.905973    3.443219
     64          6           0       10.235463    0.769640    4.828954
     65          6           0       11.754280    0.316053    4.847145
     66          6           0        9.357012   -0.153156    5.702915
     67          1           0       -0.018885    1.331245    0.485368
     68          1           0       -5.276005    5.256372    0.080558
     69          1           0       -9.078994    0.210833    0.278340
     70          1           0       -1.268664   -3.296859    0.555615
     71          1           0        0.335795   -0.852854   -0.210635
     72          1           0       -0.102599   -0.358845    2.588681
     73          1           0        1.250330   -1.225586    2.029572
     74          1           0       -0.097380   -2.156313    2.560274
     75          1           0       -0.575552   -1.920874   -1.969296
     76          1           0       -1.932365   -2.983313   -2.082362
     77          1           0       -0.594279   -4.671304   -2.223048
     78          1           0       -0.082463   -4.516383   -0.674669
     79          1           0        0.670556    4.092861   -0.331064
     80          1           0        0.567604    3.531337    1.373860
     81          1           0        0.110486    5.180827    0.904373
     82          1           0       -0.361108    6.503282   -0.533635
     83          1           0       -0.694038    7.094792    1.087404
     84          1           0       -1.203168    7.962139   -0.443801
     85          1           0       -7.812078    4.211799   -1.353938
     86          1           0       -9.010802    2.936156    0.878580
     87          1           0       -7.242926    5.986279    0.887195
     88          1           0       -8.716740    5.126257    1.318738
     89          1           0       -8.517570    5.970599   -0.253124
     90          1           0       -9.330636    1.538870   -1.749456
     91          1           0       -9.767768    3.184561   -1.893503
     92          1           0      -11.517077    1.238611   -0.953930
     93          1           0      -11.648405    3.010798   -0.985585
     94          1           0      -11.065324    2.234845    0.469907
     95          1           0       -9.517226   -1.970953   -0.481272
     96          1           0       -9.540857   -2.298569    1.207957
     97          1           0       -9.199920   -3.588064    0.134944
     98          1           0       -3.919654   -4.435535   -0.716512
     99          1           0       -2.671811   -6.859406    2.707106
    100          1           0       -1.189219   -6.182081    1.897401
    101          1           0       -2.109142   -7.687694    1.325687
    102          1           0        3.836735   -4.968978   -1.346159
    103          1           0        3.978126   -3.991769    0.079511
    104          1           0        3.717168   -2.049380   -1.943023
    105          1           0        7.011550   -2.895673    0.047062
    106          1           0        7.594180   -3.499471   -1.460503
    107          1           0        6.249358   -4.391728   -0.699634
    108          1           0        6.861464   -0.740894   -1.137148
    109          1           0        5.199877   -0.365218   -1.419611
    110          1           0        5.625494    0.106493   -3.598515
    111          1           0        6.036904   -1.511780   -3.974020
    112          1           0        7.890530   -0.833349   -4.340592
    113          1           0        8.336125   -0.297823   -2.671359
    114          1           0        6.787573    1.843497   -3.547661
    115          1           0        7.167256    0.548923   -6.051039
    116          1           0        8.226049    1.895872   -5.982143
    117          1           0        6.571810    2.151941   -5.678809
    118          1           0        8.892524    2.967253   -3.987685
    119          1           0        9.691268    1.410530   -3.518768
    120          1           0        7.819995    2.038841   -1.444237
    121          1           0        8.556119    3.528475   -1.830869
    122          1           0       10.463772    3.274874   -0.907044
    123          1           0       10.864362    1.757551   -1.667861
    124          1           0        8.700713    1.862606    0.404421
    125          1           0        8.560391   -0.131702    0.390041
    126          1           0       10.267631   -0.570592    0.633893
    127          1           0        9.663004   -0.227621   -0.966669
    128          1           0       11.115517    3.070112    1.089940
    129          1           0       11.463261    1.423390    1.430777
    130          1           0        8.924729    2.720524    2.469800
    131          1           0       10.423381    2.882381    3.390964
    132          1           0       10.253515    0.192545    2.796964
    133          1           0        8.693349    0.610653    3.410277
    134          1           0       10.261677    1.767267    5.265095
    135          1           0       11.924132   -0.260174    5.756124
    136          1           0       12.520118    1.091882    4.840685
    137          1           0       11.956756   -0.361523    4.016810
    138          1           0        8.813932   -0.850834    5.065736
    139          1           0        8.682993    0.540560    6.205300
    140          1           0        9.704985   -0.874143    6.442606
 ---------------------------------------------------------------------

 SCF Done:  E(RCAM-B3LYP) =  -3007.13727450     A.U. after   18 cycles

 Excitation energies and oscillator strengths:

 Excited State   1:      Singlet-A      1.6907 eV  733.33 nm  f=0.3882  <S**2>=0.000
     245 -> 248       -0.16628
     246 -> 247        0.68773
     245 <- 248       -0.10418
 This state for optimization and/or second-order correction.
 Total Energy, E(TD-HF/TD-DFT) =  -3007.07514213
 Copying the excited state density for this state as the 1-particle RhoCI density.

 Excited State   2:      Singlet-A      2.2819 eV  543.33 nm  f=0.1028  <S**2>=0.000
     245 -> 247        0.63145
     246 -> 248        0.30210

 Excited State   3:      Singlet-A      3.4169 eV  362.86 nm  f=0.0311  <S**2>=0.000
     242 -> 247       -0.39143
     243 -> 247        0.17846
     244 -> 247        0.52204
     246 -> 248        0.15133

 Excited State   4:      Singlet-A      3.5042 eV  353.81 nm  f=0.3629  <S**2>=0.000
     242 -> 247       -0.20854
     243 -> 247        0.10161
     244 -> 247       -0.36244
     245 -> 247       -0.20359
     246 -> 248        0.50382

 Excited State   5:      Singlet-A      3.6097 eV  343.48 nm  f=0.0412  <S**2>=0.000
     239 -> 247        0.42888
     239 -> 248        0.17438
     239 -> 249        0.29018
     239 -> 250        0.19837
     240 -> 247        0.24741
     240 -> 249        0.12410
     242 -> 247        0.13173
     246 -> 248        0.10315

 The electronic state is 1-A.
 Alpha  occ. eigenvalues --  -46.87426 -19.26372 -19.25382 -19.19668 -19.19647
 Alpha  occ. eigenvalues --  -19.19399 -19.18609 -14.42236 -14.41522 -14.39499
 Alpha  occ. eigenvalues --  -14.38926 -10.39731 -10.38702 -10.36257 -10.35886
 Alpha  occ. eigenvalues --  -10.32914 -10.32403 -10.31451 -10.31430 -10.30640
 Alpha  occ. eigenvalues --  -10.30437 -10.30014 -10.29742 -10.28906 -10.28892
 Alpha  occ. eigenvalues --  -10.28820 -10.28616 -10.28606 -10.28388 -10.28142
 Alpha  occ. eigenvalues --  -10.27880 -10.27832 -10.27595 -10.27550 -10.27317
 Alpha  occ. eigenvalues --  -10.27125 -10.26818 -10.26783 -10.26763 -10.26434
 Alpha  occ. eigenvalues --  -10.26413 -10.26359 -10.26338 -10.26319 -10.26257
 Alpha  occ. eigenvalues --  -10.26068 -10.26034 -10.26028 -10.25810 -10.25485
 Alpha  occ. eigenvalues --  -10.25423 -10.25360 -10.25298 -10.25254 -10.25137
 Alpha  occ. eigenvalues --  -10.25070 -10.25016 -10.24967 -10.24807 -10.24740
 Alpha  occ. eigenvalues --  -10.24598 -10.24568 -10.24420 -10.24401 -10.24219
 Alpha  occ. eigenvalues --  -10.24185  -3.16183  -1.91085  -1.90635  -1.90500
 Alpha  occ. eigenvalues --   -1.17078  -1.17046  -1.09806  -1.09116  -1.07557
 Alpha  occ. eigenvalues --   -1.07087  -1.04316  -1.03389  -1.03239  -1.02202
 Alpha  occ. eigenvalues --   -0.91627  -0.91187  -0.90293  -0.89756  -0.89269
 Alpha  occ. eigenvalues --   -0.89148  -0.88211  -0.88117  -0.87082  -0.86899
 Alpha  occ. eigenvalues --   -0.86365  -0.84933  -0.84474  -0.83654  -0.82905
 Alpha  occ. eigenvalues --   -0.82534  -0.82045  -0.81878  -0.81173  -0.80330
 Alpha  occ. eigenvalues --   -0.79922  -0.78131  -0.77713  -0.77538  -0.76584
 Alpha  occ. eigenvalues --   -0.76062  -0.75952  -0.75604  -0.75204  -0.74559
 Alpha  occ. eigenvalues --   -0.73800  -0.72770  -0.71627  -0.70968  -0.69145
 Alpha  occ. eigenvalues --   -0.69105  -0.68376  -0.67427  -0.66936  -0.65859
 Alpha  occ. eigenvalues --   -0.65446  -0.65151  -0.64914  -0.64398  -0.64316
 Alpha  occ. eigenvalues --   -0.63678  -0.63572  -0.62874  -0.62335  -0.60565
 Alpha  occ. eigenvalues --   -0.59848  -0.59415  -0.59160  -0.58198  -0.58134
 Alpha  occ. eigenvalues --   -0.57897  -0.57385  -0.56421  -0.56127  -0.55527
 Alpha  occ. eigenvalues --   -0.55021  -0.54921  -0.54526  -0.54270  -0.53700
 Alpha  occ. eigenvalues --   -0.53664  -0.53410  -0.53079  -0.53009  -0.52796
 Alpha  occ. eigenvalues --   -0.52523  -0.52461  -0.52286  -0.51876  -0.51751
 Alpha  occ. eigenvalues --   -0.51459  -0.51307  -0.51225  -0.51040  -0.50797
 Alpha  occ. eigenvalues --   -0.50666  -0.50518  -0.49889  -0.49798  -0.49668
 Alpha  occ. eigenvalues --   -0.49541  -0.49384  -0.49162  -0.49113  -0.48890
 Alpha  occ. eigenvalues --   -0.48745  -0.48337  -0.48246  -0.47993  -0.47862
 Alpha  occ. eigenvalues --   -0.47760  -0.47309  -0.47154  -0.46922  -0.46622
 Alpha  occ. eigenvalues --   -0.46509  -0.46443  -0.46174  -0.45996  -0.45694
 Alpha  occ. eigenvalues --   -0.45578  -0.45338  -0.45173  -0.45012  -0.44912
 Alpha  occ. eigenvalues --   -0.44743  -0.44575  -0.44376  -0.44214  -0.43924
 Alpha  occ. eigenvalues --   -0.43846  -0.43727  -0.43625  -0.43439  -0.43269
 Alpha  occ. eigenvalues --   -0.42947  -0.42704  -0.42451  -0.42310  -0.42230
 Alpha  occ. eigenvalues --   -0.42168  -0.42101  -0.41755  -0.41402  -0.41250
 Alpha  occ. eigenvalues --   -0.40947  -0.40878  -0.40674  -0.40166  -0.40006
 Alpha  occ. eigenvalues --   -0.39956  -0.39791  -0.39152  -0.39054  -0.39042
 Alpha  occ. eigenvalues --   -0.38756  -0.38499  -0.37663  -0.37566  -0.37305
 Alpha  occ. eigenvalues --   -0.36908  -0.36819  -0.36624  -0.36553  -0.36347
 Alpha  occ. eigenvalues --   -0.36269  -0.36139  -0.35225  -0.34304  -0.34052
 Alpha  occ. eigenvalues --   -0.33756  -0.33453  -0.33143  -0.31525  -0.31241
 Alpha  occ. eigenvalues --   -0.30848  -0.30367  -0.30330  -0.29715  -0.24348
 Alpha  occ. eigenvalues --   -0.21043
 Alpha virt. eigenvalues --   -0.08688  -0.01686   0.00483   0.02188   0.03362
 Alpha virt. eigenvalues --    0.04279   0.05817   0.06124   0.06534   0.06727
 Alpha virt. eigenvalues --    0.07843   0.07994   0.08051   0.08465   0.08817

 Mulliken charges:
               1
     1  Mg   0.837655
     2  C    0.042799
     3  C   -0.068169
     4  C   -0.070315
     5  C   -0.127324
     6  N   -0.254249
     7  C   -0.003956
     8  C   -0.072388
     9  C   -0.003383
    10  C   -0.049615
    11  C    0.055897
    12  C    0.093651
    13  C    0.075563
    14  C    0.149984
    15  O   -0.233775
    16  O   -0.320692
    17  N   -0.401419
    18  C    0.217617
    19  C   -0.175022
    20  C   -0.025890
    21  C    0.138958
    22  C    0.133151
    23  C    0.027748
    24  O   -0.222223
    25  C    0.045889
    26  N   -0.333375
    27  C    0.069115
    28  C   -0.046595
    29  C    0.002113
    30  C    0.087744
    31  C    0.045740
    32  C   -0.009635
    33  C   -0.020817
    34  N   -0.329434
    35  C    0.147465
    36  C   -0.175543
    37  C   -0.028532
    38  C    0.067234
    39  C    0.116950
    40  C    0.113377
    41  O   -0.160153
    42  C   -0.069019
    43  C    0.190557
    44  O   -0.232512
    45  O   -0.309465
    46  C    0.171754
    47  C    0.253378
    48  C   -0.097746
    49  C   -0.185414
    50  C    0.105357
    51  C    0.069202
    52  C    0.051790
    53  C    0.077067
    54  C   -0.141677
    55  C    0.048690
    56  C    0.065896
    57  C   -0.021352
    58  C    0.062338
    59  C   -0.153335
    60  C    0.041533
    61  C    0.053750
    62  C    0.029238
    63  C    0.048346
    64  C   -0.120298
    65  C    0.027316
    66  C    0.026919
    67  H   -0.036210
    68  H   -0.008332
    69  H   -0.024548
    70  H    0.005449
    71  H    0.005785
    72  H    0.019510
    73  H    0.010604
    74  H    0.030892
    75  H    0.002206
    76  H    0.020085
    77  H    0.018284
    78  H    0.002597
    79  H    0.037602
    80  H    0.025273
    81  H   -0.012895
    82  H    0.027616
    83  H    0.058826
    84  H    0.033842
    85  H    0.024600
    86  H    0.008754
    87  H    0.037203
    88  H    0.017889
    89  H    0.014258
    90  H    0.017494
    91  H    0.007074
    92  H    0.025529
    93  H    0.015504
    94  H    0.015905
    95  H    0.011897
    96  H    0.019635
    97  H    0.024989
    98  H    0.036786
    99  H    0.049553
   100  H    0.046331
   101  H    0.045254
   102  H    0.041908
   103  H    0.023560
   104  H   -0.006814
   105  H    0.020689
   106  H    0.024384
   107  H    0.009510
   108  H   -0.022431
   109  H   -0.000445
   110  H   -0.008701
   111  H    0.006392
   112  H   -0.010886
   113  H   -0.011281
   114  H   -0.011653
   115  H    0.001573
   116  H   -0.001090
   117  H    0.000690
   118  H   -0.010197
   119  H   -0.006384
   120  H    0.007347
   121  H   -0.004492
   122  H   -0.009060
   123  H    0.004494
   124  H   -0.009484
   125  H    0.019986
   126  H    0.015658
   127  H    0.006055
   128  H   -0.011147
   129  H   -0.011576
   130  H   -0.005193
   131  H   -0.011361
   132  H   -0.014859
   133  H   -0.014165
   134  H   -0.003088
   135  H   -0.000366
   136  H    0.012451
   137  H   -0.000183
   138  H    0.002069
   139  H    0.015502
   140  H    0.008880
 Sum of Mulliken charges =  -0.00000

 Dipole moment (field-independent basis, Debye):
    X=              4.1888    Y=              3.3353    Z=              0.1112  Tot=              5.3556
 Quadrupole moment (field-independent basis, Debye-Ang):
   XX=           -381.1070   YY=           -418.1438   ZZ=           -419.9146
   XY=            -25.6581   XZ=             19.1012   YZ=             -7.8609

 Normal termination of Gaussian 16 at Wed May  4 09:57:59 2022.
