 Gaussian 16, Revision A.03,
 Gaussian 16:  ES64L-G16RevA.03 25-Dec-2016

 ---------------------------------
 #p PBE1PBE/Def2SVP td=(nstates=5)
 ---------------------------------

 ------------------------------------------------------
 step_1601_chromophore_27 TDDFT with PBE1PBE functional
 ------------------------------------------------------
 Symbolic Z-matrix:
 Charge =  0 Multiplicity = 1

                         Standard orientation:
 ---------------------------------------------------------------------
 Center     Atomic      Atomic             Coordinates (Angstroms)
 Number     Number       Type             X           Y           Z
 ---------------------------------------------------------------------
      1         12           0       -4.530730    0.892773    0.123756
      2          6           0       -4.001405   -2.559079    0.280346
      3          6           0       -1.110341    1.322463    0.464623
      4          6           0       -5.039055    4.189930    0.086551
      5          6           0       -7.993955    0.318121    0.340707
      6          7           0       -2.702202   -0.474612    0.252251
      7          6           0       -2.783236   -1.827624    0.098452
      8          6           0       -1.322296   -2.361610   -0.001845
      9          6           0       -0.441408   -1.139549    0.498034
     10          6           0       -1.472570    0.045300    0.375882
     11          6           0        0.160432   -1.247569    2.015706
     12          6           0       -1.014359   -2.812741   -1.521123
     13          6           0       -0.077806   -3.940513   -1.600032
     14          6           0        1.401362   -4.024508   -1.917274
     15          8           0        1.864027   -4.335684   -3.018132
     16          8           0        2.125496   -3.729266   -0.814111
     17          7           0       -3.274219    2.497388    0.271316
     18          6           0       -1.926092    2.473324    0.388927
     19          6           0       -1.401057    3.772300    0.460541
     20          6           0       -2.476846    4.669735    0.252849
     21          6           0       -3.690294    3.843915    0.153158
     22          6           0        0.100221    4.134906    0.596977
     23          6           0       -2.406744    6.233174    0.130846
     24          8           0       -3.477778    6.844021   -0.064997
     25          6           0       -1.103789    7.010699    0.080947
     26          7           0       -6.180206    2.048828    0.080634
     27          6           0       -6.190288    3.368715    0.029861
     28          6           0       -7.609985    4.020163   -0.299808
     29          6           0       -8.484769    2.736473   -0.055252
     30          6           0       -7.535720    1.598254    0.197085
     31          6           0       -8.033909    5.345826    0.497407
     32          6           0       -9.584586    2.410515   -1.146769
     33          6           0      -11.061037    2.170113   -0.617635
     34          7           0       -5.815274   -0.735245    0.337119
     35          6           0       -7.161606   -0.790487    0.356493
     36          6           0       -7.574619   -2.146617    0.314381
     37          6           0       -6.416883   -2.925087    0.281725
     38          6           0       -5.317505   -1.987044    0.287098
     39          6           0       -8.992503   -2.529781    0.294043
     40          6           0       -5.854435   -4.338045    0.229353
     41          8           0       -6.331378   -5.463826    0.166939
     42          6           0       -4.271955   -4.079693    0.251999
     43          6           0       -3.708875   -4.884797    1.377553
     44          8           0       -3.824062   -4.589396    2.564204
     45          8           0       -2.974180   -5.861075    0.873352
     46          6           0       -2.143494   -6.692569    1.769005
     47          6           0        3.573145   -3.995009   -0.932781
     48          6           0        4.400923   -2.811264   -1.568390
     49          6           0        5.643811   -2.514524   -1.410835
     50          6           0        6.688911   -3.407585   -0.859838
     51          6           0        6.013992   -0.999413   -1.772652
     52          6           0        6.259815   -0.714533   -3.265118
     53          6           0        7.630654   -0.195795   -3.496131
     54          6           0        7.609237    1.258108   -3.961685
     55          6           0        7.375994    1.446399   -5.468732
     56          6           0        8.795398    2.026562   -3.445468
     57          6           0        8.708408    2.452460   -1.922333
     58          6           0       10.068102    2.287195   -1.145019
     59          6           0        9.736182    1.600919    0.185738
     60          6           0        9.585623    0.072465    0.077944
     61          6           0       10.633356    2.122100    1.325063
     62          6           0        9.884074    2.248905    2.685404
     63          6           0        9.742796    0.905973    3.443219
     64          6           0       10.235463    0.769640    4.828954
     65          6           0       11.754280    0.316053    4.847145
     66          6           0        9.357012   -0.153156    5.702915
     67          1           0       -0.018885    1.331245    0.485368
     68          1           0       -5.276005    5.256372    0.080558
     69          1           0       -9.078994    0.210833    0.278340
     70          1           0       -1.268664   -3.296859    0.555615
     71          1           0        0.335795   -0.852854   -0.210635
     72          1           0       -0.102599   -0.358845    2.588681
     73          1           0        1.250330   -1.225586    2.029572
     74          1           0       -0.097380   -2.156313    2.560274
     75          1           0       -0.575552   -1.920874   -1.969296
     76          1           0       -1.932365   -2.983313   -2.082362
     77          1           0       -0.594279   -4.671304   -2.223048
     78          1           0       -0.082463   -4.516383   -0.674669
     79          1           0        0.670556    4.092861   -0.331064
     80          1           0        0.567604    3.531337    1.373860
     81          1           0        0.110486    5.180827    0.904373
     82          1           0       -0.361108    6.503282   -0.533635
     83          1           0       -0.694038    7.094792    1.087404
     84          1           0       -1.203168    7.962139   -0.443801
     85          1           0       -7.812078    4.211799   -1.353938
     86          1           0       -9.010802    2.936156    0.878580
     87          1           0       -7.242926    5.986279    0.887195
     88          1           0       -8.716740    5.126257    1.318738
     89          1           0       -8.517570    5.970599   -0.253124
     90          1           0       -9.330636    1.538870   -1.749456
     91          1           0       -9.767768    3.184561   -1.893503
     92          1           0      -11.517077    1.238611   -0.953930
     93          1           0      -11.648405    3.010798   -0.985585
     94          1           0      -11.065324    2.234845    0.469907
     95          1           0       -9.517226   -1.970953   -0.481272
     96          1           0       -9.540857   -2.298569    1.207957
     97          1           0       -9.199920   -3.588064    0.134944
     98          1           0       -3.919654   -4.435535   -0.716512
     99          1           0       -2.671811   -6.859406    2.707106
    100          1           0       -1.189219   -6.182081    1.897401
    101          1           0       -2.109142   -7.687694    1.325687
    102          1           0        3.836735   -4.968978   -1.346159
    103          1           0        3.978126   -3.991769    0.079511
    104          1           0        3.717168   -2.049380   -1.943023
    105          1           0        7.011550   -2.895673    0.047062
    106          1           0        7.594180   -3.499471   -1.460503
    107          1           0        6.249358   -4.391728   -0.699634
    108          1           0        6.861464   -0.740894   -1.137148
    109          1           0        5.199877   -0.365218   -1.419611
    110          1           0        5.625494    0.106493   -3.598515
    111          1           0        6.036904   -1.511780   -3.974020
    112          1           0        7.890530   -0.833349   -4.340592
    113          1           0        8.336125   -0.297823   -2.671359
    114          1           0        6.787573    1.843497   -3.547661
    115          1           0        7.167256    0.548923   -6.051039
    116          1           0        8.226049    1.895872   -5.982143
    117          1           0        6.571810    2.151941   -5.678809
    118          1           0        8.892524    2.967253   -3.987685
    119          1           0        9.691268    1.410530   -3.518768
    120          1           0        7.819995    2.038841   -1.444237
    121          1           0        8.556119    3.528475   -1.830869
    122          1           0       10.463772    3.274874   -0.907044
    123          1           0       10.864362    1.757551   -1.667861
    124          1           0        8.700713    1.862606    0.404421
    125          1           0        8.560391   -0.131702    0.390041
    126          1           0       10.267631   -0.570592    0.633893
    127          1           0        9.663004   -0.227621   -0.966669
    128          1           0       11.115517    3.070112    1.089940
    129          1           0       11.463261    1.423390    1.430777
    130          1           0        8.924729    2.720524    2.469800
    131          1           0       10.423381    2.882381    3.390964
    132          1           0       10.253515    0.192545    2.796964
    133          1           0        8.693349    0.610653    3.410277
    134          1           0       10.261677    1.767267    5.265095
    135          1           0       11.924132   -0.260174    5.756124
    136          1           0       12.520118    1.091882    4.840685
    137          1           0       11.956756   -0.361523    4.016810
    138          1           0        8.813932   -0.850834    5.065736
    139          1           0        8.682993    0.540560    6.205300
    140          1           0        9.704985   -0.874143    6.442606
 ---------------------------------------------------------------------

 SCF Done:  E(RPBE1PBE) =  -3005.32390460     A.U. after   15 cycles

 Excitation energies and oscillator strengths:

 Excited State   1:      Singlet-A      1.8419 eV  673.14 nm  f=0.3776  <S**2>=0.000
     245 -> 248        0.15872
     246 -> 247        0.69528
     246 <- 247       -0.11366
 This state for optimization and/or second-order correction.
 Total Energy, E(TD-HF/TD-DFT) =  -3005.25621728
 Copying the excited state density for this state as the 1-particle RhoCI density.

 Excited State   2:      Singlet-A      2.2850 eV  542.60 nm  f=0.0982  <S**2>=0.000
     245 -> 247        0.64128
     246 -> 248       -0.28107

 Excited State   3:      Singlet-A      3.0910 eV  401.12 nm  f=0.0007  <S**2>=0.000
     241 -> 247        0.10885
     242 -> 247       -0.11829
     244 -> 247        0.67674

 Excited State   4:      Singlet-A      3.1363 eV  395.32 nm  f=0.0029  <S**2>=0.000
     240 -> 247        0.34674
     241 -> 247        0.37002
     241 -> 249        0.11799
     242 -> 247        0.44360

 Excited State   5:      Singlet-A      3.1416 eV  394.66 nm  f=0.0002  <S**2>=0.000
     240 -> 247        0.54907
     240 -> 248       -0.10437
     240 -> 249       -0.14441
     241 -> 247       -0.34434
     242 -> 247       -0.15711

 The electronic state is 1-A.
 Alpha  occ. eigenvalues --  -46.90835 -19.27077 -19.26077 -19.20005 -19.19987
 Alpha  occ. eigenvalues --  -19.19475 -19.18926 -14.41746 -14.41064 -14.39111
 Alpha  occ. eigenvalues --  -14.38662 -10.36786 -10.35762 -10.33296 -10.33196
 Alpha  occ. eigenvalues --  -10.30339 -10.29652 -10.29323 -10.29019 -10.28340
 Alpha  occ. eigenvalues --  -10.28172 -10.27606 -10.27205 -10.26807 -10.26725
 Alpha  occ. eigenvalues --  -10.26714 -10.26477 -10.26436 -10.26308 -10.25614
 Alpha  occ. eigenvalues --  -10.25605 -10.25445 -10.25379 -10.25238 -10.24653
 Alpha  occ. eigenvalues --  -10.24608 -10.24556 -10.24312 -10.24276 -10.24005
 Alpha  occ. eigenvalues --  -10.23949 -10.23902 -10.23840 -10.23837 -10.23766
 Alpha  occ. eigenvalues --  -10.23673 -10.23651 -10.23604 -10.23432 -10.23318
 Alpha  occ. eigenvalues --  -10.23128 -10.22916 -10.22881 -10.22820 -10.22772
 Alpha  occ. eigenvalues --  -10.22604 -10.22596 -10.22376 -10.22370 -10.22150
 Alpha  occ. eigenvalues --  -10.22135 -10.22083 -10.21810 -10.21787 -10.21736
 Alpha  occ. eigenvalues --  -10.21723  -3.13165  -1.86011  -1.85538  -1.85406
 Alpha  occ. eigenvalues --   -1.11935  -1.11895  -1.04678  -1.03694  -1.02444
 Alpha  occ. eigenvalues --   -1.01960  -0.99067  -0.98027  -0.97859  -0.96806
 Alpha  occ. eigenvalues --   -0.86040  -0.85293  -0.84401  -0.83924  -0.83499
 Alpha  occ. eigenvalues --   -0.83436  -0.82450  -0.82323  -0.81410  -0.81197
 Alpha  occ. eigenvalues --   -0.80656  -0.79151  -0.78696  -0.77980  -0.77142
 Alpha  occ. eigenvalues --   -0.76679  -0.76332  -0.75987  -0.75433  -0.74683
 Alpha  occ. eigenvalues --   -0.74065  -0.72416  -0.72008  -0.71821  -0.70799
 Alpha  occ. eigenvalues --   -0.70408  -0.70046  -0.69675  -0.69544  -0.68728
 Alpha  occ. eigenvalues --   -0.68109  -0.67256  -0.66056  -0.65302  -0.63490
 Alpha  occ. eigenvalues --   -0.63347  -0.62887  -0.61826  -0.61153  -0.60403
 Alpha  occ. eigenvalues --   -0.59653  -0.59607  -0.59419  -0.58989  -0.58443
 Alpha  occ. eigenvalues --   -0.58127  -0.57790  -0.57058  -0.56971  -0.55049
 Alpha  occ. eigenvalues --   -0.54185  -0.54035  -0.53778  -0.52817  -0.52704
 Alpha  occ. eigenvalues --   -0.52360  -0.51903  -0.50858  -0.50672  -0.50156
 Alpha  occ. eigenvalues --   -0.49637  -0.49491  -0.49012  -0.48715  -0.48364
 Alpha  occ. eigenvalues --   -0.48125  -0.47959  -0.47756  -0.47445  -0.47235
 Alpha  occ. eigenvalues --   -0.46991  -0.46894  -0.46781  -0.46438  -0.46262
 Alpha  occ. eigenvalues --   -0.46015  -0.45980  -0.45816  -0.45622  -0.45258
 Alpha  occ. eigenvalues --   -0.45236  -0.45046  -0.44543  -0.44389  -0.44348
 Alpha  occ. eigenvalues --   -0.44099  -0.43927  -0.43751  -0.43688  -0.43469
 Alpha  occ. eigenvalues --   -0.43270  -0.42959  -0.42891  -0.42640  -0.42450
 Alpha  occ. eigenvalues --   -0.42358  -0.41862  -0.41722  -0.41629  -0.41294
 Alpha  occ. eigenvalues --   -0.41185  -0.41118  -0.40801  -0.40684  -0.40428
 Alpha  occ. eigenvalues --   -0.40185  -0.40053  -0.39899  -0.39748  -0.39715
 Alpha  occ. eigenvalues --   -0.39535  -0.39445  -0.39009  -0.38994  -0.38714
 Alpha  occ. eigenvalues --   -0.38557  -0.38506  -0.38456  -0.38248  -0.38096
 Alpha  occ. eigenvalues --   -0.37730  -0.37580  -0.37176  -0.37151  -0.36939
 Alpha  occ. eigenvalues --   -0.36906  -0.36815  -0.36618  -0.36273  -0.36121
 Alpha  occ. eigenvalues --   -0.35824  -0.35626  -0.35541  -0.35146  -0.34861
 Alpha  occ. eigenvalues --   -0.34818  -0.34677  -0.34126  -0.33924  -0.33803
 Alpha  occ. eigenvalues --   -0.33679  -0.33341  -0.32597  -0.32480  -0.32137
 Alpha  occ. eigenvalues --   -0.31888  -0.31731  -0.31594  -0.31492  -0.31414
 Alpha  occ. eigenvalues --   -0.31075  -0.30946  -0.30199  -0.29276  -0.29200
 Alpha  occ. eigenvalues --   -0.29043  -0.28466  -0.28217  -0.26911  -0.26081
 Alpha  occ. eigenvalues --   -0.25954  -0.25854  -0.25520  -0.25450  -0.21252
 Alpha  occ. eigenvalues --   -0.18694
 Alpha virt. eigenvalues --   -0.11178  -0.05252  -0.03786  -0.02237  -0.00230
 Alpha virt. eigenvalues --    0.00503   0.01307   0.01903   0.02238   0.02845
 Alpha virt. eigenvalues --    0.04041   0.04058   0.04718   0.05136   0.05507

 Mulliken charges:
               1
     1  Mg   0.991685
     2  C    0.044572
     3  C   -0.051630
     4  C   -0.067247
     5  C   -0.110890
     6  N   -0.358060
     7  C    0.069010
     8  C   -0.154688
     9  C   -0.076092
    10  C   -0.009390
    11  C    0.000052
    12  C    0.047000
    13  C    0.000464
    14  C    0.217839
    15  O   -0.266735
    16  O   -0.350820
    17  N   -0.519027
    18  C    0.233194
    19  C   -0.194897
    20  C   -0.078897
    21  C    0.167110
    22  C    0.067912
    23  C    0.081156
    24  O   -0.258144
    25  C   -0.031550
    26  N   -0.445019
    27  C    0.103670
    28  C   -0.118083
    29  C   -0.069464
    30  C    0.118091
    31  C   -0.011654
    32  C   -0.071788
    33  C   -0.092651
    34  N   -0.461450
    35  C    0.170847
    36  C   -0.202830
    37  C   -0.067993
    38  C    0.109294
    39  C    0.064896
    40  C    0.205157
    41  O   -0.205337
    42  C   -0.172979
    43  C    0.282409
    44  O   -0.267712
    45  O   -0.344281
    46  C    0.117839
    47  C    0.208847
    48  C   -0.097320
    49  C   -0.233075
    50  C    0.037656
    51  C   -0.002831
    52  C   -0.004618
    53  C    0.009599
    54  C   -0.231778
    55  C   -0.005364
    56  C    0.007422
    57  C   -0.081379
    58  C    0.007106
    59  C   -0.235003
    60  C   -0.019310
    61  C   -0.007388
    62  C   -0.035455
    63  C   -0.004849
    64  C   -0.217431
    65  C   -0.029922
    66  C   -0.032965
    67  H   -0.004509
    68  H    0.024818
    69  H    0.009303
    70  H    0.048799
    71  H    0.041427
    72  H    0.046907
    73  H    0.037798
    74  H    0.056649
    75  H    0.036423
    76  H    0.051396
    77  H    0.050980
    78  H    0.034797
    79  H    0.064203
    80  H    0.052127
    81  H    0.018942
    82  H    0.055523
    83  H    0.084421
    84  H    0.060915
    85  H    0.061646
    86  H    0.048506
    87  H    0.062885
    88  H    0.044043
    89  H    0.041530
    90  H    0.050505
    91  H    0.039753
    92  H    0.052099
    93  H    0.043826
    94  H    0.042820
    95  H    0.039863
    96  H    0.048567
    97  H    0.053704
    98  H    0.075756
    99  H    0.070141
   100  H    0.067287
   101  H    0.066536
   102  H    0.067887
   103  H    0.051297
   104  H    0.022353
   105  H    0.048782
   106  H    0.052380
   107  H    0.036990
   108  H    0.017326
   109  H    0.031612
   110  H    0.025115
   111  H    0.037117
   112  H    0.023656
   113  H    0.029980
   114  H    0.027509
   115  H    0.028232
   116  H    0.026115
   117  H    0.028024
   118  H    0.023348
   119  H    0.026892
   120  H    0.037939
   121  H    0.029725
   122  H    0.023998
   123  H    0.035372
   124  H    0.029933
   125  H    0.046675
   126  H    0.041607
   127  H    0.035862
   128  H    0.020775
   129  H    0.023099
   130  H    0.027926
   131  H    0.022282
   132  H    0.020975
   133  H    0.018952
   134  H    0.034663
   135  H    0.027423
   136  H    0.039334
   137  H    0.026284
   138  H    0.028907
   139  H    0.043463
   140  H    0.034977
 Sum of Mulliken charges =  -0.00000

 Dipole moment (field-independent basis, Debye):
    X=              3.8956    Y=              3.0590    Z=              0.0802  Tot=              4.9538
 Quadrupole moment (field-independent basis, Debye-Ang):
   XX=           -373.3498   YY=           -416.0226   ZZ=           -417.5263
   XY=            -25.3209   XZ=             19.4156   YZ=             -8.2309

 Normal termination of Gaussian 16 at Wed May  4 10:15:58 2022.
