 Gaussian 16, Revision A.03,
 Gaussian 16:  ES64L-G16RevA.03 25-Dec-2016

 --------------------------------
 #p wB97XD/Def2SVP td=(nstates=5)
 --------------------------------

 -----------------------------------------------------
 step_1601_chromophore_27 TDDFT with wB97XD functional
 -----------------------------------------------------
 Symbolic Z-matrix:
 Charge =  0 Multiplicity = 1

                         Standard orientation:
 ---------------------------------------------------------------------
 Center     Atomic      Atomic             Coordinates (Angstroms)
 Number     Number       Type             X           Y           Z
 ---------------------------------------------------------------------
      1         12           0       -4.530730    0.892773    0.123756
      2          6           0       -4.001405   -2.559079    0.280346
      3          6           0       -1.110341    1.322463    0.464623
      4          6           0       -5.039055    4.189930    0.086551
      5          6           0       -7.993955    0.318121    0.340707
      6          7           0       -2.702202   -0.474612    0.252251
      7          6           0       -2.783236   -1.827624    0.098452
      8          6           0       -1.322296   -2.361610   -0.001845
      9          6           0       -0.441408   -1.139549    0.498034
     10          6           0       -1.472570    0.045300    0.375882
     11          6           0        0.160432   -1.247569    2.015706
     12          6           0       -1.014359   -2.812741   -1.521123
     13          6           0       -0.077806   -3.940513   -1.600032
     14          6           0        1.401362   -4.024508   -1.917274
     15          8           0        1.864027   -4.335684   -3.018132
     16          8           0        2.125496   -3.729266   -0.814111
     17          7           0       -3.274219    2.497388    0.271316
     18          6           0       -1.926092    2.473324    0.388927
     19          6           0       -1.401057    3.772300    0.460541
     20          6           0       -2.476846    4.669735    0.252849
     21          6           0       -3.690294    3.843915    0.153158
     22          6           0        0.100221    4.134906    0.596977
     23          6           0       -2.406744    6.233174    0.130846
     24          8           0       -3.477778    6.844021   -0.064997
     25          6           0       -1.103789    7.010699    0.080947
     26          7           0       -6.180206    2.048828    0.080634
     27          6           0       -6.190288    3.368715    0.029861
     28          6           0       -7.609985    4.020163   -0.299808
     29          6           0       -8.484769    2.736473   -0.055252
     30          6           0       -7.535720    1.598254    0.197085
     31          6           0       -8.033909    5.345826    0.497407
     32          6           0       -9.584586    2.410515   -1.146769
     33          6           0      -11.061037    2.170113   -0.617635
     34          7           0       -5.815274   -0.735245    0.337119
     35          6           0       -7.161606   -0.790487    0.356493
     36          6           0       -7.574619   -2.146617    0.314381
     37          6           0       -6.416883   -2.925087    0.281725
     38          6           0       -5.317505   -1.987044    0.287098
     39          6           0       -8.992503   -2.529781    0.294043
     40          6           0       -5.854435   -4.338045    0.229353
     41          8           0       -6.331378   -5.463826    0.166939
     42          6           0       -4.271955   -4.079693    0.251999
     43          6           0       -3.708875   -4.884797    1.377553
     44          8           0       -3.824062   -4.589396    2.564204
     45          8           0       -2.974180   -5.861075    0.873352
     46          6           0       -2.143494   -6.692569    1.769005
     47          6           0        3.573145   -3.995009   -0.932781
     48          6           0        4.400923   -2.811264   -1.568390
     49          6           0        5.643811   -2.514524   -1.410835
     50          6           0        6.688911   -3.407585   -0.859838
     51          6           0        6.013992   -0.999413   -1.772652
     52          6           0        6.259815   -0.714533   -3.265118
     53          6           0        7.630654   -0.195795   -3.496131
     54          6           0        7.609237    1.258108   -3.961685
     55          6           0        7.375994    1.446399   -5.468732
     56          6           0        8.795398    2.026562   -3.445468
     57          6           0        8.708408    2.452460   -1.922333
     58          6           0       10.068102    2.287195   -1.145019
     59          6           0        9.736182    1.600919    0.185738
     60          6           0        9.585623    0.072465    0.077944
     61          6           0       10.633356    2.122100    1.325063
     62          6           0        9.884074    2.248905    2.685404
     63          6           0        9.742796    0.905973    3.443219
     64          6           0       10.235463    0.769640    4.828954
     65          6           0       11.754280    0.316053    4.847145
     66          6           0        9.357012   -0.153156    5.702915
     67          1           0       -0.018885    1.331245    0.485368
     68          1           0       -5.276005    5.256372    0.080558
     69          1           0       -9.078994    0.210833    0.278340
     70          1           0       -1.268664   -3.296859    0.555615
     71          1           0        0.335795   -0.852854   -0.210635
     72          1           0       -0.102599   -0.358845    2.588681
     73          1           0        1.250330   -1.225586    2.029572
     74          1           0       -0.097380   -2.156313    2.560274
     75          1           0       -0.575552   -1.920874   -1.969296
     76          1           0       -1.932365   -2.983313   -2.082362
     77          1           0       -0.594279   -4.671304   -2.223048
     78          1           0       -0.082463   -4.516383   -0.674669
     79          1           0        0.670556    4.092861   -0.331064
     80          1           0        0.567604    3.531337    1.373860
     81          1           0        0.110486    5.180827    0.904373
     82          1           0       -0.361108    6.503282   -0.533635
     83          1           0       -0.694038    7.094792    1.087404
     84          1           0       -1.203168    7.962139   -0.443801
     85          1           0       -7.812078    4.211799   -1.353938
     86          1           0       -9.010802    2.936156    0.878580
     87          1           0       -7.242926    5.986279    0.887195
     88          1           0       -8.716740    5.126257    1.318738
     89          1           0       -8.517570    5.970599   -0.253124
     90          1           0       -9.330636    1.538870   -1.749456
     91          1           0       -9.767768    3.184561   -1.893503
     92          1           0      -11.517077    1.238611   -0.953930
     93          1           0      -11.648405    3.010798   -0.985585
     94          1           0      -11.065324    2.234845    0.469907
     95          1           0       -9.517226   -1.970953   -0.481272
     96          1           0       -9.540857   -2.298569    1.207957
     97          1           0       -9.199920   -3.588064    0.134944
     98          1           0       -3.919654   -4.435535   -0.716512
     99          1           0       -2.671811   -6.859406    2.707106
    100          1           0       -1.189219   -6.182081    1.897401
    101          1           0       -2.109142   -7.687694    1.325687
    102          1           0        3.836735   -4.968978   -1.346159
    103          1           0        3.978126   -3.991769    0.079511
    104          1           0        3.717168   -2.049380   -1.943023
    105          1           0        7.011550   -2.895673    0.047062
    106          1           0        7.594180   -3.499471   -1.460503
    107          1           0        6.249358   -4.391728   -0.699634
    108          1           0        6.861464   -0.740894   -1.137148
    109          1           0        5.199877   -0.365218   -1.419611
    110          1           0        5.625494    0.106493   -3.598515
    111          1           0        6.036904   -1.511780   -3.974020
    112          1           0        7.890530   -0.833349   -4.340592
    113          1           0        8.336125   -0.297823   -2.671359
    114          1           0        6.787573    1.843497   -3.547661
    115          1           0        7.167256    0.548923   -6.051039
    116          1           0        8.226049    1.895872   -5.982143
    117          1           0        6.571810    2.151941   -5.678809
    118          1           0        8.892524    2.967253   -3.987685
    119          1           0        9.691268    1.410530   -3.518768
    120          1           0        7.819995    2.038841   -1.444237
    121          1           0        8.556119    3.528475   -1.830869
    122          1           0       10.463772    3.274874   -0.907044
    123          1           0       10.864362    1.757551   -1.667861
    124          1           0        8.700713    1.862606    0.404421
    125          1           0        8.560391   -0.131702    0.390041
    126          1           0       10.267631   -0.570592    0.633893
    127          1           0        9.663004   -0.227621   -0.966669
    128          1           0       11.115517    3.070112    1.089940
    129          1           0       11.463261    1.423390    1.430777
    130          1           0        8.924729    2.720524    2.469800
    131          1           0       10.423381    2.882381    3.390964
    132          1           0       10.253515    0.192545    2.796964
    133          1           0        8.693349    0.610653    3.410277
    134          1           0       10.261677    1.767267    5.265095
    135          1           0       11.924132   -0.260174    5.756124
    136          1           0       12.520118    1.091882    4.840685
    137          1           0       11.956756   -0.361523    4.016810
    138          1           0        8.813932   -0.850834    5.065736
    139          1           0        8.682993    0.540560    6.205300
    140          1           0        9.704985   -0.874143    6.442606
 ---------------------------------------------------------------------

 SCF Done:  E(RwB97XD) =  -3007.83501372     A.U. after   19 cycles

 Excitation energies and oscillator strengths:

 Excited State   1:      Singlet-A      1.6368 eV  757.47 nm  f=0.3873  <S**2>=0.000
     245 -> 248        0.17105
     246 -> 247        0.68565
     245 <- 248        0.11286
 This state for optimization and/or second-order correction.
 Total Energy, E(TD-HF/TD-DFT) =  -3007.77486143
 Copying the excited state density for this state as the 1-particle RhoCI density.

 Excited State   2:      Singlet-A      2.2278 eV  556.54 nm  f=0.1010  <S**2>=0.000
     245 -> 247        0.63035
     246 -> 248       -0.30274

 Excited State   3:      Singlet-A      3.4293 eV  361.55 nm  f=0.0484  <S**2>=0.000
     242 -> 247        0.47962
     244 -> 247       -0.45117
     246 -> 248        0.19232

 Excited State   4:      Singlet-A      3.5247 eV  351.76 nm  f=0.3733  <S**2>=0.000
     242 -> 247        0.15044
     244 -> 247        0.40730
     245 -> 247        0.20368
     246 -> 248        0.49642

 Excited State   5:      Singlet-A      3.6241 eV  342.11 nm  f=0.0162  <S**2>=0.000
     239 -> 247        0.26592
     239 -> 248       -0.12002
     239 -> 249       -0.20973
     239 -> 250       -0.14117
     240 -> 247        0.42061
     240 -> 248       -0.15492
     240 -> 249       -0.27620
     240 -> 250       -0.17948

 The electronic state is 1-A.
 Alpha  occ. eigenvalues --  -46.93796 -19.31621 -19.30607 -19.24690 -19.24635
 Alpha  occ. eigenvalues --  -19.24481 -19.23579 -14.46878 -14.46105 -14.44167
 Alpha  occ. eigenvalues --  -14.43496 -10.43549 -10.42546 -10.40297 -10.39924
 Alpha  occ. eigenvalues --  -10.36830 -10.36143 -10.35496 -10.35473 -10.34775
 Alpha  occ. eigenvalues --  -10.34436 -10.34041 -10.33819 -10.32973 -10.32970
 Alpha  occ. eigenvalues --  -10.32889 -10.32693 -10.32675 -10.32345 -10.32326
 Alpha  occ. eigenvalues --  -10.31995 -10.31925 -10.31590 -10.31540 -10.31307
 Alpha  occ. eigenvalues --  -10.31027 -10.30835 -10.30779 -10.30665 -10.30329
 Alpha  occ. eigenvalues --  -10.30308 -10.30300 -10.30289 -10.30247 -10.30220
 Alpha  occ. eigenvalues --  -10.30155 -10.29999 -10.29979 -10.29642 -10.29526
 Alpha  occ. eigenvalues --  -10.29416 -10.29253 -10.29204 -10.29177 -10.29123
 Alpha  occ. eigenvalues --  -10.28991 -10.28964 -10.28843 -10.28743 -10.28568
 Alpha  occ. eigenvalues --  -10.28539 -10.28479 -10.28250 -10.28238 -10.28133
 Alpha  occ. eigenvalues --  -10.28113  -3.19956  -1.93555  -1.93083  -1.92950
 Alpha  occ. eigenvalues --   -1.19279  -1.19257  -1.12041  -1.11374  -1.09768
 Alpha  occ. eigenvalues --   -1.09280  -1.06315  -1.05428  -1.05257  -1.04274
 Alpha  occ. eigenvalues --   -0.93572  -0.92970  -0.92076  -0.91565  -0.91092
 Alpha  occ. eigenvalues --   -0.91058  -0.90091  -0.89986  -0.89010  -0.88844
 Alpha  occ. eigenvalues --   -0.88303  -0.86795  -0.86349  -0.85588  -0.84785
 Alpha  occ. eigenvalues --   -0.84354  -0.83971  -0.83830  -0.83088  -0.82284
 Alpha  occ. eigenvalues --   -0.81745  -0.80116  -0.79610  -0.79464  -0.78450
 Alpha  occ. eigenvalues --   -0.77992  -0.77760  -0.77393  -0.77159  -0.76403
 Alpha  occ. eigenvalues --   -0.75716  -0.74750  -0.73603  -0.72897  -0.71047
 Alpha  occ. eigenvalues --   -0.70987  -0.70374  -0.69450  -0.68807  -0.67839
 Alpha  occ. eigenvalues --   -0.67307  -0.67120  -0.66912  -0.66404  -0.66130
 Alpha  occ. eigenvalues --   -0.65591  -0.65458  -0.64711  -0.64319  -0.62585
 Alpha  occ. eigenvalues --   -0.61728  -0.61423  -0.61136  -0.60184  -0.60077
 Alpha  occ. eigenvalues --   -0.59815  -0.59352  -0.58274  -0.58128  -0.57523
 Alpha  occ. eigenvalues --   -0.56981  -0.56881  -0.56442  -0.56165  -0.55653
 Alpha  occ. eigenvalues --   -0.55555  -0.55325  -0.55060  -0.54887  -0.54742
 Alpha  occ. eigenvalues --   -0.54476  -0.54333  -0.54188  -0.53851  -0.53637
 Alpha  occ. eigenvalues --   -0.53370  -0.53250  -0.53123  -0.52960  -0.52734
 Alpha  occ. eigenvalues --   -0.52569  -0.52442  -0.51853  -0.51686  -0.51605
 Alpha  occ. eigenvalues --   -0.51495  -0.51296  -0.51085  -0.51040  -0.50804
 Alpha  occ. eigenvalues --   -0.50669  -0.50224  -0.50158  -0.49918  -0.49743
 Alpha  occ. eigenvalues --   -0.49636  -0.49305  -0.48999  -0.48847  -0.48529
 Alpha  occ. eigenvalues --   -0.48384  -0.48347  -0.48044  -0.47887  -0.47617
 Alpha  occ. eigenvalues --   -0.47437  -0.47260  -0.47111  -0.46920  -0.46818
 Alpha  occ. eigenvalues --   -0.46672  -0.46569  -0.46240  -0.46148  -0.45843
 Alpha  occ. eigenvalues --   -0.45715  -0.45633  -0.45550  -0.45393  -0.45236
 Alpha  occ. eigenvalues --   -0.44887  -0.44662  -0.44334  -0.44305  -0.44193
 Alpha  occ. eigenvalues --   -0.44051  -0.43964  -0.43690  -0.43328  -0.43177
 Alpha  occ. eigenvalues --   -0.42896  -0.42731  -0.42577  -0.42079  -0.41889
 Alpha  occ. eigenvalues --   -0.41875  -0.41675  -0.41064  -0.40963  -0.40891
 Alpha  occ. eigenvalues --   -0.40641  -0.40390  -0.39530  -0.39523  -0.39196
 Alpha  occ. eigenvalues --   -0.38904  -0.38751  -0.38626  -0.38506  -0.38271
 Alpha  occ. eigenvalues --   -0.38114  -0.38003  -0.37118  -0.36154  -0.36035
 Alpha  occ. eigenvalues --   -0.35828  -0.35476  -0.35186  -0.33580  -0.33377
 Alpha  occ. eigenvalues --   -0.32841  -0.32580  -0.32332  -0.31862  -0.26287
 Alpha  occ. eigenvalues --   -0.22868
 Alpha virt. eigenvalues --   -0.07045   0.00233   0.02514   0.04286   0.06382
 Alpha virt. eigenvalues --    0.06635   0.08133   0.08467   0.08936   0.09345
 Alpha virt. eigenvalues --    0.10430   0.10906   0.11415   0.11971   0.12267

 Mulliken charges:
               1
     1  Mg   0.979775
     2  C    0.034623
     3  C   -0.077297
     4  C   -0.079455
     5  C   -0.127677
     6  N   -0.322538
     7  C    0.034740
     8  C   -0.119405
     9  C   -0.052040
    10  C   -0.021719
    11  C    0.010578
    12  C    0.055649
    13  C    0.016081
    14  C    0.207043
    15  O   -0.264293
    16  O   -0.350331
    17  N   -0.486789
    18  C    0.231380
    19  C   -0.189461
    20  C   -0.068970
    21  C    0.161669
    22  C    0.084510
    23  C    0.073525
    24  O   -0.251818
    25  C   -0.017675
    26  N   -0.412863
    27  C    0.092131
    28  C   -0.094934
    29  C   -0.043325
    30  C    0.109341
    31  C   -0.000991
    32  C   -0.057258
    33  C   -0.076115
    34  N   -0.419556
    35  C    0.159893
    36  C   -0.192865
    37  C   -0.069236
    38  C    0.095867
    39  C    0.071952
    40  C    0.187770
    41  O   -0.197399
    42  C   -0.132670
    43  C    0.256799
    44  O   -0.262123
    45  O   -0.342073
    46  C    0.133067
    47  C    0.225555
    48  C   -0.113082
    49  C   -0.217692
    50  C    0.053314
    51  C    0.031216
    52  C    0.007060
    53  C    0.037307
    54  C   -0.197046
    55  C    0.000934
    56  C    0.026662
    57  C   -0.064897
    58  C    0.020933
    59  C   -0.201835
    60  C   -0.009854
    61  C    0.014627
    62  C   -0.019826
    63  C    0.016227
    64  C   -0.186938
    65  C   -0.017742
    66  C   -0.021653
    67  H   -0.010163
    68  H    0.016992
    69  H   -0.000403
    70  H    0.029470
    71  H    0.031341
    72  H    0.039851
    73  H    0.032470
    74  H    0.052579
    75  H    0.026734
    76  H    0.045311
    77  H    0.046339
    78  H    0.027047
    79  H    0.061342
    80  H    0.048698
    81  H    0.010480
    82  H    0.048842
    83  H    0.080195
    84  H    0.060603
    85  H    0.051348
    86  H    0.032724
    87  H    0.057824
    88  H    0.039188
    89  H    0.036163
    90  H    0.041237
    91  H    0.031537
    92  H    0.047104
    93  H    0.037981
    94  H    0.035751
    95  H    0.032638
    96  H    0.042889
    97  H    0.050212
    98  H    0.067543
    99  H    0.066441
   100  H    0.063669
   101  H    0.063208
   102  H    0.064021
   103  H    0.045534
   104  H    0.018193
   105  H    0.042202
   106  H    0.047198
   107  H    0.031548
   108  H   -0.006359
   109  H    0.024492
   110  H    0.014574
   111  H    0.031024
   112  H    0.015144
   113  H    0.004721
   114  H    0.011909
   115  H    0.022906
   116  H    0.020360
   117  H    0.023189
   118  H    0.015958
   119  H    0.015090
   120  H    0.025127
   121  H    0.022270
   122  H    0.015420
   123  H    0.027125
   124  H    0.011758
   125  H    0.040602
   126  H    0.038125
   127  H    0.028530
   128  H    0.013596
   129  H    0.010784
   130  H    0.020039
   131  H    0.013262
   132  H   -0.000791
   133  H    0.009964
   134  H    0.023445
   135  H    0.020851
   136  H    0.034356
   137  H    0.019651
   138  H    0.021961
   139  H    0.037663
   140  H    0.030587
 Sum of Mulliken charges =  -0.00000

 Dipole moment (field-independent basis, Debye):
    X=              4.2968    Y=              3.4813    Z=              0.1045  Tot=              5.5311
 Quadrupole moment (field-independent basis, Debye-Ang):
   XX=           -376.6743   YY=           -413.6125   ZZ=           -417.2477
   XY=            -26.1076   XZ=             19.7127   YZ=             -8.2637

 Normal termination of Gaussian 16 at Wed May  4 10:48:18 2022.
