 Gaussian 16, Revision A.03,
 Gaussian 16:  ES64L-G16RevA.03 25-Dec-2016

 --------------------
 #p ZINDO=(nstates=5)
 --------------------

 ------------------------------
 step_1601_chromophore_27 ZINDO
 ------------------------------
 Symbolic Z-matrix:
 Charge =  0 Multiplicity = 1

                         Standard orientation:
 ---------------------------------------------------------------------
 Center     Atomic      Atomic             Coordinates (Angstroms)
 Number     Number       Type             X           Y           Z
 ---------------------------------------------------------------------
      1         12           0       -4.530730    0.892773    0.123756
      2          6           0       -4.001405   -2.559079    0.280346
      3          6           0       -1.110341    1.322463    0.464623
      4          6           0       -5.039055    4.189930    0.086551
      5          6           0       -7.993955    0.318121    0.340707
      6          7           0       -2.702202   -0.474612    0.252251
      7          6           0       -2.783236   -1.827624    0.098452
      8          6           0       -1.322296   -2.361610   -0.001845
      9          6           0       -0.441408   -1.139549    0.498034
     10          6           0       -1.472570    0.045300    0.375882
     11          6           0        0.160432   -1.247569    2.015706
     12          6           0       -1.014359   -2.812741   -1.521123
     13          6           0       -0.077806   -3.940513   -1.600032
     14          6           0        1.401362   -4.024508   -1.917274
     15          8           0        1.864027   -4.335684   -3.018132
     16          8           0        2.125496   -3.729266   -0.814111
     17          7           0       -3.274219    2.497388    0.271316
     18          6           0       -1.926092    2.473324    0.388927
     19          6           0       -1.401057    3.772300    0.460541
     20          6           0       -2.476846    4.669735    0.252849
     21          6           0       -3.690294    3.843915    0.153158
     22          6           0        0.100221    4.134906    0.596977
     23          6           0       -2.406744    6.233174    0.130846
     24          8           0       -3.477778    6.844021   -0.064997
     25          6           0       -1.103789    7.010699    0.080947
     26          7           0       -6.180206    2.048828    0.080634
     27          6           0       -6.190288    3.368715    0.029861
     28          6           0       -7.609985    4.020163   -0.299808
     29          6           0       -8.484769    2.736473   -0.055252
     30          6           0       -7.535720    1.598254    0.197085
     31          6           0       -8.033909    5.345826    0.497407
     32          6           0       -9.584586    2.410515   -1.146769
     33          6           0      -11.061037    2.170113   -0.617635
     34          7           0       -5.815274   -0.735245    0.337119
     35          6           0       -7.161606   -0.790487    0.356493
     36          6           0       -7.574619   -2.146617    0.314381
     37          6           0       -6.416883   -2.925087    0.281725
     38          6           0       -5.317505   -1.987044    0.287098
     39          6           0       -8.992503   -2.529781    0.294043
     40          6           0       -5.854435   -4.338045    0.229353
     41          8           0       -6.331378   -5.463826    0.166939
     42          6           0       -4.271955   -4.079693    0.251999
     43          6           0       -3.708875   -4.884797    1.377553
     44          8           0       -3.824062   -4.589396    2.564204
     45          8           0       -2.974180   -5.861075    0.873352
     46          6           0       -2.143494   -6.692569    1.769005
     47          6           0        3.573145   -3.995009   -0.932781
     48          6           0        4.400923   -2.811264   -1.568390
     49          6           0        5.643811   -2.514524   -1.410835
     50          6           0        6.688911   -3.407585   -0.859838
     51          6           0        6.013992   -0.999413   -1.772652
     52          6           0        6.259815   -0.714533   -3.265118
     53          6           0        7.630654   -0.195795   -3.496131
     54          6           0        7.609237    1.258108   -3.961685
     55          6           0        7.375994    1.446399   -5.468732
     56          6           0        8.795398    2.026562   -3.445468
     57          6           0        8.708408    2.452460   -1.922333
     58          6           0       10.068102    2.287195   -1.145019
     59          6           0        9.736182    1.600919    0.185738
     60          6           0        9.585623    0.072465    0.077944
     61          6           0       10.633356    2.122100    1.325063
     62          6           0        9.884074    2.248905    2.685404
     63          6           0        9.742796    0.905973    3.443219
     64          6           0       10.235463    0.769640    4.828954
     65          6           0       11.754280    0.316053    4.847145
     66          6           0        9.357012   -0.153156    5.702915
     67          1           0       -0.018885    1.331245    0.485368
     68          1           0       -5.276005    5.256372    0.080558
     69          1           0       -9.078994    0.210833    0.278340
     70          1           0       -1.268664   -3.296859    0.555615
     71          1           0        0.335795   -0.852854   -0.210635
     72          1           0       -0.102599   -0.358845    2.588681
     73          1           0        1.250330   -1.225586    2.029572
     74          1           0       -0.097380   -2.156313    2.560274
     75          1           0       -0.575552   -1.920874   -1.969296
     76          1           0       -1.932365   -2.983313   -2.082362
     77          1           0       -0.594279   -4.671304   -2.223048
     78          1           0       -0.082463   -4.516383   -0.674669
     79          1           0        0.670556    4.092861   -0.331064
     80          1           0        0.567604    3.531337    1.373860
     81          1           0        0.110486    5.180827    0.904373
     82          1           0       -0.361108    6.503282   -0.533635
     83          1           0       -0.694038    7.094792    1.087404
     84          1           0       -1.203168    7.962139   -0.443801
     85          1           0       -7.812078    4.211799   -1.353938
     86          1           0       -9.010802    2.936156    0.878580
     87          1           0       -7.242926    5.986279    0.887195
     88          1           0       -8.716740    5.126257    1.318738
     89          1           0       -8.517570    5.970599   -0.253124
     90          1           0       -9.330636    1.538870   -1.749456
     91          1           0       -9.767768    3.184561   -1.893503
     92          1           0      -11.517077    1.238611   -0.953930
     93          1           0      -11.648405    3.010798   -0.985585
     94          1           0      -11.065324    2.234845    0.469907
     95          1           0       -9.517226   -1.970953   -0.481272
     96          1           0       -9.540857   -2.298569    1.207957
     97          1           0       -9.199920   -3.588064    0.134944
     98          1           0       -3.919654   -4.435535   -0.716512
     99          1           0       -2.671811   -6.859406    2.707106
    100          1           0       -1.189219   -6.182081    1.897401
    101          1           0       -2.109142   -7.687694    1.325687
    102          1           0        3.836735   -4.968978   -1.346159
    103          1           0        3.978126   -3.991769    0.079511
    104          1           0        3.717168   -2.049380   -1.943023
    105          1           0        7.011550   -2.895673    0.047062
    106          1           0        7.594180   -3.499471   -1.460503
    107          1           0        6.249358   -4.391728   -0.699634
    108          1           0        6.861464   -0.740894   -1.137148
    109          1           0        5.199877   -0.365218   -1.419611
    110          1           0        5.625494    0.106493   -3.598515
    111          1           0        6.036904   -1.511780   -3.974020
    112          1           0        7.890530   -0.833349   -4.340592
    113          1           0        8.336125   -0.297823   -2.671359
    114          1           0        6.787573    1.843497   -3.547661
    115          1           0        7.167256    0.548923   -6.051039
    116          1           0        8.226049    1.895872   -5.982143
    117          1           0        6.571810    2.151941   -5.678809
    118          1           0        8.892524    2.967253   -3.987685
    119          1           0        9.691268    1.410530   -3.518768
    120          1           0        7.819995    2.038841   -1.444237
    121          1           0        8.556119    3.528475   -1.830869
    122          1           0       10.463772    3.274874   -0.907044
    123          1           0       10.864362    1.757551   -1.667861
    124          1           0        8.700713    1.862606    0.404421
    125          1           0        8.560391   -0.131702    0.390041
    126          1           0       10.267631   -0.570592    0.633893
    127          1           0        9.663004   -0.227621   -0.966669
    128          1           0       11.115517    3.070112    1.089940
    129          1           0       11.463261    1.423390    1.430777
    130          1           0        8.924729    2.720524    2.469800
    131          1           0       10.423381    2.882381    3.390964
    132          1           0       10.253515    0.192545    2.796964
    133          1           0        8.693349    0.610653    3.410277
    134          1           0       10.261677    1.767267    5.265095
    135          1           0       11.924132   -0.260174    5.756124
    136          1           0       12.520118    1.091882    4.840685
    137          1           0       11.956756   -0.361523    4.016810
    138          1           0        8.813932   -0.850834    5.065736
    139          1           0        8.682993    0.540560    6.205300
    140          1           0        9.704985   -0.874143    6.442606
 ---------------------------------------------------------------------

 SCF Done:  E(RZINDO/S) =  -474.233030288     A.U. after   19 cycles

 Excitation energies and oscillator strengths:

 Excited State   1:      Singlet-A      1.2558 eV  987.29 nm  f=0.6090  <S**2>=0.000
     175 ->178         0.18051
     176 ->177         0.66586
 This state for optimization and/or second-order correction.
 Total Energy, E(CIS/TDA) =  -474.186880250
 Copying the excited state density for this state as the 1-particle RhoCI density.

 Excited State   2:      Singlet-A      1.9661 eV  630.60 nm  f=0.0466  <S**2>=0.000
     175 ->177         0.54403
     176 ->178        -0.42508

 Excited State   3:      Singlet-A      2.9490 eV  420.43 nm  f=0.0076  <S**2>=0.000
     167 ->177        -0.14674
     167 ->179         0.21830
     167 ->180        -0.16785
     167 ->185         0.10414
     168 ->177        -0.26359
     168 ->178         0.14866
     168 ->179         0.35741
     168 ->180        -0.26925
     168 ->183        -0.11008
     168 ->185         0.16964

 Excited State   4:      Singlet-A      3.0504 eV  406.45 nm  f=1.0049  <S**2>=0.000
     175 ->177         0.36372
     176 ->178         0.48922
     176 ->179        -0.24587
     176 ->180        -0.13911

 Excited State   5:      Singlet-A      3.1000 eV  399.95 nm  f=0.1505  <S**2>=0.000
     175 ->177         0.14315
     176 ->178         0.21361
     176 ->179         0.60708
     176 ->183         0.10731

 The electronic state is 1-A.
 Alpha  occ. eigenvalues --   -1.84011  -1.81379  -1.79246  -1.73413  -1.73301
 Alpha  occ. eigenvalues --   -1.69797  -1.67860  -1.63006  -1.56985  -1.56881
 Alpha  occ. eigenvalues --   -1.55475  -1.52273  -1.48177  -1.47321  -1.46781
 Alpha  occ. eigenvalues --   -1.44937  -1.43558  -1.39926  -1.39767  -1.38100
 Alpha  occ. eigenvalues --   -1.35600  -1.34539  -1.34097  -1.31864  -1.28544
 Alpha  occ. eigenvalues --   -1.25563  -1.25260  -1.21831  -1.20440  -1.18134
 Alpha  occ. eigenvalues --   -1.17314  -1.17272  -1.16455  -1.16059  -1.14281
 Alpha  occ. eigenvalues --   -1.12369  -1.10947  -1.10657  -1.04625  -1.03780
 Alpha  occ. eigenvalues --   -1.03002  -1.00558  -0.99645  -0.98406  -0.97223
 Alpha  occ. eigenvalues --   -0.96258  -0.95272  -0.94493  -0.94282  -0.93613
 Alpha  occ. eigenvalues --   -0.91305  -0.90041  -0.89369  -0.88195  -0.87825
 Alpha  occ. eigenvalues --   -0.86656  -0.84433  -0.84096  -0.82035  -0.80499
 Alpha  occ. eigenvalues --   -0.80016  -0.78877  -0.76856  -0.76827  -0.76026
 Alpha  occ. eigenvalues --   -0.75709  -0.74642  -0.74355  -0.74212  -0.74134
 Alpha  occ. eigenvalues --   -0.73890  -0.72519  -0.72136  -0.70893  -0.70809
 Alpha  occ. eigenvalues --   -0.70399  -0.69894  -0.68996  -0.68127  -0.67905
 Alpha  occ. eigenvalues --   -0.67312  -0.66866  -0.66667  -0.66261  -0.66054
 Alpha  occ. eigenvalues --   -0.65886  -0.65507  -0.64426  -0.64271  -0.63583
 Alpha  occ. eigenvalues --   -0.63503  -0.63044  -0.62448  -0.62311  -0.62213
 Alpha  occ. eigenvalues --   -0.61633  -0.61317  -0.60877  -0.60821  -0.60091
 Alpha  occ. eigenvalues --   -0.59948  -0.59211  -0.58777  -0.58203  -0.57843
 Alpha  occ. eigenvalues --   -0.57512  -0.57267  -0.57123  -0.56905  -0.56668
 Alpha  occ. eigenvalues --   -0.56074  -0.55572  -0.55474  -0.54749  -0.54510
 Alpha  occ. eigenvalues --   -0.54215  -0.54157  -0.53587  -0.53192  -0.53007
 Alpha  occ. eigenvalues --   -0.52925  -0.52435  -0.52278  -0.52113  -0.51888
 Alpha  occ. eigenvalues --   -0.51670  -0.51379  -0.51288  -0.50606  -0.50150
 Alpha  occ. eigenvalues --   -0.50014  -0.49859  -0.49600  -0.49471  -0.49221
 Alpha  occ. eigenvalues --   -0.49070  -0.48851  -0.48002  -0.47876  -0.47738
 Alpha  occ. eigenvalues --   -0.47664  -0.47068  -0.46957  -0.46912  -0.46502
 Alpha  occ. eigenvalues --   -0.46339  -0.45962  -0.45695  -0.45525  -0.45212
 Alpha  occ. eigenvalues --   -0.45164  -0.45045  -0.44696  -0.44262  -0.43945
 Alpha  occ. eigenvalues --   -0.43876  -0.43305  -0.43025  -0.42824  -0.41882
 Alpha  occ. eigenvalues --   -0.41573  -0.41472  -0.41334  -0.39366  -0.38988
 Alpha  occ. eigenvalues --   -0.38152  -0.36619  -0.36154  -0.35305  -0.35163
 Alpha  occ. eigenvalues --   -0.33993  -0.33110  -0.32861  -0.32616  -0.27032
 Alpha  occ. eigenvalues --   -0.21989
 Alpha virt. eigenvalues --   -0.08699  -0.02120  -0.00565   0.01220   0.01469
 Alpha virt. eigenvalues --    0.02861   0.02951   0.03207   0.04468   0.05199
 Alpha virt. eigenvalues --    0.05903   0.06488   0.06912   0.07179   0.07678

 Mulliken charges:
               1
     1  Mg   0.417343
     2  C   -0.040166
     3  C   -0.078569
     4  C   -0.057848
     5  C   -0.050822
     6  N   -0.286982
     7  C    0.106718
     8  C    0.000267
     9  C   -0.003008
    10  C    0.141457
    11  C   -0.053949
    12  C   -0.008656
    13  C    0.003328
    14  C    0.482702
    15  O   -0.519601
    16  O   -0.259623
    17  N   -0.333471
    18  C    0.142994
    19  C    0.003572
    20  C   -0.034656
    21  C    0.134820
    22  C   -0.052093
    23  C    0.322129
    24  O   -0.522034
    25  C   -0.022456
    26  N   -0.254424
    27  C    0.163053
    28  C   -0.010282
    29  C    0.002508
    30  C    0.092447
    31  C   -0.055601
    32  C   -0.038664
    33  C   -0.064353
    34  N   -0.306663
    35  C    0.092991
    36  C    0.031279
    37  C   -0.064850
    38  C    0.098059
    39  C   -0.037756
    40  C    0.333351
    41  O   -0.503799
    42  C    0.054024
    43  C    0.501025
    44  O   -0.535509
    45  O   -0.261930
    46  C    0.073259
    47  C    0.095405
    48  C   -0.076662
    49  C   -0.002967
    50  C   -0.037688
    51  C   -0.026826
    52  C   -0.026751
    53  C   -0.031359
    54  C   -0.004157
    55  C   -0.058319
    56  C   -0.035947
    57  C   -0.049262
    58  C   -0.033564
    59  C   -0.011274
    60  C   -0.057945
    61  C   -0.032250
    62  C   -0.039054
    63  C   -0.027694
    64  C    0.005350
    65  C   -0.064508
    66  C   -0.060388
    67  H    0.026116
    68  H    0.044038
    69  H    0.035794
    70  H    0.033398
    71  H    0.032888
    72  H    0.025514
    73  H    0.015635
    74  H    0.032244
    75  H    0.021598
    76  H    0.034101
    77  H    0.027600
    78  H    0.025916
    79  H    0.036136
    80  H    0.029127
    81  H    0.023276
    82  H    0.028133
    83  H    0.046155
    84  H    0.040109
    85  H    0.042413
    86  H    0.027882
    87  H    0.033083
    88  H    0.025236
    89  H    0.017725
    90  H    0.021294
    91  H    0.018124
    92  H    0.026474
    93  H    0.016569
    94  H    0.019525
    95  H    0.021330
    96  H    0.027630
    97  H    0.025570
    98  H    0.044848
    99  H    0.050837
   100  H    0.045621
   101  H    0.038187
   102  H    0.057295
   103  H    0.026575
   104  H    0.024699
   105  H    0.029304
   106  H    0.029971
   107  H    0.026413
   108  H    0.020303
   109  H    0.017994
   110  H    0.015839
   111  H    0.026825
   112  H    0.016926
   113  H    0.028084
   114  H    0.015585
   115  H    0.018213
   116  H    0.012290
   117  H    0.013799
   118  H    0.016384
   119  H    0.019388
   120  H    0.027331
   121  H    0.010280
   122  H    0.014883
   123  H    0.025666
   124  H    0.015229
   125  H    0.014245
   126  H    0.024539
   127  H    0.014987
   128  H    0.016227
   129  H    0.014280
   130  H    0.020187
   131  H    0.014434
   132  H    0.016771
   133  H    0.008461
   134  H    0.018232
   135  H    0.011196
   136  H    0.021864
   137  H    0.016977
   138  H    0.012679
   139  H    0.015007
   140  H    0.026811
 Sum of Mulliken charges =  -0.00000

 Dipole moment (field-independent basis, Debye):
    X=              6.2267    Y=              4.5588    Z=             -0.1702  Tot=              7.7190
 N-N= 4.400593783998D+03 E-N= 0.000000000000D+00  KE=-9.474866395209D+03
 Leave Link  601 at Wed May  4 11:00:29 2022, MaxMem=  6710886400 cpu:               0.9 elap:               0.1
 (Enter /sw/apps/gaussian-16.0/g16/l9999.exe)
 1\1\GINC-BP1-COMPUTE040\SP\RZINDO CIS\STO-3G\C55H74Mg1N4O6\OF15641\04-
 May-2022\0\\#p ZINDO=(nstates=5)\\step_1601_chromophore_27 ZINDO\\0,1\
 Mg,0,-6.303,24.525,26.538\C,0,-4.552,26.417,28.899\C,0,-7.075,22.286,2
 9.066\C,0,-7.882,22.657,24.269\C,0,-4.986,26.572,23.999\N,0,-5.95,24.4
 ,28.794\C,0,-5.371,25.41,29.505\C,0,-5.54,25.058,31.014\C,0,-5.962,23.
 528,30.997\C,0,-6.412,23.356,29.497\C,0,-4.8,22.447,31.395\C,0,-6.642,
 26.034,31.677\C,0,-6.364,26.329,33.088\C,0,-6.945,25.794,34.381\O,0,-7

 Normal termination of Gaussian 16 at Wed May  4 11:00:29 2022.
