 Gaussian 16, Revision A.03,
 Gaussian 16:  ES64L-G16RevA.03 25-Dec-2016

 ------------------------------
 #p blyp/Def2SVP td=(nstates=5)
 ------------------------------

 ---------------------------------------------------
 step_1651_chromophore_23 TDDFT with blyp functional
 ---------------------------------------------------
 Symbolic Z-matrix:
 Charge =  0 Multiplicity = 1

                         Standard orientation:
 ---------------------------------------------------------------------
 Center     Atomic      Atomic             Coordinates (Angstroms)
 Number     Number       Type             X           Y           Z
 ---------------------------------------------------------------------
      1         12           0       -4.483136   -0.372592   -0.461334
      2          6           0       -2.949061    2.757921    0.269093
      3          6           0       -1.933919   -0.785448   -2.801054
      4          6           0       -5.451402   -3.535997   -0.751822
      5          6           0       -6.287719   -0.022707    2.537924
      6          7           0       -2.630660    0.906910   -1.221265
      7          6           0       -2.282849    2.139847   -0.822177
      8          6           0       -1.028843    2.693718   -1.643307
      9          6           0       -0.929231    1.556180   -2.759703
     10          6           0       -1.915316    0.471074   -2.220510
     11          6           0       -1.302433    1.902866   -4.224718
     12          6           0        0.261650    2.847582   -0.726166
     13          6           0        0.993601    4.188214   -0.995263
     14          6           0        2.226097    4.210170   -1.931050
     15          8           0        2.292494    4.018397   -3.110289
     16          8           0        3.314529    4.488681   -1.166269
     17          7           0       -3.885256   -1.904558   -1.646124
     18          6           0       -2.818392   -1.864143   -2.575307
     19          6           0       -2.722281   -3.113901   -3.244378
     20          6           0       -3.700230   -4.006066   -2.616294
     21          6           0       -4.375454   -3.144877   -1.602428
     22          6           0       -1.851095   -3.476000   -4.442682
     23          6           0       -3.989350   -5.419189   -2.994180
     24          8           0       -3.373573   -5.852806   -3.947605
     25          6           0       -4.813530   -6.384206   -2.112843
     26          7           0       -5.705013   -1.601418    0.819061
     27          6           0       -6.075056   -2.865805    0.389271
     28          6           0       -7.228396   -3.451319    1.302809
     29          6           0       -7.448143   -2.365079    2.378008
     30          6           0       -6.511590   -1.222420    1.878263
     31          6           0       -8.540074   -3.955286    0.550167
     32          6           0       -7.056692   -2.812016    3.814267
     33          6           0       -7.997633   -2.165391    4.843681
     34          7           0       -4.669081    1.034263    1.077251
     35          6           0       -5.445055    0.992904    2.252750
     36          6           0       -5.364699    2.356388    2.882188
     37          6           0       -4.445922    3.028521    2.086154
     38          6           0       -3.937394    2.148974    1.137505
     39          6           0       -6.183111    2.816707    4.014334
     40          6           0       -3.758058    4.278484    1.930358
     41          8           0       -3.959434    5.360833    2.451208
     42          6           0       -2.655481    4.194748    0.837169
     43          6           0       -2.927294    5.198085   -0.311670
     44          8           0       -3.961208    5.208705   -1.041800
     45          8           0       -1.889829    6.138605   -0.350326
     46          6           0       -1.913555    7.031424   -1.544591
     47          6           0        4.658777    4.290035   -1.642575
     48          6           0        5.547327    3.529748   -0.592395
     49          6           0        5.483632    2.296397   -0.094545
     50          6           0        4.468265    1.105554   -0.327548
     51          6           0        6.717049    1.814464    0.667154
     52          6           0        7.941634    1.322140   -0.156926
     53          6           0        9.249452    1.438445    0.684492
     54          6           0       10.259394    0.379464    0.243930
     55          6           0       11.647824    1.010882   -0.249653
     56          6           0       10.433689   -0.844606    1.212523
     57          6           0        9.249443   -1.836927    1.256272
     58          6           0        8.802618   -2.094861    2.706715
     59          6           0        7.233207   -2.018839    2.938592
     60          6           0        6.944518   -1.212677    4.195306
     61          6           0        6.522873   -3.402636    3.071640
     62          6           0        5.575518   -3.749983    1.902675
     63          6           0        6.125603   -5.020598    1.210909
     64          6           0        6.654292   -4.775040   -0.246400
     65          6           0        5.607262   -4.481603   -1.336687
     66          6           0        7.608755   -5.979873   -0.679198
     67          1           0       -1.234490   -0.844307   -3.637772
     68          1           0       -5.902329   -4.522441   -0.874018
     69          1           0       -6.813527    0.090756    3.487882
     70          1           0       -1.397635    3.584714   -2.150801
     71          1           0        0.080204    1.151237   -2.823978
     72          1           0       -0.490586    1.703252   -4.924236
     73          1           0       -1.432114    2.972239   -4.392692
     74          1           0       -2.230527    1.367572   -4.426291
     75          1           0        0.943687    2.041472   -0.998494
     76          1           0       -0.036468    2.752546    0.318318
     77          1           0        1.205020    4.594733   -0.005878
     78          1           0        0.221835    4.872013   -1.350973
     79          1           0       -1.134736   -4.208220   -4.068711
     80          1           0       -1.364599   -2.597033   -4.866125
     81          1           0       -2.408248   -3.960810   -5.244507
     82          1           0       -5.869630   -6.130655   -2.025356
     83          1           0       -4.411635   -6.400020   -1.099470
     84          1           0       -4.904259   -7.428395   -2.411729
     85          1           0       -6.854359   -4.336744    1.815910
     86          1           0       -8.504890   -2.104697    2.307384
     87          1           0       -8.560576   -3.765641   -0.523495
     88          1           0       -9.427639   -3.474989    0.962154
     89          1           0       -8.549161   -5.042584    0.622703
     90          1           0       -6.028518   -2.546642    4.064107
     91          1           0       -7.164032   -3.893439    3.898875
     92          1           0       -8.570127   -2.863514    5.454841
     93          1           0       -8.698513   -1.410045    4.489500
     94          1           0       -7.347995   -1.615359    5.525051
     95          1           0       -7.233593    2.659909    3.769163
     96          1           0       -6.023375    3.890418    4.117876
     97          1           0       -5.898285    2.292107    4.926147
     98          1           0       -1.617348    4.369072    1.121241
     99          1           0       -2.040696    6.425927   -2.442254
    100          1           0       -1.037289    7.674295   -1.615566
    101          1           0       -2.811658    7.612032   -1.331883
    102          1           0        5.096998    5.286574   -1.682221
    103          1           0        4.658948    3.729060   -2.577485
    104          1           0        6.448841    4.071029   -0.306640
    105          1           0        4.954966    0.135188   -0.424990
    106          1           0        3.730036    1.195309   -1.124004
    107          1           0        3.994534    1.056167    0.653084
    108          1           0        6.459901    0.946622    1.274074
    109          1           0        7.000031    2.574202    1.395990
    110          1           0        7.845104    2.049056   -0.962426
    111          1           0        7.783506    0.310889   -0.531584
    112          1           0        8.974901    1.183083    1.708203
    113          1           0        9.659722    2.440909    0.558113
    114          1           0        9.947422   -0.111769   -0.677620
    115          1           0       11.679056    1.077720   -1.337447
    116          1           0       12.486303    0.368960    0.018991
    117          1           0       11.837085    2.016911    0.126215
    118          1           0       10.587945   -0.372922    2.182087
    119          1           0       11.329892   -1.353776    0.856979
    120          1           0        9.479171   -2.748931    0.705698
    121          1           0        8.378034   -1.443361    0.732856
    122          1           0        9.269973   -1.445348    3.447294
    123          1           0        9.079895   -3.116125    2.966656
    124          1           0        6.767277   -1.391122    2.179708
    125          1           0        7.283638   -1.767970    5.069343
    126          1           0        5.867443   -1.044569    4.233757
    127          1           0        7.411804   -0.237449    4.054596
    128          1           0        5.784843   -3.414081    3.873253
    129          1           0        7.200434   -4.209351    3.352797
    130          1           0        5.456355   -2.896693    1.234256
    131          1           0        4.595557   -4.036475    2.285296
    132          1           0        5.325903   -5.748141    1.071828
    133          1           0        6.791939   -5.586636    1.861392
    134          1           0        7.376653   -3.958107   -0.229160
    135          1           0        6.007638   -4.453927   -2.349284
    136          1           0        5.144813   -3.507635   -1.172426
    137          1           0        4.792194   -5.198765   -1.435506
    138          1           0        7.584049   -6.063219   -1.766086
    139          1           0        7.272828   -6.928027   -0.261536
    140          1           0        8.606988   -5.751279   -0.305255
 ---------------------------------------------------------------------

 SCF Done:  E(RB-LYP) =  -3007.38262674     A.U. after   22 cycles

 Excitation energies and oscillator strengths:

 Excited State   1:      Singlet-A      1.8634 eV  665.36 nm  f=0.2694  <S**2>=0.000
     245 -> 248        0.21545
     246 -> 247        0.67640
     246 <- 247       -0.13338
 This state for optimization and/or second-order correction.
 Total Energy, E(TD-HF/TD-DFT) =  -3007.31414756
 Copying the excited state density for this state as the 1-particle RhoCI density.

 Excited State   2:      Singlet-A      1.9121 eV  648.43 nm  f=0.0009  <S**2>=0.000
     244 -> 247        0.70293

 Excited State   3:      Singlet-A      1.9832 eV  625.16 nm  f=0.0022  <S**2>=0.000
     243 -> 247        0.69899

 Excited State   4:      Singlet-A      2.0775 eV  596.80 nm  f=0.0638  <S**2>=0.000
     245 -> 247        0.62465
     246 -> 248       -0.28356

 Excited State   5:      Singlet-A      2.5589 eV  484.51 nm  f=0.0050  <S**2>=0.000
     242 -> 247        0.68918

 The electronic state is 1-A.
 Alpha  occ. eigenvalues --  -46.28078 -18.82706 -18.81418 -18.77163 -18.77114
 Alpha  occ. eigenvalues --  -18.75317 -18.74927 -14.03414 -14.03051 -14.01509
 Alpha  occ. eigenvalues --  -14.01070 -10.04635 -10.04333  -9.99671  -9.99430
 Alpha  occ. eigenvalues --   -9.98363  -9.98156  -9.97443  -9.96683  -9.96622
 Alpha  occ. eigenvalues --   -9.96299  -9.95711  -9.95700  -9.95422  -9.94798
 Alpha  occ. eigenvalues --   -9.94658  -9.94585  -9.94530  -9.94408  -9.94239
 Alpha  occ. eigenvalues --   -9.94179  -9.93908  -9.93709  -9.93643  -9.93634
 Alpha  occ. eigenvalues --   -9.93441  -9.93287  -9.93210  -9.93194  -9.93176
 Alpha  occ. eigenvalues --   -9.92707  -9.92424  -9.92394  -9.92393  -9.92295
 Alpha  occ. eigenvalues --   -9.92181  -9.92104  -9.92093  -9.91933  -9.91921
 Alpha  occ. eigenvalues --   -9.91915  -9.91908  -9.91875  -9.91871  -9.91629
 Alpha  occ. eigenvalues --   -9.91583  -9.91364  -9.91215  -9.91184  -9.91068
 Alpha  occ. eigenvalues --   -9.91056  -9.91030  -9.91016  -9.90878  -9.90736
 Alpha  occ. eigenvalues --   -9.90727  -2.92644  -1.73044  -1.72568  -1.72333
 Alpha  occ. eigenvalues --   -0.98641  -0.96151  -0.91633  -0.91466  -0.90876
 Alpha  occ. eigenvalues --   -0.88328  -0.87169  -0.85948  -0.85318  -0.84484
 Alpha  occ. eigenvalues --   -0.74839  -0.73594  -0.72832  -0.72667  -0.72166
 Alpha  occ. eigenvalues --   -0.71643  -0.71589  -0.70932  -0.70452  -0.70403
 Alpha  occ. eigenvalues --   -0.69159  -0.68652  -0.67906  -0.67654  -0.67182
 Alpha  occ. eigenvalues --   -0.66364  -0.65814  -0.65385  -0.64657  -0.64468
 Alpha  occ. eigenvalues --   -0.64248  -0.62365  -0.62034  -0.61336  -0.60838
 Alpha  occ. eigenvalues --   -0.60591  -0.59987  -0.59959  -0.59215  -0.58766
 Alpha  occ. eigenvalues --   -0.58546  -0.57603  -0.56718  -0.55571  -0.54940
 Alpha  occ. eigenvalues --   -0.53774  -0.53624  -0.52790  -0.52440  -0.51777
 Alpha  occ. eigenvalues --   -0.51648  -0.51359  -0.50438  -0.50208  -0.50045
 Alpha  occ. eigenvalues --   -0.49868  -0.49047  -0.48593  -0.48536  -0.46397
 Alpha  occ. eigenvalues --   -0.45865  -0.45688  -0.45467  -0.45206  -0.44388
 Alpha  occ. eigenvalues --   -0.44026  -0.43498  -0.43141  -0.43028  -0.42658
 Alpha  occ. eigenvalues --   -0.42483  -0.42106  -0.41630  -0.41215  -0.41150
 Alpha  occ. eigenvalues --   -0.40826  -0.40770  -0.40522  -0.40264  -0.39904
 Alpha  occ. eigenvalues --   -0.39706  -0.39621  -0.39235  -0.38943  -0.38897
 Alpha  occ. eigenvalues --   -0.38872  -0.38588  -0.38523  -0.38220  -0.38149
 Alpha  occ. eigenvalues --   -0.38020  -0.37765  -0.37484  -0.37215  -0.37088
 Alpha  occ. eigenvalues --   -0.36982  -0.36905  -0.36802  -0.36638  -0.36292
 Alpha  occ. eigenvalues --   -0.36263  -0.36076  -0.35978  -0.35875  -0.35489
 Alpha  occ. eigenvalues --   -0.35327  -0.35186  -0.34883  -0.34688  -0.34655
 Alpha  occ. eigenvalues --   -0.34326  -0.34296  -0.34041  -0.33906  -0.33709
 Alpha  occ. eigenvalues --   -0.33525  -0.33518  -0.33479  -0.33354  -0.33159
 Alpha  occ. eigenvalues --   -0.32994  -0.32910  -0.32623  -0.32479  -0.32445
 Alpha  occ. eigenvalues --   -0.32363  -0.32186  -0.32126  -0.31743  -0.31431
 Alpha  occ. eigenvalues --   -0.31305  -0.31151  -0.31070  -0.30965  -0.30848
 Alpha  occ. eigenvalues --   -0.30654  -0.30443  -0.30300  -0.30256  -0.30085
 Alpha  occ. eigenvalues --   -0.30038  -0.29696  -0.29567  -0.29389  -0.29101
 Alpha  occ. eigenvalues --   -0.28953  -0.28665  -0.28518  -0.28279  -0.28120
 Alpha  occ. eigenvalues --   -0.27754  -0.27572  -0.26991  -0.26873  -0.26626
 Alpha  occ. eigenvalues --   -0.26508  -0.26081  -0.25792  -0.25689  -0.25149
 Alpha  occ. eigenvalues --   -0.25006  -0.24551  -0.24388  -0.24137  -0.23710
 Alpha  occ. eigenvalues --   -0.23581  -0.22616  -0.22073  -0.21673  -0.20938
 Alpha  occ. eigenvalues --   -0.20642  -0.20087  -0.18502  -0.18252  -0.17316
 Alpha  occ. eigenvalues --   -0.15907
 Alpha virt. eigenvalues --   -0.11315  -0.07304  -0.05828  -0.04723  -0.03899
 Alpha virt. eigenvalues --   -0.03480  -0.03009  -0.02056  -0.01377   0.00076
 Alpha virt. eigenvalues --    0.00296   0.01364   0.01646   0.01955   0.02469

 Mulliken charges:
               1
     1  Mg   0.713741
     2  C   -0.044259
     3  C   -0.063309
     4  C   -0.044509
     5  C   -0.105762
     6  N   -0.112481
     7  C   -0.119798
     8  C    0.059468
     9  C   -0.049353
    10  C   -0.035809
    11  C    0.123729
    12  C    0.128550
    13  C    0.124322
    14  C    0.060342
    15  O   -0.158524
    16  O   -0.261467
    17  N   -0.319808
    18  C    0.178293
    19  C   -0.153650
    20  C    0.022152
    21  C    0.157669
    22  C    0.203629
    23  C   -0.057174
    24  O   -0.166944
    25  C    0.106179
    26  N   -0.243452
    27  C   -0.004270
    28  C    0.011845
    29  C    0.042487
    30  C    0.027118
    31  C    0.107917
    32  C    0.098970
    33  C    0.050371
    34  N   -0.279212
    35  C    0.155493
    36  C   -0.200325
    37  C    0.113908
    38  C    0.102932
    39  C    0.185835
    40  C   -0.051562
    41  O   -0.132843
    42  C    0.098418
    43  C    0.123286
    44  O   -0.219492
    45  O   -0.294231
    46  C    0.224106
    47  C    0.336763
    48  C   -0.125822
    49  C   -0.103772
    50  C    0.114288
    51  C    0.060054
    52  C    0.070287
    53  C    0.166955
    54  C   -0.113111
    55  C    0.079677
    56  C    0.111371
    57  C    0.070066
    58  C    0.120393
    59  C   -0.097636
    60  C    0.087363
    61  C    0.117495
    62  C    0.086190
    63  C    0.088515
    64  C   -0.072747
    65  C    0.092752
    66  C    0.076242
    67  H   -0.060576
    68  H   -0.096993
    69  H   -0.074856
    70  H   -0.016512
    71  H   -0.023383
    72  H   -0.003546
    73  H   -0.013860
    74  H    0.004182
    75  H   -0.009841
    76  H   -0.003708
    77  H   -0.015123
    78  H   -0.012135
    79  H    0.003792
    80  H   -0.023947
    81  H    0.012361
    82  H    0.011727
    83  H    0.010550
    84  H   -0.019118
    85  H   -0.022612
    86  H   -0.024384
    87  H   -0.005250
    88  H   -0.003866
    89  H   -0.004390
    90  H   -0.002729
    91  H   -0.017369
    92  H   -0.007352
    93  H   -0.000337
    94  H   -0.012081
    95  H    0.001825
    96  H    0.005469
    97  H    0.005377
    98  H   -0.006799
    99  H    0.019160
   100  H    0.026192
   101  H    0.026561
   102  H   -0.015730
   103  H    0.010691
   104  H   -0.032950
   105  H    0.000975
   106  H    0.004070
   107  H    0.003771
   108  H   -0.046694
   109  H   -0.018019
   110  H   -0.042313
   111  H   -0.016051
   112  H   -0.027149
   113  H   -0.022030
   114  H   -0.035306
   115  H   -0.015297
   116  H   -0.025555
   117  H   -0.015333
   118  H   -0.026192
   119  H   -0.035050
   120  H   -0.015978
   121  H   -0.027456
   122  H   -0.033028
   123  H   -0.041334
   124  H   -0.031232
   125  H   -0.008909
   126  H   -0.021532
   127  H   -0.017267
   128  H   -0.047309
   129  H   -0.032263
   130  H   -0.022897
   131  H   -0.036499
   132  H   -0.046776
   133  H   -0.035597
   134  H   -0.036749
   135  H   -0.017704
   136  H   -0.020815
   137  H   -0.017196
   138  H   -0.021700
   139  H   -0.016041
   140  H   -0.011832
 Sum of Mulliken charges =  -0.00000

 Dipole moment (field-independent basis, Debye):
    X=              0.0996    Y=             -2.3259    Z=              2.4886  Tot=              3.4078
 Quadrupole moment (field-independent basis, Debye-Ang):
   XX=           -368.0397   YY=           -428.6259   ZZ=           -416.3443
   XY=             31.0206   XZ=            -13.5231   YZ=            -31.7737

 Normal termination of Gaussian 16 at Wed May  4 11:58:06 2022.
