 Gaussian 16, Revision A.03,
 Gaussian 16:  ES64L-G16RevA.03 25-Dec-2016

 -----------------------------------
 #p cam-b3lyp/Def2SVP td=(nstates=5)
 -----------------------------------

 --------------------------------------------------------
 step_1651_chromophore_23 TDDFT with cam-b3lyp functional
 --------------------------------------------------------
 Symbolic Z-matrix:
 Charge =  0 Multiplicity = 1

                         Standard orientation:
 ---------------------------------------------------------------------
 Center     Atomic      Atomic             Coordinates (Angstroms)
 Number     Number       Type             X           Y           Z
 ---------------------------------------------------------------------
      1         12           0       -4.483136   -0.372592   -0.461334
      2          6           0       -2.949061    2.757921    0.269093
      3          6           0       -1.933919   -0.785448   -2.801054
      4          6           0       -5.451402   -3.535997   -0.751822
      5          6           0       -6.287719   -0.022707    2.537924
      6          7           0       -2.630660    0.906910   -1.221265
      7          6           0       -2.282849    2.139847   -0.822177
      8          6           0       -1.028843    2.693718   -1.643307
      9          6           0       -0.929231    1.556180   -2.759703
     10          6           0       -1.915316    0.471074   -2.220510
     11          6           0       -1.302433    1.902866   -4.224718
     12          6           0        0.261650    2.847582   -0.726166
     13          6           0        0.993601    4.188214   -0.995263
     14          6           0        2.226097    4.210170   -1.931050
     15          8           0        2.292494    4.018397   -3.110289
     16          8           0        3.314529    4.488681   -1.166269
     17          7           0       -3.885256   -1.904558   -1.646124
     18          6           0       -2.818392   -1.864143   -2.575307
     19          6           0       -2.722281   -3.113901   -3.244378
     20          6           0       -3.700230   -4.006066   -2.616294
     21          6           0       -4.375454   -3.144877   -1.602428
     22          6           0       -1.851095   -3.476000   -4.442682
     23          6           0       -3.989350   -5.419189   -2.994180
     24          8           0       -3.373573   -5.852806   -3.947605
     25          6           0       -4.813530   -6.384206   -2.112843
     26          7           0       -5.705013   -1.601418    0.819061
     27          6           0       -6.075056   -2.865805    0.389271
     28          6           0       -7.228396   -3.451319    1.302809
     29          6           0       -7.448143   -2.365079    2.378008
     30          6           0       -6.511590   -1.222420    1.878263
     31          6           0       -8.540074   -3.955286    0.550167
     32          6           0       -7.056692   -2.812016    3.814267
     33          6           0       -7.997633   -2.165391    4.843681
     34          7           0       -4.669081    1.034263    1.077251
     35          6           0       -5.445055    0.992904    2.252750
     36          6           0       -5.364699    2.356388    2.882188
     37          6           0       -4.445922    3.028521    2.086154
     38          6           0       -3.937394    2.148974    1.137505
     39          6           0       -6.183111    2.816707    4.014334
     40          6           0       -3.758058    4.278484    1.930358
     41          8           0       -3.959434    5.360833    2.451208
     42          6           0       -2.655481    4.194748    0.837169
     43          6           0       -2.927294    5.198085   -0.311670
     44          8           0       -3.961208    5.208705   -1.041800
     45          8           0       -1.889829    6.138605   -0.350326
     46          6           0       -1.913555    7.031424   -1.544591
     47          6           0        4.658777    4.290035   -1.642575
     48          6           0        5.547327    3.529748   -0.592395
     49          6           0        5.483632    2.296397   -0.094545
     50          6           0        4.468265    1.105554   -0.327548
     51          6           0        6.717049    1.814464    0.667154
     52          6           0        7.941634    1.322140   -0.156926
     53          6           0        9.249452    1.438445    0.684492
     54          6           0       10.259394    0.379464    0.243930
     55          6           0       11.647824    1.010882   -0.249653
     56          6           0       10.433689   -0.844606    1.212523
     57          6           0        9.249443   -1.836927    1.256272
     58          6           0        8.802618   -2.094861    2.706715
     59          6           0        7.233207   -2.018839    2.938592
     60          6           0        6.944518   -1.212677    4.195306
     61          6           0        6.522873   -3.402636    3.071640
     62          6           0        5.575518   -3.749983    1.902675
     63          6           0        6.125603   -5.020598    1.210909
     64          6           0        6.654292   -4.775040   -0.246400
     65          6           0        5.607262   -4.481603   -1.336687
     66          6           0        7.608755   -5.979873   -0.679198
     67          1           0       -1.234490   -0.844307   -3.637772
     68          1           0       -5.902329   -4.522441   -0.874018
     69          1           0       -6.813527    0.090756    3.487882
     70          1           0       -1.397635    3.584714   -2.150801
     71          1           0        0.080204    1.151237   -2.823978
     72          1           0       -0.490586    1.703252   -4.924236
     73          1           0       -1.432114    2.972239   -4.392692
     74          1           0       -2.230527    1.367572   -4.426291
     75          1           0        0.943687    2.041472   -0.998494
     76          1           0       -0.036468    2.752546    0.318318
     77          1           0        1.205020    4.594733   -0.005878
     78          1           0        0.221835    4.872013   -1.350973
     79          1           0       -1.134736   -4.208220   -4.068711
     80          1           0       -1.364599   -2.597033   -4.866125
     81          1           0       -2.408248   -3.960810   -5.244507
     82          1           0       -5.869630   -6.130655   -2.025356
     83          1           0       -4.411635   -6.400020   -1.099470
     84          1           0       -4.904259   -7.428395   -2.411729
     85          1           0       -6.854359   -4.336744    1.815910
     86          1           0       -8.504890   -2.104697    2.307384
     87          1           0       -8.560576   -3.765641   -0.523495
     88          1           0       -9.427639   -3.474989    0.962154
     89          1           0       -8.549161   -5.042584    0.622703
     90          1           0       -6.028518   -2.546642    4.064107
     91          1           0       -7.164032   -3.893439    3.898875
     92          1           0       -8.570127   -2.863514    5.454841
     93          1           0       -8.698513   -1.410045    4.489500
     94          1           0       -7.347995   -1.615359    5.525051
     95          1           0       -7.233593    2.659909    3.769163
     96          1           0       -6.023375    3.890418    4.117876
     97          1           0       -5.898285    2.292107    4.926147
     98          1           0       -1.617348    4.369072    1.121241
     99          1           0       -2.040696    6.425927   -2.442254
    100          1           0       -1.037289    7.674295   -1.615566
    101          1           0       -2.811658    7.612032   -1.331883
    102          1           0        5.096998    5.286574   -1.682221
    103          1           0        4.658948    3.729060   -2.577485
    104          1           0        6.448841    4.071029   -0.306640
    105          1           0        4.954966    0.135188   -0.424990
    106          1           0        3.730036    1.195309   -1.124004
    107          1           0        3.994534    1.056167    0.653084
    108          1           0        6.459901    0.946622    1.274074
    109          1           0        7.000031    2.574202    1.395990
    110          1           0        7.845104    2.049056   -0.962426
    111          1           0        7.783506    0.310889   -0.531584
    112          1           0        8.974901    1.183083    1.708203
    113          1           0        9.659722    2.440909    0.558113
    114          1           0        9.947422   -0.111769   -0.677620
    115          1           0       11.679056    1.077720   -1.337447
    116          1           0       12.486303    0.368960    0.018991
    117          1           0       11.837085    2.016911    0.126215
    118          1           0       10.587945   -0.372922    2.182087
    119          1           0       11.329892   -1.353776    0.856979
    120          1           0        9.479171   -2.748931    0.705698
    121          1           0        8.378034   -1.443361    0.732856
    122          1           0        9.269973   -1.445348    3.447294
    123          1           0        9.079895   -3.116125    2.966656
    124          1           0        6.767277   -1.391122    2.179708
    125          1           0        7.283638   -1.767970    5.069343
    126          1           0        5.867443   -1.044569    4.233757
    127          1           0        7.411804   -0.237449    4.054596
    128          1           0        5.784843   -3.414081    3.873253
    129          1           0        7.200434   -4.209351    3.352797
    130          1           0        5.456355   -2.896693    1.234256
    131          1           0        4.595557   -4.036475    2.285296
    132          1           0        5.325903   -5.748141    1.071828
    133          1           0        6.791939   -5.586636    1.861392
    134          1           0        7.376653   -3.958107   -0.229160
    135          1           0        6.007638   -4.453927   -2.349284
    136          1           0        5.144813   -3.507635   -1.172426
    137          1           0        4.792194   -5.198765   -1.435506
    138          1           0        7.584049   -6.063219   -1.766086
    139          1           0        7.272828   -6.928027   -0.261536
    140          1           0        8.606988   -5.751279   -0.305255
 ---------------------------------------------------------------------

 SCF Done:  E(RCAM-B3LYP) =  -3007.16430262     A.U. after   17 cycles

 Excitation energies and oscillator strengths:

 Excited State   1:      Singlet-A      1.7615 eV  703.85 nm  f=0.3460  <S**2>=0.000
     245 -> 248        0.20038
     246 -> 247        0.67834
     245 <- 248        0.10981
 This state for optimization and/or second-order correction.
 Total Energy, E(TD-HF/TD-DFT) =  -3007.09956775
 Copying the excited state density for this state as the 1-particle RhoCI density.

 Excited State   2:      Singlet-A      2.2830 eV  543.08 nm  f=0.0804  <S**2>=0.000
     245 -> 247        0.61508
     246 -> 248       -0.33586

 Excited State   3:      Singlet-A      3.4359 eV  360.85 nm  f=0.0124  <S**2>=0.000
     244 -> 247        0.67385
     246 -> 248        0.14818

 Excited State   4:      Singlet-A      3.4939 eV  354.86 nm  f=0.5538  <S**2>=0.000
     240 -> 247        0.11170
     240 -> 249        0.10119
     243 -> 247        0.34739
     245 -> 247        0.26484
     246 -> 248        0.50759

 Excited State   5:      Singlet-A      3.5550 eV  348.76 nm  f=0.3339  <S**2>=0.000
     240 -> 247        0.34471
     240 -> 249        0.25513
     240 -> 251       -0.11361
     242 -> 247       -0.10369
     243 -> 247        0.31460
     245 -> 247       -0.19755
     246 -> 248       -0.30072

 The electronic state is 1-A.
 Alpha  occ. eigenvalues --  -46.89670 -19.25727 -19.24226 -19.20337 -19.20145
 Alpha  occ. eigenvalues --  -19.18615 -19.18136 -14.42272 -14.41937 -14.39972
 Alpha  occ. eigenvalues --  -14.39484 -10.40353 -10.39647 -10.34827 -10.34772
 Alpha  occ. eigenvalues --  -10.32459 -10.32269 -10.32112 -10.31129 -10.31111
 Alpha  occ. eigenvalues --  -10.30806 -10.30061 -10.30019 -10.29680 -10.29088
 Alpha  occ. eigenvalues --  -10.29066 -10.28799 -10.28704 -10.28639 -10.28376
 Alpha  occ. eigenvalues --  -10.28366 -10.28271 -10.28184 -10.27889 -10.27685
 Alpha  occ. eigenvalues --  -10.27322 -10.27303 -10.27155 -10.26954 -10.26921
 Alpha  occ. eigenvalues --  -10.26901 -10.26708 -10.26264 -10.26215 -10.26150
 Alpha  occ. eigenvalues --  -10.26076 -10.26066 -10.25806 -10.25678 -10.25612
 Alpha  occ. eigenvalues --  -10.25604 -10.25589 -10.25577 -10.25556 -10.25413
 Alpha  occ. eigenvalues --  -10.25223 -10.25130 -10.25032 -10.24889 -10.24818
 Alpha  occ. eigenvalues --  -10.24730 -10.24669 -10.24644 -10.24526 -10.24368
 Alpha  occ. eigenvalues --  -10.24298  -3.18133  -1.93009  -1.92608  -1.92419
 Alpha  occ. eigenvalues --   -1.17178  -1.14649  -1.10044  -1.09979  -1.08793
 Alpha  occ. eigenvalues --   -1.06295  -1.04949  -1.03561  -1.02903  -1.01994
 Alpha  occ. eigenvalues --   -0.91978  -0.90443  -0.89603  -0.89337  -0.88935
 Alpha  occ. eigenvalues --   -0.88323  -0.88268  -0.87479  -0.87046  -0.86940
 Alpha  occ. eigenvalues --   -0.85614  -0.85079  -0.84153  -0.83835  -0.83364
 Alpha  occ. eigenvalues --   -0.82412  -0.81826  -0.81290  -0.80634  -0.80322
 Alpha  occ. eigenvalues --   -0.80038  -0.77997  -0.77564  -0.76892  -0.76333
 Alpha  occ. eigenvalues --   -0.75949  -0.75329  -0.75252  -0.74457  -0.73981
 Alpha  occ. eigenvalues --   -0.73619  -0.72613  -0.71614  -0.70404  -0.69536
 Alpha  occ. eigenvalues --   -0.68410  -0.68147  -0.67283  -0.66807  -0.65927
 Alpha  occ. eigenvalues --   -0.65898  -0.65558  -0.64336  -0.64245  -0.64073
 Alpha  occ. eigenvalues --   -0.63651  -0.62950  -0.62408  -0.62400  -0.60000
 Alpha  occ. eigenvalues --   -0.59513  -0.59227  -0.58880  -0.58647  -0.57848
 Alpha  occ. eigenvalues --   -0.57450  -0.57097  -0.56357  -0.56282  -0.55970
 Alpha  occ. eigenvalues --   -0.55361  -0.55237  -0.54703  -0.54170  -0.53990
 Alpha  occ. eigenvalues --   -0.53742  -0.53448  -0.53361  -0.53164  -0.52578
 Alpha  occ. eigenvalues --   -0.52228  -0.52010  -0.51836  -0.51639  -0.51594
 Alpha  occ. eigenvalues --   -0.51300  -0.51256  -0.51040  -0.50849  -0.50480
 Alpha  occ. eigenvalues --   -0.50348  -0.50033  -0.49939  -0.49754  -0.49366
 Alpha  occ. eigenvalues --   -0.49247  -0.49156  -0.49025  -0.48970  -0.48740
 Alpha  occ. eigenvalues --   -0.48515  -0.48397  -0.48199  -0.48003  -0.47873
 Alpha  occ. eigenvalues --   -0.47413  -0.47245  -0.46957  -0.46716  -0.46404
 Alpha  occ. eigenvalues --   -0.46343  -0.46126  -0.46068  -0.45911  -0.45603
 Alpha  occ. eigenvalues --   -0.45379  -0.45184  -0.45108  -0.45011  -0.44959
 Alpha  occ. eigenvalues --   -0.44771  -0.44461  -0.44188  -0.44148  -0.44083
 Alpha  occ. eigenvalues --   -0.43977  -0.43907  -0.43598  -0.43293  -0.42963
 Alpha  occ. eigenvalues --   -0.42843  -0.42772  -0.42570  -0.42428  -0.42181
 Alpha  occ. eigenvalues --   -0.42037  -0.41869  -0.41723  -0.41622  -0.41479
 Alpha  occ. eigenvalues --   -0.41334  -0.41182  -0.41030  -0.40791  -0.40240
 Alpha  occ. eigenvalues --   -0.39991  -0.39831  -0.39447  -0.39258  -0.39112
 Alpha  occ. eigenvalues --   -0.38718  -0.38530  -0.37754  -0.37724  -0.37594
 Alpha  occ. eigenvalues --   -0.37192  -0.36898  -0.36716  -0.36525  -0.36331
 Alpha  occ. eigenvalues --   -0.35965  -0.35283  -0.34977  -0.34833  -0.34378
 Alpha  occ. eigenvalues --   -0.34243  -0.34000  -0.33597  -0.31046  -0.30828
 Alpha  occ. eigenvalues --   -0.30779  -0.30570  -0.29969  -0.29423  -0.24006
 Alpha  occ. eigenvalues --   -0.21148
 Alpha virt. eigenvalues --   -0.08309  -0.02288   0.00653   0.01615   0.02272
 Alpha virt. eigenvalues --    0.03760   0.04522   0.05470   0.05672   0.06092
 Alpha virt. eigenvalues --    0.07232   0.07917   0.08131   0.08372   0.08539

 Mulliken charges:
               1
     1  Mg   0.842716
     2  C   -0.072563
     3  C   -0.068262
     4  C   -0.072068
     5  C   -0.119751
     6  N   -0.181284
     7  C   -0.076799
     8  C    0.012005
     9  C   -0.091322
    10  C   -0.024974
    11  C    0.063878
    12  C    0.078181
    13  C    0.053849
    14  C    0.143274
    15  O   -0.200145
    16  O   -0.326271
    17  N   -0.410011
    18  C    0.179384
    19  C   -0.154790
    20  C   -0.047440
    21  C    0.188643
    22  C    0.148719
    23  C    0.015204
    24  O   -0.207329
    25  C    0.026383
    26  N   -0.313487
    27  C    0.022589
    28  C   -0.039941
    29  C   -0.009647
    30  C    0.048839
    31  C    0.049952
    32  C    0.040918
    33  C   -0.014749
    34  N   -0.363173
    35  C    0.158313
    36  C   -0.187203
    37  C    0.027295
    38  C    0.137587
    39  C    0.127520
    40  C    0.044913
    41  O   -0.170140
    42  C    0.028702
    43  C    0.215299
    44  O   -0.255622
    45  O   -0.358784
    46  C    0.179754
    47  C    0.308449
    48  C   -0.154474
    49  C   -0.123057
    50  C    0.061972
    51  C    0.004803
    52  C    0.021798
    53  C    0.109636
    54  C   -0.170068
    55  C    0.026915
    56  C    0.061943
    57  C    0.021021
    58  C    0.064834
    59  C   -0.147714
    60  C    0.033691
    61  C    0.058444
    62  C    0.031952
    63  C    0.034370
    64  C   -0.130732
    65  C    0.037303
    66  C    0.022356
    67  H   -0.024794
    68  H   -0.062154
    69  H   -0.039724
    70  H    0.013540
    71  H    0.010900
    72  H    0.021386
    73  H    0.011499
    74  H    0.029931
    75  H    0.017275
    76  H    0.027210
    77  H    0.022707
    78  H    0.016128
    79  H    0.031208
    80  H    0.001019
    81  H    0.041268
    82  H    0.037402
    83  H    0.038965
    84  H    0.017043
    85  H    0.012400
    86  H    0.010677
    87  H    0.020310
    88  H    0.020168
    89  H    0.018495
    90  H    0.027712
    91  H    0.011399
    92  H    0.018233
    93  H    0.021321
    94  H    0.011235
    95  H    0.027418
    96  H    0.034509
    97  H    0.030616
    98  H    0.034558
    99  H    0.041070
   100  H    0.049956
   101  H    0.052536
   102  H    0.013462
   103  H    0.041320
   104  H   -0.001504
   105  H    0.022381
   106  H    0.024350
   107  H    0.027580
   108  H   -0.022517
   109  H    0.012344
   110  H   -0.013142
   111  H    0.008558
   112  H   -0.002162
   113  H    0.007076
   114  H   -0.003118
   115  H    0.008652
   116  H   -0.001182
   117  H    0.007188
   118  H    0.000465
   119  H   -0.005741
   120  H    0.010287
   121  H   -0.006739
   122  H   -0.003014
   123  H   -0.011879
   124  H   -0.006975
   125  H    0.014211
   126  H    0.003072
   127  H    0.004596
   128  H   -0.014608
   129  H   -0.004319
   130  H    0.001047
   131  H   -0.004820
   132  H   -0.018014
   133  H   -0.005974
   134  H   -0.009707
   135  H    0.006653
   136  H    0.001180
   137  H    0.006426
   138  H    0.002447
   139  H    0.006519
   140  H    0.010575
 Sum of Mulliken charges =  -0.00000

 Dipole moment (field-independent basis, Debye):
    X=              0.0322    Y=             -2.6088    Z=              2.4238  Tot=              3.5611
 Quadrupole moment (field-independent basis, Debye-Ang):
   XX=           -366.4775   YY=           -425.3905   ZZ=           -415.5831
   XY=             34.1750   XZ=            -14.4642   YZ=            -32.2153

 Normal termination of Gaussian 16 at Wed May  4 10:54:23 2022.
