 Gaussian 16, Revision A.03,
 Gaussian 16:  ES64L-G16RevA.03 25-Dec-2016

 ---------------------------------
 #p PBE1PBE/Def2SVP td=(nstates=5)
 ---------------------------------

 ------------------------------------------------------
 step_1651_chromophore_23 TDDFT with PBE1PBE functional
 ------------------------------------------------------
 Symbolic Z-matrix:
 Charge =  0 Multiplicity = 1

                         Standard orientation:
 ---------------------------------------------------------------------
 Center     Atomic      Atomic             Coordinates (Angstroms)
 Number     Number       Type             X           Y           Z
 ---------------------------------------------------------------------
      1         12           0       -4.483136   -0.372592   -0.461334
      2          6           0       -2.949061    2.757921    0.269093
      3          6           0       -1.933919   -0.785448   -2.801054
      4          6           0       -5.451402   -3.535997   -0.751822
      5          6           0       -6.287719   -0.022707    2.537924
      6          7           0       -2.630660    0.906910   -1.221265
      7          6           0       -2.282849    2.139847   -0.822177
      8          6           0       -1.028843    2.693718   -1.643307
      9          6           0       -0.929231    1.556180   -2.759703
     10          6           0       -1.915316    0.471074   -2.220510
     11          6           0       -1.302433    1.902866   -4.224718
     12          6           0        0.261650    2.847582   -0.726166
     13          6           0        0.993601    4.188214   -0.995263
     14          6           0        2.226097    4.210170   -1.931050
     15          8           0        2.292494    4.018397   -3.110289
     16          8           0        3.314529    4.488681   -1.166269
     17          7           0       -3.885256   -1.904558   -1.646124
     18          6           0       -2.818392   -1.864143   -2.575307
     19          6           0       -2.722281   -3.113901   -3.244378
     20          6           0       -3.700230   -4.006066   -2.616294
     21          6           0       -4.375454   -3.144877   -1.602428
     22          6           0       -1.851095   -3.476000   -4.442682
     23          6           0       -3.989350   -5.419189   -2.994180
     24          8           0       -3.373573   -5.852806   -3.947605
     25          6           0       -4.813530   -6.384206   -2.112843
     26          7           0       -5.705013   -1.601418    0.819061
     27          6           0       -6.075056   -2.865805    0.389271
     28          6           0       -7.228396   -3.451319    1.302809
     29          6           0       -7.448143   -2.365079    2.378008
     30          6           0       -6.511590   -1.222420    1.878263
     31          6           0       -8.540074   -3.955286    0.550167
     32          6           0       -7.056692   -2.812016    3.814267
     33          6           0       -7.997633   -2.165391    4.843681
     34          7           0       -4.669081    1.034263    1.077251
     35          6           0       -5.445055    0.992904    2.252750
     36          6           0       -5.364699    2.356388    2.882188
     37          6           0       -4.445922    3.028521    2.086154
     38          6           0       -3.937394    2.148974    1.137505
     39          6           0       -6.183111    2.816707    4.014334
     40          6           0       -3.758058    4.278484    1.930358
     41          8           0       -3.959434    5.360833    2.451208
     42          6           0       -2.655481    4.194748    0.837169
     43          6           0       -2.927294    5.198085   -0.311670
     44          8           0       -3.961208    5.208705   -1.041800
     45          8           0       -1.889829    6.138605   -0.350326
     46          6           0       -1.913555    7.031424   -1.544591
     47          6           0        4.658777    4.290035   -1.642575
     48          6           0        5.547327    3.529748   -0.592395
     49          6           0        5.483632    2.296397   -0.094545
     50          6           0        4.468265    1.105554   -0.327548
     51          6           0        6.717049    1.814464    0.667154
     52          6           0        7.941634    1.322140   -0.156926
     53          6           0        9.249452    1.438445    0.684492
     54          6           0       10.259394    0.379464    0.243930
     55          6           0       11.647824    1.010882   -0.249653
     56          6           0       10.433689   -0.844606    1.212523
     57          6           0        9.249443   -1.836927    1.256272
     58          6           0        8.802618   -2.094861    2.706715
     59          6           0        7.233207   -2.018839    2.938592
     60          6           0        6.944518   -1.212677    4.195306
     61          6           0        6.522873   -3.402636    3.071640
     62          6           0        5.575518   -3.749983    1.902675
     63          6           0        6.125603   -5.020598    1.210909
     64          6           0        6.654292   -4.775040   -0.246400
     65          6           0        5.607262   -4.481603   -1.336687
     66          6           0        7.608755   -5.979873   -0.679198
     67          1           0       -1.234490   -0.844307   -3.637772
     68          1           0       -5.902329   -4.522441   -0.874018
     69          1           0       -6.813527    0.090756    3.487882
     70          1           0       -1.397635    3.584714   -2.150801
     71          1           0        0.080204    1.151237   -2.823978
     72          1           0       -0.490586    1.703252   -4.924236
     73          1           0       -1.432114    2.972239   -4.392692
     74          1           0       -2.230527    1.367572   -4.426291
     75          1           0        0.943687    2.041472   -0.998494
     76          1           0       -0.036468    2.752546    0.318318
     77          1           0        1.205020    4.594733   -0.005878
     78          1           0        0.221835    4.872013   -1.350973
     79          1           0       -1.134736   -4.208220   -4.068711
     80          1           0       -1.364599   -2.597033   -4.866125
     81          1           0       -2.408248   -3.960810   -5.244507
     82          1           0       -5.869630   -6.130655   -2.025356
     83          1           0       -4.411635   -6.400020   -1.099470
     84          1           0       -4.904259   -7.428395   -2.411729
     85          1           0       -6.854359   -4.336744    1.815910
     86          1           0       -8.504890   -2.104697    2.307384
     87          1           0       -8.560576   -3.765641   -0.523495
     88          1           0       -9.427639   -3.474989    0.962154
     89          1           0       -8.549161   -5.042584    0.622703
     90          1           0       -6.028518   -2.546642    4.064107
     91          1           0       -7.164032   -3.893439    3.898875
     92          1           0       -8.570127   -2.863514    5.454841
     93          1           0       -8.698513   -1.410045    4.489500
     94          1           0       -7.347995   -1.615359    5.525051
     95          1           0       -7.233593    2.659909    3.769163
     96          1           0       -6.023375    3.890418    4.117876
     97          1           0       -5.898285    2.292107    4.926147
     98          1           0       -1.617348    4.369072    1.121241
     99          1           0       -2.040696    6.425927   -2.442254
    100          1           0       -1.037289    7.674295   -1.615566
    101          1           0       -2.811658    7.612032   -1.331883
    102          1           0        5.096998    5.286574   -1.682221
    103          1           0        4.658948    3.729060   -2.577485
    104          1           0        6.448841    4.071029   -0.306640
    105          1           0        4.954966    0.135188   -0.424990
    106          1           0        3.730036    1.195309   -1.124004
    107          1           0        3.994534    1.056167    0.653084
    108          1           0        6.459901    0.946622    1.274074
    109          1           0        7.000031    2.574202    1.395990
    110          1           0        7.845104    2.049056   -0.962426
    111          1           0        7.783506    0.310889   -0.531584
    112          1           0        8.974901    1.183083    1.708203
    113          1           0        9.659722    2.440909    0.558113
    114          1           0        9.947422   -0.111769   -0.677620
    115          1           0       11.679056    1.077720   -1.337447
    116          1           0       12.486303    0.368960    0.018991
    117          1           0       11.837085    2.016911    0.126215
    118          1           0       10.587945   -0.372922    2.182087
    119          1           0       11.329892   -1.353776    0.856979
    120          1           0        9.479171   -2.748931    0.705698
    121          1           0        8.378034   -1.443361    0.732856
    122          1           0        9.269973   -1.445348    3.447294
    123          1           0        9.079895   -3.116125    2.966656
    124          1           0        6.767277   -1.391122    2.179708
    125          1           0        7.283638   -1.767970    5.069343
    126          1           0        5.867443   -1.044569    4.233757
    127          1           0        7.411804   -0.237449    4.054596
    128          1           0        5.784843   -3.414081    3.873253
    129          1           0        7.200434   -4.209351    3.352797
    130          1           0        5.456355   -2.896693    1.234256
    131          1           0        4.595557   -4.036475    2.285296
    132          1           0        5.325903   -5.748141    1.071828
    133          1           0        6.791939   -5.586636    1.861392
    134          1           0        7.376653   -3.958107   -0.229160
    135          1           0        6.007638   -4.453927   -2.349284
    136          1           0        5.144813   -3.507635   -1.172426
    137          1           0        4.792194   -5.198765   -1.435506
    138          1           0        7.584049   -6.063219   -1.766086
    139          1           0        7.272828   -6.928027   -0.261536
    140          1           0        8.606988   -5.751279   -0.305255
 ---------------------------------------------------------------------

 SCF Done:  E(RPBE1PBE) =  -3005.35180947     A.U. after   15 cycles

 Excitation energies and oscillator strengths:

 Excited State   1:      Singlet-A      1.9226 eV  644.89 nm  f=0.3356  <S**2>=0.000
     245 -> 248        0.19406
     246 -> 247        0.68442
 This state for optimization and/or second-order correction.
 Total Energy, E(TD-HF/TD-DFT) =  -3005.28115681
 Copying the excited state density for this state as the 1-particle RhoCI density.

 Excited State   2:      Singlet-A      2.2950 eV  540.25 nm  f=0.0840  <S**2>=0.000
     245 -> 247        0.62952
     246 -> 248       -0.30682

 Excited State   3:      Singlet-A      3.0420 eV  407.58 nm  f=0.0002  <S**2>=0.000
     243 -> 247        0.62026
     243 -> 248        0.10131
     243 -> 249        0.10744
     243 -> 250       -0.14308
     244 -> 247       -0.25212

 Excited State   4:      Singlet-A      3.0637 eV  404.69 nm  f=0.0002  <S**2>=0.000
     241 -> 247       -0.21641
     241 -> 249        0.11480
     242 -> 247        0.61339
     242 -> 249       -0.14098
     244 -> 247        0.13643

 Excited State   5:      Singlet-A      3.0976 eV  400.25 nm  f=0.0060  <S**2>=0.000
     241 -> 247        0.10113
     242 -> 247       -0.12874
     243 -> 247        0.23239
     244 -> 247        0.63591

 The electronic state is 1-A.
 Alpha  occ. eigenvalues --  -46.93081 -19.26382 -19.24924 -19.20577 -19.20376
 Alpha  occ. eigenvalues --  -19.18801 -19.18341 -14.41856 -14.41337 -14.39608
 Alpha  occ. eigenvalues --  -14.39159 -10.37415 -10.36632 -10.31961 -10.31890
 Alpha  occ. eigenvalues --  -10.29859 -10.29835 -10.29479 -10.28905 -10.28901
 Alpha  occ. eigenvalues --  -10.28426 -10.27739 -10.27705 -10.27439 -10.26805
 Alpha  occ. eigenvalues --  -10.26674 -10.26617 -10.26541 -10.26482 -10.26225
 Alpha  occ. eigenvalues --  -10.26095 -10.25920 -10.25785 -10.25569 -10.25479
 Alpha  occ. eigenvalues --  -10.25042 -10.24820 -10.24806 -10.24493 -10.24484
 Alpha  occ. eigenvalues --  -10.24457 -10.24285 -10.23894 -10.23812 -10.23638
 Alpha  occ. eigenvalues --  -10.23519 -10.23518 -10.23416 -10.23320 -10.23279
 Alpha  occ. eigenvalues --  -10.23165 -10.23158 -10.23118 -10.23077 -10.22846
 Alpha  occ. eigenvalues --  -10.22827 -10.22756 -10.22607 -10.22462 -10.22353
 Alpha  occ. eigenvalues --  -10.22278 -10.22108 -10.22076 -10.22034 -10.21758
 Alpha  occ. eigenvalues --  -10.21685  -3.15124  -1.87938  -1.87517  -1.87332
 Alpha  occ. eigenvalues --   -1.11989  -1.09386  -1.04783  -1.04696  -1.03661
 Alpha  occ. eigenvalues --   -1.01076  -0.99552  -0.98244  -0.97543  -0.96641
 Alpha  occ. eigenvalues --   -0.86319  -0.84549  -0.83698  -0.83633  -0.83096
 Alpha  occ. eigenvalues --   -0.82641  -0.82390  -0.81835  -0.81374  -0.81032
 Alpha  occ. eigenvalues --   -0.79884  -0.79327  -0.78337  -0.78104  -0.77602
 Alpha  occ. eigenvalues --   -0.76600  -0.76078  -0.75461  -0.74858  -0.74604
 Alpha  occ. eigenvalues --   -0.74224  -0.72285  -0.71855  -0.71160  -0.70617
 Alpha  occ. eigenvalues --   -0.70176  -0.69600  -0.69396  -0.68609  -0.68137
 Alpha  occ. eigenvalues --   -0.67911  -0.67071  -0.66071  -0.64682  -0.63888
 Alpha  occ. eigenvalues --   -0.62886  -0.62375  -0.61733  -0.61013  -0.60346
 Alpha  occ. eigenvalues --   -0.60102  -0.59987  -0.58918  -0.58812  -0.58191
 Alpha  occ. eigenvalues --   -0.58106  -0.57141  -0.56967  -0.56626  -0.54560
 Alpha  occ. eigenvalues --   -0.54084  -0.53612  -0.53465  -0.53210  -0.52428
 Alpha  occ. eigenvalues --   -0.51944  -0.51469  -0.50844  -0.50716  -0.50517
 Alpha  occ. eigenvalues --   -0.49866  -0.49710  -0.49107  -0.48706  -0.48597
 Alpha  occ. eigenvalues --   -0.48261  -0.47889  -0.47793  -0.47773  -0.47234
 Alpha  occ. eigenvalues --   -0.46723  -0.46604  -0.46330  -0.46170  -0.46064
 Alpha  occ. eigenvalues --   -0.45891  -0.45803  -0.45505  -0.45406  -0.45039
 Alpha  occ. eigenvalues --   -0.44999  -0.44613  -0.44453  -0.44315  -0.43896
 Alpha  occ. eigenvalues --   -0.43828  -0.43767  -0.43602  -0.43515  -0.43351
 Alpha  occ. eigenvalues --   -0.43149  -0.43094  -0.42808  -0.42614  -0.42477
 Alpha  occ. eigenvalues --   -0.42045  -0.41909  -0.41630  -0.41402  -0.41067
 Alpha  occ. eigenvalues --   -0.41046  -0.40760  -0.40654  -0.40572  -0.40326
 Alpha  occ. eigenvalues --   -0.40137  -0.39871  -0.39749  -0.39716  -0.39663
 Alpha  occ. eigenvalues --   -0.39495  -0.39148  -0.38998  -0.38940  -0.38876
 Alpha  occ. eigenvalues --   -0.38703  -0.38609  -0.38291  -0.38099  -0.37812
 Alpha  occ. eigenvalues --   -0.37642  -0.37579  -0.37316  -0.37153  -0.37103
 Alpha  occ. eigenvalues --   -0.36871  -0.36689  -0.36591  -0.36446  -0.36208
 Alpha  occ. eigenvalues --   -0.36157  -0.35938  -0.35851  -0.35659  -0.35178
 Alpha  occ. eigenvalues --   -0.34768  -0.34729  -0.34256  -0.34251  -0.33929
 Alpha  occ. eigenvalues --   -0.33607  -0.33400  -0.32756  -0.32551  -0.32434
 Alpha  occ. eigenvalues --   -0.32264  -0.31957  -0.31575  -0.31470  -0.31269
 Alpha  occ. eigenvalues --   -0.30868  -0.30217  -0.29907  -0.29860  -0.29349
 Alpha  occ. eigenvalues --   -0.29268  -0.28932  -0.28918  -0.26735  -0.26042
 Alpha  occ. eigenvalues --   -0.25838  -0.25396  -0.25303  -0.25014  -0.20973
 Alpha  occ. eigenvalues --   -0.18820
 Alpha virt. eigenvalues --   -0.10836  -0.05729  -0.03525  -0.02156  -0.01175
 Alpha virt. eigenvalues --   -0.00880  -0.00009   0.01035   0.01530   0.02845
 Alpha virt. eigenvalues --    0.03126   0.04260   0.04434   0.04833   0.05244

 Mulliken charges:
               1
     1  Mg   0.983607
     2  C   -0.085642
     3  C   -0.050220
     4  C   -0.072461
     5  C   -0.123068
     6  N   -0.288307
     7  C    0.001681
     8  C   -0.060611
     9  C   -0.156176
    10  C    0.008278
    11  C    0.007294
    12  C    0.026274
    13  C   -0.030213
    14  C    0.215538
    15  O   -0.237624
    16  O   -0.357835
    17  N   -0.529363
    18  C    0.194296
    19  C   -0.176356
    20  C   -0.089814
    21  C    0.213362
    22  C    0.087832
    23  C    0.062020
    24  O   -0.240881
    25  C   -0.047729
    26  N   -0.407214
    27  C    0.062369
    28  C   -0.110938
    29  C   -0.087531
    30  C    0.089654
    31  C   -0.008349
    32  C   -0.019087
    33  C   -0.085148
    34  N   -0.479238
    35  C    0.174438
    36  C   -0.197213
    37  C   -0.032781
    38  C    0.189767
    39  C    0.069974
    40  C    0.147776
    41  O   -0.215410
    42  C   -0.088023
    43  C    0.303807
    44  O   -0.286848
    45  O   -0.388950
    46  C    0.121395
    47  C    0.269809
    48  C   -0.172733
    49  C   -0.155038
    50  C   -0.004373
    51  C   -0.071543
    52  C   -0.039928
    53  C    0.050710
    54  C   -0.252581
    55  C   -0.031123
    56  C    0.004742
    57  C   -0.046201
    58  C    0.014868
    59  C   -0.242574
    60  C   -0.032175
    61  C    0.009239
    62  C   -0.031915
    63  C   -0.017946
    64  C   -0.233344
    65  C   -0.020939
    66  C   -0.037945
    67  H    0.006218
    68  H   -0.024506
    69  H   -0.003162
    70  H    0.053576
    71  H    0.046550
    72  H    0.047867
    73  H    0.038865
    74  H    0.058325
    75  H    0.051586
    76  H    0.059219
    77  H    0.055130
    78  H    0.055974
    79  H    0.059806
    80  H    0.028676
    81  H    0.068307
    82  H    0.061704
    83  H    0.066207
    84  H    0.044979
    85  H    0.049528
    86  H    0.047964
    87  H    0.047420
    88  H    0.046628
    89  H    0.045146
    90  H    0.059706
    91  H    0.044576
    92  H    0.046524
    93  H    0.046738
    94  H    0.038707
    95  H    0.054822
    96  H    0.063244
    97  H    0.058312
    98  H    0.070965
    99  H    0.062654
   100  H    0.071118
   101  H    0.074860
   102  H    0.040548
   103  H    0.066152
   104  H    0.027286
   105  H    0.049290
   106  H    0.052355
   107  H    0.056459
   108  H    0.020296
   109  H    0.044733
   110  H    0.022476
   111  H    0.038250
   112  H    0.033209
   113  H    0.038919
   114  H    0.037078
   115  H    0.036182
   116  H    0.025782
   117  H    0.034091
   118  H    0.033035
   119  H    0.027107
   120  H    0.042955
   121  H    0.029313
   122  H    0.027479
   123  H    0.021792
   124  H    0.037010
   125  H    0.042762
   126  H    0.032518
   127  H    0.033961
   128  H    0.018262
   129  H    0.025489
   130  H    0.032359
   131  H    0.028634
   132  H    0.015424
   133  H    0.025028
   134  H    0.036368
   135  H    0.033711
   136  H    0.028601
   137  H    0.033404
   138  H    0.029945
   139  H    0.033895
   140  H    0.038265
 Sum of Mulliken charges =  -0.00000

 Dipole moment (field-independent basis, Debye):
    X=             -0.0444    Y=             -2.6794    Z=              2.5075  Tot=              3.6700
 Quadrupole moment (field-independent basis, Debye-Ang):
   XX=           -361.3299   YY=           -422.6619   ZZ=           -411.9935
   XY=             34.7762   XZ=            -15.9991   YZ=            -32.6296

 Normal termination of Gaussian 16 at Wed May  4 11:11:17 2022.
