 Gaussian 16, Revision A.03,
 Gaussian 16:  ES64L-G16RevA.03 25-Dec-2016

 --------------------------------
 #p wB97XD/Def2SVP td=(nstates=5)
 --------------------------------

 -----------------------------------------------------
 step_1651_chromophore_23 TDDFT with wB97XD functional
 -----------------------------------------------------
 Symbolic Z-matrix:
 Charge =  0 Multiplicity = 1

                         Standard orientation:
 ---------------------------------------------------------------------
 Center     Atomic      Atomic             Coordinates (Angstroms)
 Number     Number       Type             X           Y           Z
 ---------------------------------------------------------------------
      1         12           0       -4.483136   -0.372592   -0.461334
      2          6           0       -2.949061    2.757921    0.269093
      3          6           0       -1.933919   -0.785448   -2.801054
      4          6           0       -5.451402   -3.535997   -0.751822
      5          6           0       -6.287719   -0.022707    2.537924
      6          7           0       -2.630660    0.906910   -1.221265
      7          6           0       -2.282849    2.139847   -0.822177
      8          6           0       -1.028843    2.693718   -1.643307
      9          6           0       -0.929231    1.556180   -2.759703
     10          6           0       -1.915316    0.471074   -2.220510
     11          6           0       -1.302433    1.902866   -4.224718
     12          6           0        0.261650    2.847582   -0.726166
     13          6           0        0.993601    4.188214   -0.995263
     14          6           0        2.226097    4.210170   -1.931050
     15          8           0        2.292494    4.018397   -3.110289
     16          8           0        3.314529    4.488681   -1.166269
     17          7           0       -3.885256   -1.904558   -1.646124
     18          6           0       -2.818392   -1.864143   -2.575307
     19          6           0       -2.722281   -3.113901   -3.244378
     20          6           0       -3.700230   -4.006066   -2.616294
     21          6           0       -4.375454   -3.144877   -1.602428
     22          6           0       -1.851095   -3.476000   -4.442682
     23          6           0       -3.989350   -5.419189   -2.994180
     24          8           0       -3.373573   -5.852806   -3.947605
     25          6           0       -4.813530   -6.384206   -2.112843
     26          7           0       -5.705013   -1.601418    0.819061
     27          6           0       -6.075056   -2.865805    0.389271
     28          6           0       -7.228396   -3.451319    1.302809
     29          6           0       -7.448143   -2.365079    2.378008
     30          6           0       -6.511590   -1.222420    1.878263
     31          6           0       -8.540074   -3.955286    0.550167
     32          6           0       -7.056692   -2.812016    3.814267
     33          6           0       -7.997633   -2.165391    4.843681
     34          7           0       -4.669081    1.034263    1.077251
     35          6           0       -5.445055    0.992904    2.252750
     36          6           0       -5.364699    2.356388    2.882188
     37          6           0       -4.445922    3.028521    2.086154
     38          6           0       -3.937394    2.148974    1.137505
     39          6           0       -6.183111    2.816707    4.014334
     40          6           0       -3.758058    4.278484    1.930358
     41          8           0       -3.959434    5.360833    2.451208
     42          6           0       -2.655481    4.194748    0.837169
     43          6           0       -2.927294    5.198085   -0.311670
     44          8           0       -3.961208    5.208705   -1.041800
     45          8           0       -1.889829    6.138605   -0.350326
     46          6           0       -1.913555    7.031424   -1.544591
     47          6           0        4.658777    4.290035   -1.642575
     48          6           0        5.547327    3.529748   -0.592395
     49          6           0        5.483632    2.296397   -0.094545
     50          6           0        4.468265    1.105554   -0.327548
     51          6           0        6.717049    1.814464    0.667154
     52          6           0        7.941634    1.322140   -0.156926
     53          6           0        9.249452    1.438445    0.684492
     54          6           0       10.259394    0.379464    0.243930
     55          6           0       11.647824    1.010882   -0.249653
     56          6           0       10.433689   -0.844606    1.212523
     57          6           0        9.249443   -1.836927    1.256272
     58          6           0        8.802618   -2.094861    2.706715
     59          6           0        7.233207   -2.018839    2.938592
     60          6           0        6.944518   -1.212677    4.195306
     61          6           0        6.522873   -3.402636    3.071640
     62          6           0        5.575518   -3.749983    1.902675
     63          6           0        6.125603   -5.020598    1.210909
     64          6           0        6.654292   -4.775040   -0.246400
     65          6           0        5.607262   -4.481603   -1.336687
     66          6           0        7.608755   -5.979873   -0.679198
     67          1           0       -1.234490   -0.844307   -3.637772
     68          1           0       -5.902329   -4.522441   -0.874018
     69          1           0       -6.813527    0.090756    3.487882
     70          1           0       -1.397635    3.584714   -2.150801
     71          1           0        0.080204    1.151237   -2.823978
     72          1           0       -0.490586    1.703252   -4.924236
     73          1           0       -1.432114    2.972239   -4.392692
     74          1           0       -2.230527    1.367572   -4.426291
     75          1           0        0.943687    2.041472   -0.998494
     76          1           0       -0.036468    2.752546    0.318318
     77          1           0        1.205020    4.594733   -0.005878
     78          1           0        0.221835    4.872013   -1.350973
     79          1           0       -1.134736   -4.208220   -4.068711
     80          1           0       -1.364599   -2.597033   -4.866125
     81          1           0       -2.408248   -3.960810   -5.244507
     82          1           0       -5.869630   -6.130655   -2.025356
     83          1           0       -4.411635   -6.400020   -1.099470
     84          1           0       -4.904259   -7.428395   -2.411729
     85          1           0       -6.854359   -4.336744    1.815910
     86          1           0       -8.504890   -2.104697    2.307384
     87          1           0       -8.560576   -3.765641   -0.523495
     88          1           0       -9.427639   -3.474989    0.962154
     89          1           0       -8.549161   -5.042584    0.622703
     90          1           0       -6.028518   -2.546642    4.064107
     91          1           0       -7.164032   -3.893439    3.898875
     92          1           0       -8.570127   -2.863514    5.454841
     93          1           0       -8.698513   -1.410045    4.489500
     94          1           0       -7.347995   -1.615359    5.525051
     95          1           0       -7.233593    2.659909    3.769163
     96          1           0       -6.023375    3.890418    4.117876
     97          1           0       -5.898285    2.292107    4.926147
     98          1           0       -1.617348    4.369072    1.121241
     99          1           0       -2.040696    6.425927   -2.442254
    100          1           0       -1.037289    7.674295   -1.615566
    101          1           0       -2.811658    7.612032   -1.331883
    102          1           0        5.096998    5.286574   -1.682221
    103          1           0        4.658948    3.729060   -2.577485
    104          1           0        6.448841    4.071029   -0.306640
    105          1           0        4.954966    0.135188   -0.424990
    106          1           0        3.730036    1.195309   -1.124004
    107          1           0        3.994534    1.056167    0.653084
    108          1           0        6.459901    0.946622    1.274074
    109          1           0        7.000031    2.574202    1.395990
    110          1           0        7.845104    2.049056   -0.962426
    111          1           0        7.783506    0.310889   -0.531584
    112          1           0        8.974901    1.183083    1.708203
    113          1           0        9.659722    2.440909    0.558113
    114          1           0        9.947422   -0.111769   -0.677620
    115          1           0       11.679056    1.077720   -1.337447
    116          1           0       12.486303    0.368960    0.018991
    117          1           0       11.837085    2.016911    0.126215
    118          1           0       10.587945   -0.372922    2.182087
    119          1           0       11.329892   -1.353776    0.856979
    120          1           0        9.479171   -2.748931    0.705698
    121          1           0        8.378034   -1.443361    0.732856
    122          1           0        9.269973   -1.445348    3.447294
    123          1           0        9.079895   -3.116125    2.966656
    124          1           0        6.767277   -1.391122    2.179708
    125          1           0        7.283638   -1.767970    5.069343
    126          1           0        5.867443   -1.044569    4.233757
    127          1           0        7.411804   -0.237449    4.054596
    128          1           0        5.784843   -3.414081    3.873253
    129          1           0        7.200434   -4.209351    3.352797
    130          1           0        5.456355   -2.896693    1.234256
    131          1           0        4.595557   -4.036475    2.285296
    132          1           0        5.325903   -5.748141    1.071828
    133          1           0        6.791939   -5.586636    1.861392
    134          1           0        7.376653   -3.958107   -0.229160
    135          1           0        6.007638   -4.453927   -2.349284
    136          1           0        5.144813   -3.507635   -1.172426
    137          1           0        4.792194   -5.198765   -1.435506
    138          1           0        7.584049   -6.063219   -1.766086
    139          1           0        7.272828   -6.928027   -0.261536
    140          1           0        8.606988   -5.751279   -0.305255
 ---------------------------------------------------------------------

 SCF Done:  E(RwB97XD) =  -3007.86604858     A.U. after   20 cycles

 Excitation energies and oscillator strengths:

 Excited State   1:      Singlet-A      1.7026 eV  728.23 nm  f=0.3443  <S**2>=0.000
     245 -> 248        0.20581
     246 -> 247        0.67644
     245 <- 248        0.11978
 This state for optimization and/or second-order correction.
 Total Energy, E(TD-HF/TD-DFT) =  -3007.80348101
 Copying the excited state density for this state as the 1-particle RhoCI density.

 Excited State   2:      Singlet-A      2.2275 eV  556.60 nm  f=0.0787  <S**2>=0.000
     245 -> 247        0.61385
     246 -> 248       -0.33699

 Excited State   3:      Singlet-A      3.4572 eV  358.63 nm  f=0.0521  <S**2>=0.000
     244 -> 247        0.64336
     246 -> 248        0.22989

 Excited State   4:      Singlet-A      3.5065 eV  353.59 nm  f=0.4548  <S**2>=0.000
     240 -> 249       -0.11932
     243 -> 247       -0.39675
     243 -> 249        0.11031
     244 -> 247       -0.17353
     245 -> 247        0.23746
     246 -> 248        0.45465

 Excited State   5:      Singlet-A      3.5784 eV  346.48 nm  f=0.3466  <S**2>=0.000
     240 -> 247       -0.29516
     240 -> 249        0.24759
     240 -> 250        0.11798
     242 -> 247        0.21439
     242 -> 249        0.11370
     242 -> 250       -0.13397
     243 -> 247        0.28312
     244 -> 247       -0.10078
     245 -> 247        0.20158
     246 -> 248        0.30517

 The electronic state is 1-A.
 Alpha  occ. eigenvalues --  -46.96006 -19.30977 -19.29489 -19.25322 -19.25096
 Alpha  occ. eigenvalues --  -19.23665 -19.23151 -14.46864 -14.46514 -14.44578
 Alpha  occ. eigenvalues --  -14.44078 -10.44271 -10.43468 -10.38795 -10.38781
 Alpha  occ. eigenvalues --  -10.36346 -10.36188 -10.36031 -10.35165 -10.35126
 Alpha  occ. eigenvalues --  -10.34855 -10.34083 -10.34060 -10.33703 -10.33135
 Alpha  occ. eigenvalues --  -10.33082 -10.32890 -10.32814 -10.32752 -10.32489
 Alpha  occ. eigenvalues --  -10.32437 -10.32409 -10.32167 -10.31898 -10.31738
 Alpha  occ. eigenvalues --  -10.31386 -10.31252 -10.31084 -10.30988 -10.30832
 Alpha  occ. eigenvalues --  -10.30823 -10.30713 -10.30235 -10.30096 -10.30084
 Alpha  occ. eigenvalues --  -10.30008 -10.29941 -10.29673 -10.29636 -10.29585
 Alpha  occ. eigenvalues --  -10.29532 -10.29514 -10.29487 -10.29474 -10.29352
 Alpha  occ. eigenvalues --  -10.29160 -10.29139 -10.28971 -10.28823 -10.28709
 Alpha  occ. eigenvalues --  -10.28638 -10.28486 -10.28476 -10.28453 -10.28178
 Alpha  occ. eigenvalues --  -10.28120  -3.21935  -1.95495  -1.95073  -1.94883
 Alpha  occ. eigenvalues --   -1.19377  -1.16838  -1.12257  -1.12217  -1.11016
 Alpha  occ. eigenvalues --   -1.08508  -1.06953  -1.05582  -1.04937  -1.04013
 Alpha  occ. eigenvalues --   -0.93962  -0.92223  -0.91366  -0.91192  -0.90772
 Alpha  occ. eigenvalues --   -0.90267  -0.90058  -0.89405  -0.88987  -0.88700
 Alpha  occ. eigenvalues --   -0.87547  -0.87001  -0.86000  -0.85714  -0.85263
 Alpha  occ. eigenvalues --   -0.84262  -0.83741  -0.83138  -0.82558  -0.82251
 Alpha  occ. eigenvalues --   -0.81891  -0.79913  -0.79469  -0.78827  -0.78280
 Alpha  occ. eigenvalues --   -0.77828  -0.77193  -0.77101  -0.76285  -0.75800
 Alpha  occ. eigenvalues --   -0.75527  -0.74608  -0.73601  -0.72326  -0.71437
 Alpha  occ. eigenvalues --   -0.70421  -0.70013  -0.69283  -0.68659  -0.67851
 Alpha  occ. eigenvalues --   -0.67744  -0.67508  -0.66344  -0.66261  -0.65862
 Alpha  occ. eigenvalues --   -0.65621  -0.64777  -0.64421  -0.64247  -0.61981
 Alpha  occ. eigenvalues --   -0.61510  -0.61121  -0.60856  -0.60631  -0.59835
 Alpha  occ. eigenvalues --   -0.59399  -0.59053  -0.58267  -0.58230  -0.57925
 Alpha  occ. eigenvalues --   -0.57238  -0.57210  -0.56577  -0.56103  -0.55928
 Alpha  occ. eigenvalues --   -0.55663  -0.55285  -0.55235  -0.55126  -0.54513
 Alpha  occ. eigenvalues --   -0.54111  -0.53906  -0.53708  -0.53577  -0.53538
 Alpha  occ. eigenvalues --   -0.53193  -0.53166  -0.52986  -0.52744  -0.52366
 Alpha  occ. eigenvalues --   -0.52276  -0.51953  -0.51816  -0.51666  -0.51233
 Alpha  occ. eigenvalues --   -0.51174  -0.51092  -0.50977  -0.50845  -0.50643
 Alpha  occ. eigenvalues --   -0.50427  -0.50334  -0.50089  -0.49880  -0.49751
 Alpha  occ. eigenvalues --   -0.49342  -0.49155  -0.48898  -0.48651  -0.48281
 Alpha  occ. eigenvalues --   -0.48280  -0.48045  -0.47928  -0.47836  -0.47535
 Alpha  occ. eigenvalues --   -0.47285  -0.47028  -0.47009  -0.46911  -0.46903
 Alpha  occ. eigenvalues --   -0.46684  -0.46334  -0.46094  -0.46077  -0.45999
 Alpha  occ. eigenvalues --   -0.45861  -0.45816  -0.45447  -0.45211  -0.44948
 Alpha  occ. eigenvalues --   -0.44771  -0.44709  -0.44455  -0.44283  -0.44159
 Alpha  occ. eigenvalues --   -0.43963  -0.43809  -0.43689  -0.43533  -0.43324
 Alpha  occ. eigenvalues --   -0.43248  -0.43040  -0.42938  -0.42690  -0.42138
 Alpha  occ. eigenvalues --   -0.41832  -0.41732  -0.41294  -0.41153  -0.40974
 Alpha  occ. eigenvalues --   -0.40598  -0.40413  -0.39653  -0.39580  -0.39435
 Alpha  occ. eigenvalues --   -0.39348  -0.38830  -0.38598  -0.38540  -0.38222
 Alpha  occ. eigenvalues --   -0.37858  -0.37175  -0.36830  -0.36776  -0.36344
 Alpha  occ. eigenvalues --   -0.36209  -0.35839  -0.35817  -0.33291  -0.32826
 Alpha  occ. eigenvalues --   -0.32795  -0.32498  -0.32105  -0.31624  -0.25921
 Alpha  occ. eigenvalues --   -0.22957
 Alpha virt. eigenvalues --   -0.06661  -0.00389   0.02747   0.04350   0.04856
 Alpha virt. eigenvalues --    0.05868   0.06710   0.07781   0.08271   0.09375
 Alpha virt. eigenvalues --    0.09743   0.10648   0.11281   0.11474   0.11886

 Mulliken charges:
               1
     1  Mg   0.976164
     2  C   -0.083787
     3  C   -0.070906
     4  C   -0.083959
     5  C   -0.130970
     6  N   -0.248753
     7  C   -0.034158
     8  C   -0.031953
     9  C   -0.135444
    10  C   -0.003111
    11  C    0.017158
    12  C    0.037448
    13  C   -0.004722
    14  C    0.202831
    15  O   -0.233605
    16  O   -0.356331
    17  N   -0.496458
    18  C    0.189300
    19  C   -0.168746
    20  C   -0.086949
    21  C    0.211667
    22  C    0.100227
    23  C    0.057420
    24  O   -0.236828
    25  C   -0.034525
    26  N   -0.380476
    27  C    0.048279
    28  C   -0.088280
    29  C   -0.058514
    30  C    0.074937
    31  C    0.003329
    32  C   -0.005615
    33  C   -0.071941
    34  N   -0.446727
    35  C    0.168080
    36  C   -0.194533
    37  C   -0.023179
    38  C    0.170725
    39  C    0.079177
    40  C    0.123978
    41  O   -0.205686
    42  C   -0.043554
    43  C    0.279746
    44  O   -0.282171
    45  O   -0.387435
    46  C    0.136021
    47  C    0.282111
    48  C   -0.181048
    49  C   -0.147566
    50  C    0.013241
    51  C   -0.038549
    52  C   -0.021969
    53  C    0.067458
    54  C   -0.223640
    55  C   -0.018073
    56  C    0.022380
    57  C   -0.020607
    58  C    0.026917
    59  C   -0.200443
    60  C   -0.015151
    61  C    0.019719
    62  C   -0.014879
    63  C   -0.003885
    64  C   -0.195973
    65  C   -0.009333
    66  C   -0.024666
    67  H   -0.000880
    68  H   -0.038568
    69  H   -0.014147
    70  H    0.035933
    71  H    0.036963
    72  H    0.043460
    73  H    0.033894
    74  H    0.050619
    75  H    0.042299
    76  H    0.051204
    77  H    0.051179
    78  H    0.039318
    79  H    0.055350
    80  H    0.023661
    81  H    0.064619
    82  H    0.057249
    83  H    0.060694
    84  H    0.043867
    85  H    0.038793
    86  H    0.035134
    87  H    0.041311
    88  H    0.041259
    89  H    0.039775
    90  H    0.052207
    91  H    0.036326
    92  H    0.042107
    93  H    0.040455
    94  H    0.032713
    95  H    0.049595
    96  H    0.059680
    97  H    0.053678
    98  H    0.063344
    99  H    0.058562
   100  H    0.068955
   101  H    0.071148
   102  H    0.037339
   103  H    0.062362
   104  H    0.023581
   105  H    0.043410
   106  H    0.046847
   107  H    0.049247
   108  H    0.000908
   109  H    0.036116
   110  H    0.011064
   111  H    0.029481
   112  H    0.018347
   113  H    0.031877
   114  H    0.022366
   115  H    0.030553
   116  H    0.019599
   117  H    0.027685
   118  H    0.022102
   119  H    0.019259
   120  H    0.036049
   121  H    0.007006
   122  H    0.017681
   123  H    0.013096
   124  H    0.011834
   125  H    0.036102
   126  H    0.025872
   127  H    0.026303
   128  H    0.010269
   129  H    0.016051
   130  H    0.021116
   131  H    0.022452
   132  H    0.005563
   133  H    0.016183
   134  H    0.016540
   135  H    0.027793
   136  H    0.022104
   137  H    0.027332
   138  H    0.023843
   139  H    0.027326
   140  H    0.032370
 Sum of Mulliken charges =  -0.00000

 Dipole moment (field-independent basis, Debye):
    X=              0.0296    Y=             -2.6670    Z=              2.3841  Tot=              3.5774
 Quadrupole moment (field-independent basis, Debye-Ang):
   XX=           -361.8924   YY=           -421.2654   ZZ=           -411.7449
   XY=             34.9008   XZ=            -15.2052   YZ=            -32.2046

 Normal termination of Gaussian 16 at Wed May  4 11:44:23 2022.
