 Gaussian 16, Revision A.03,
 Gaussian 16:  ES64L-G16RevA.03 25-Dec-2016

 --------------------
 #p ZINDO=(nstates=5)
 --------------------

 ------------------------------
 step_1651_chromophore_23 ZINDO
 ------------------------------
 Symbolic Z-matrix:
 Charge =  0 Multiplicity = 1

                         Standard orientation:
 ---------------------------------------------------------------------
 Center     Atomic      Atomic             Coordinates (Angstroms)
 Number     Number       Type             X           Y           Z
 ---------------------------------------------------------------------
      1         12           0       -4.483136   -0.372592   -0.461334
      2          6           0       -2.949061    2.757921    0.269093
      3          6           0       -1.933919   -0.785448   -2.801054
      4          6           0       -5.451402   -3.535997   -0.751822
      5          6           0       -6.287719   -0.022707    2.537924
      6          7           0       -2.630660    0.906910   -1.221265
      7          6           0       -2.282849    2.139847   -0.822177
      8          6           0       -1.028843    2.693718   -1.643307
      9          6           0       -0.929231    1.556180   -2.759703
     10          6           0       -1.915316    0.471074   -2.220510
     11          6           0       -1.302433    1.902866   -4.224718
     12          6           0        0.261650    2.847582   -0.726166
     13          6           0        0.993601    4.188214   -0.995263
     14          6           0        2.226097    4.210170   -1.931050
     15          8           0        2.292494    4.018397   -3.110289
     16          8           0        3.314529    4.488681   -1.166269
     17          7           0       -3.885256   -1.904558   -1.646124
     18          6           0       -2.818392   -1.864143   -2.575307
     19          6           0       -2.722281   -3.113901   -3.244378
     20          6           0       -3.700230   -4.006066   -2.616294
     21          6           0       -4.375454   -3.144877   -1.602428
     22          6           0       -1.851095   -3.476000   -4.442682
     23          6           0       -3.989350   -5.419189   -2.994180
     24          8           0       -3.373573   -5.852806   -3.947605
     25          6           0       -4.813530   -6.384206   -2.112843
     26          7           0       -5.705013   -1.601418    0.819061
     27          6           0       -6.075056   -2.865805    0.389271
     28          6           0       -7.228396   -3.451319    1.302809
     29          6           0       -7.448143   -2.365079    2.378008
     30          6           0       -6.511590   -1.222420    1.878263
     31          6           0       -8.540074   -3.955286    0.550167
     32          6           0       -7.056692   -2.812016    3.814267
     33          6           0       -7.997633   -2.165391    4.843681
     34          7           0       -4.669081    1.034263    1.077251
     35          6           0       -5.445055    0.992904    2.252750
     36          6           0       -5.364699    2.356388    2.882188
     37          6           0       -4.445922    3.028521    2.086154
     38          6           0       -3.937394    2.148974    1.137505
     39          6           0       -6.183111    2.816707    4.014334
     40          6           0       -3.758058    4.278484    1.930358
     41          8           0       -3.959434    5.360833    2.451208
     42          6           0       -2.655481    4.194748    0.837169
     43          6           0       -2.927294    5.198085   -0.311670
     44          8           0       -3.961208    5.208705   -1.041800
     45          8           0       -1.889829    6.138605   -0.350326
     46          6           0       -1.913555    7.031424   -1.544591
     47          6           0        4.658777    4.290035   -1.642575
     48          6           0        5.547327    3.529748   -0.592395
     49          6           0        5.483632    2.296397   -0.094545
     50          6           0        4.468265    1.105554   -0.327548
     51          6           0        6.717049    1.814464    0.667154
     52          6           0        7.941634    1.322140   -0.156926
     53          6           0        9.249452    1.438445    0.684492
     54          6           0       10.259394    0.379464    0.243930
     55          6           0       11.647824    1.010882   -0.249653
     56          6           0       10.433689   -0.844606    1.212523
     57          6           0        9.249443   -1.836927    1.256272
     58          6           0        8.802618   -2.094861    2.706715
     59          6           0        7.233207   -2.018839    2.938592
     60          6           0        6.944518   -1.212677    4.195306
     61          6           0        6.522873   -3.402636    3.071640
     62          6           0        5.575518   -3.749983    1.902675
     63          6           0        6.125603   -5.020598    1.210909
     64          6           0        6.654292   -4.775040   -0.246400
     65          6           0        5.607262   -4.481603   -1.336687
     66          6           0        7.608755   -5.979873   -0.679198
     67          1           0       -1.234490   -0.844307   -3.637772
     68          1           0       -5.902329   -4.522441   -0.874018
     69          1           0       -6.813527    0.090756    3.487882
     70          1           0       -1.397635    3.584714   -2.150801
     71          1           0        0.080204    1.151237   -2.823978
     72          1           0       -0.490586    1.703252   -4.924236
     73          1           0       -1.432114    2.972239   -4.392692
     74          1           0       -2.230527    1.367572   -4.426291
     75          1           0        0.943687    2.041472   -0.998494
     76          1           0       -0.036468    2.752546    0.318318
     77          1           0        1.205020    4.594733   -0.005878
     78          1           0        0.221835    4.872013   -1.350973
     79          1           0       -1.134736   -4.208220   -4.068711
     80          1           0       -1.364599   -2.597033   -4.866125
     81          1           0       -2.408248   -3.960810   -5.244507
     82          1           0       -5.869630   -6.130655   -2.025356
     83          1           0       -4.411635   -6.400020   -1.099470
     84          1           0       -4.904259   -7.428395   -2.411729
     85          1           0       -6.854359   -4.336744    1.815910
     86          1           0       -8.504890   -2.104697    2.307384
     87          1           0       -8.560576   -3.765641   -0.523495
     88          1           0       -9.427639   -3.474989    0.962154
     89          1           0       -8.549161   -5.042584    0.622703
     90          1           0       -6.028518   -2.546642    4.064107
     91          1           0       -7.164032   -3.893439    3.898875
     92          1           0       -8.570127   -2.863514    5.454841
     93          1           0       -8.698513   -1.410045    4.489500
     94          1           0       -7.347995   -1.615359    5.525051
     95          1           0       -7.233593    2.659909    3.769163
     96          1           0       -6.023375    3.890418    4.117876
     97          1           0       -5.898285    2.292107    4.926147
     98          1           0       -1.617348    4.369072    1.121241
     99          1           0       -2.040696    6.425927   -2.442254
    100          1           0       -1.037289    7.674295   -1.615566
    101          1           0       -2.811658    7.612032   -1.331883
    102          1           0        5.096998    5.286574   -1.682221
    103          1           0        4.658948    3.729060   -2.577485
    104          1           0        6.448841    4.071029   -0.306640
    105          1           0        4.954966    0.135188   -0.424990
    106          1           0        3.730036    1.195309   -1.124004
    107          1           0        3.994534    1.056167    0.653084
    108          1           0        6.459901    0.946622    1.274074
    109          1           0        7.000031    2.574202    1.395990
    110          1           0        7.845104    2.049056   -0.962426
    111          1           0        7.783506    0.310889   -0.531584
    112          1           0        8.974901    1.183083    1.708203
    113          1           0        9.659722    2.440909    0.558113
    114          1           0        9.947422   -0.111769   -0.677620
    115          1           0       11.679056    1.077720   -1.337447
    116          1           0       12.486303    0.368960    0.018991
    117          1           0       11.837085    2.016911    0.126215
    118          1           0       10.587945   -0.372922    2.182087
    119          1           0       11.329892   -1.353776    0.856979
    120          1           0        9.479171   -2.748931    0.705698
    121          1           0        8.378034   -1.443361    0.732856
    122          1           0        9.269973   -1.445348    3.447294
    123          1           0        9.079895   -3.116125    2.966656
    124          1           0        6.767277   -1.391122    2.179708
    125          1           0        7.283638   -1.767970    5.069343
    126          1           0        5.867443   -1.044569    4.233757
    127          1           0        7.411804   -0.237449    4.054596
    128          1           0        5.784843   -3.414081    3.873253
    129          1           0        7.200434   -4.209351    3.352797
    130          1           0        5.456355   -2.896693    1.234256
    131          1           0        4.595557   -4.036475    2.285296
    132          1           0        5.325903   -5.748141    1.071828
    133          1           0        6.791939   -5.586636    1.861392
    134          1           0        7.376653   -3.958107   -0.229160
    135          1           0        6.007638   -4.453927   -2.349284
    136          1           0        5.144813   -3.507635   -1.172426
    137          1           0        4.792194   -5.198765   -1.435506
    138          1           0        7.584049   -6.063219   -1.766086
    139          1           0        7.272828   -6.928027   -0.261536
    140          1           0        8.606988   -5.751279   -0.305255
 ---------------------------------------------------------------------

 SCF Done:  E(RZINDO/S) =  -473.908558079     A.U. after   20 cycles

 Excitation energies and oscillator strengths:

 Excited State   1:      Singlet-A      1.2665 eV  978.97 nm  f=0.5631  <S**2>=0.000
     175 ->178         0.20955
     176 ->177         0.65722
 This state for optimization and/or second-order correction.
 Total Energy, E(CIS/TDA) =  -473.862016172
 Copying the excited state density for this state as the 1-particle RhoCI density.

 Excited State   2:      Singlet-A      1.9004 eV  652.41 nm  f=0.0122  <S**2>=0.000
     175 ->177         0.51358
     176 ->178        -0.46527

 Excited State   3:      Singlet-A      2.9234 eV  424.11 nm  f=0.0074  <S**2>=0.000
     169 ->179        -0.16470
     169 ->186        -0.10117
     170 ->177         0.31781
     170 ->178        -0.14894
     170 ->179        -0.23908
     170 ->180         0.19758
     170 ->181         0.28139
     170 ->182         0.13700
     170 ->184         0.15169
     170 ->186        -0.23025
     170 ->187        -0.11778

 Excited State   4:      Singlet-A      2.9334 eV  422.66 nm  f=0.0055  <S**2>=0.000
     169 ->177         0.29440
     169 ->179         0.37624
     169 ->180         0.11388
     169 ->181         0.16515
     169 ->182         0.19014
     169 ->184         0.13039
     169 ->186         0.15015
     169 ->187        -0.12018
     169 ->201        -0.11009
     170 ->179        -0.15481
     170 ->186        -0.10095
     172 ->177        -0.11128
     176 ->179        -0.13112

 Excited State   5:      Singlet-A      2.9846 eV  415.41 nm  f=0.0609  <S**2>=0.000
     176 ->178        -0.12674
     176 ->179        -0.29745
     176 ->180         0.54413
     176 ->181        -0.25175

 The electronic state is 1-A.
 Alpha  occ. eigenvalues --   -1.83445  -1.79828  -1.77909  -1.73686  -1.70228
 Alpha  occ. eigenvalues --   -1.69095  -1.65247  -1.59918  -1.59215  -1.58866
 Alpha  occ. eigenvalues --   -1.53251  -1.50691  -1.48469  -1.47417  -1.47105
 Alpha  occ. eigenvalues --   -1.44425  -1.42293  -1.39343  -1.38377  -1.37915
 Alpha  occ. eigenvalues --   -1.35420  -1.34437  -1.32211  -1.30452  -1.28354
 Alpha  occ. eigenvalues --   -1.27682  -1.26861  -1.22307  -1.21920  -1.18098
 Alpha  occ. eigenvalues --   -1.16615  -1.15434  -1.14978  -1.12709  -1.11979
 Alpha  occ. eigenvalues --   -1.11505  -1.10213  -1.09323  -1.04827  -1.04005
 Alpha  occ. eigenvalues --   -1.02982  -1.00807  -0.98272  -0.97679  -0.97180
 Alpha  occ. eigenvalues --   -0.96296  -0.94780  -0.94127  -0.93479  -0.92367
 Alpha  occ. eigenvalues --   -0.91696  -0.91545  -0.88966  -0.88043  -0.86563
 Alpha  occ. eigenvalues --   -0.85769  -0.84121  -0.83033  -0.82232  -0.79528
 Alpha  occ. eigenvalues --   -0.79002  -0.78588  -0.77743  -0.76700  -0.76536
 Alpha  occ. eigenvalues --   -0.76201  -0.75884  -0.75307  -0.73734  -0.73445
 Alpha  occ. eigenvalues --   -0.73129  -0.72420  -0.71640  -0.71257  -0.70709
 Alpha  occ. eigenvalues --   -0.70230  -0.69517  -0.68905  -0.68370  -0.67802
 Alpha  occ. eigenvalues --   -0.67387  -0.66746  -0.66466  -0.66208  -0.65897
 Alpha  occ. eigenvalues --   -0.65076  -0.64437  -0.64312  -0.64027  -0.63756
 Alpha  occ. eigenvalues --   -0.63613  -0.63082  -0.62682  -0.62543  -0.61987
 Alpha  occ. eigenvalues --   -0.61711  -0.61136  -0.60662  -0.60466  -0.59777
 Alpha  occ. eigenvalues --   -0.59706  -0.59539  -0.58803  -0.58256  -0.58183
 Alpha  occ. eigenvalues --   -0.57986  -0.57649  -0.57363  -0.56415  -0.56186
 Alpha  occ. eigenvalues --   -0.55877  -0.55605  -0.55477  -0.54966  -0.54798
 Alpha  occ. eigenvalues --   -0.54391  -0.54321  -0.54129  -0.53549  -0.53099
 Alpha  occ. eigenvalues --   -0.52886  -0.52560  -0.52451  -0.52413  -0.52122
 Alpha  occ. eigenvalues --   -0.51461  -0.51185  -0.51064  -0.50906  -0.50301
 Alpha  occ. eigenvalues --   -0.50043  -0.49849  -0.49724  -0.49609  -0.49234
 Alpha  occ. eigenvalues --   -0.49134  -0.48975  -0.48688  -0.48535  -0.48440
 Alpha  occ. eigenvalues --   -0.47975  -0.47373  -0.47068  -0.46861  -0.46583
 Alpha  occ. eigenvalues --   -0.46404  -0.46269  -0.46147  -0.45817  -0.45460
 Alpha  occ. eigenvalues --   -0.45417  -0.45185  -0.45060  -0.44637  -0.44201
 Alpha  occ. eigenvalues --   -0.44118  -0.43502  -0.43308  -0.42666  -0.42244
 Alpha  occ. eigenvalues --   -0.41727  -0.41610  -0.41342  -0.39706  -0.39110
 Alpha  occ. eigenvalues --   -0.38758  -0.37746  -0.35430  -0.35156  -0.34942
 Alpha  occ. eigenvalues --   -0.33353  -0.32839  -0.32632  -0.32063  -0.26601
 Alpha  occ. eigenvalues --   -0.21749
 Alpha virt. eigenvalues --   -0.08316  -0.02624  -0.00512   0.00733   0.01067
 Alpha virt. eigenvalues --    0.01783   0.01955   0.02971   0.04279   0.04622
 Alpha virt. eigenvalues --    0.06118   0.06845   0.07173   0.07665   0.08121

 Mulliken charges:
               1
     1  Mg   0.442162
     2  C   -0.056699
     3  C   -0.067490
     4  C   -0.101740
     5  C   -0.047910
     6  N   -0.261059
     7  C    0.106981
     8  C   -0.005036
     9  C   -0.006600
    10  C    0.140202
    11  C   -0.052304
    12  C   -0.015217
    13  C   -0.000701
    14  C    0.480605
    15  O   -0.505803
    16  O   -0.277239
    17  N   -0.316792
    18  C    0.098217
    19  C    0.041362
    20  C   -0.070788
    21  C    0.145895
    22  C   -0.033602
    23  C    0.329598
    24  O   -0.520674
    25  C   -0.030408
    26  N   -0.275832
    27  C    0.119578
    28  C   -0.000077
    29  C    0.007464
    30  C    0.108602
    31  C   -0.054951
    32  C   -0.020506
    33  C   -0.061333
    34  N   -0.321050
    35  C    0.082829
    36  C    0.033992
    37  C   -0.035988
    38  C    0.118883
    39  C   -0.031777
    40  C    0.342248
    41  O   -0.520092
    42  C    0.047853
    43  C    0.477967
    44  O   -0.524291
    45  O   -0.276992
    46  C    0.071281
    47  C    0.105530
    48  C   -0.089425
    49  C    0.001710
    50  C   -0.045558
    51  C   -0.030686
    52  C   -0.039088
    53  C   -0.025952
    54  C   -0.023495
    55  C   -0.066311
    56  C   -0.033778
    57  C   -0.033160
    58  C   -0.037178
    59  C   -0.019555
    60  C   -0.056474
    61  C   -0.037547
    62  C   -0.035529
    63  C   -0.034708
    64  C   -0.012095
    65  C   -0.049726
    66  C   -0.066173
    67  H    0.030361
    68  H    0.025602
    69  H    0.015838
    70  H    0.046077
    71  H    0.028713
    72  H    0.025544
    73  H    0.020151
    74  H    0.030593
    75  H    0.030228
    76  H    0.032650
    77  H    0.030548
    78  H    0.040005
    79  H    0.039899
    80  H    0.018676
    81  H    0.044350
    82  H    0.030643
    83  H    0.031801
    84  H    0.033587
    85  H    0.027707
    86  H    0.036606
    87  H    0.023613
    88  H    0.026717
    89  H    0.020573
    90  H    0.030860
    91  H    0.019540
    92  H    0.020292
    93  H    0.022414
    94  H    0.010531
    95  H    0.032536
    96  H    0.033069
    97  H    0.034915
    98  H    0.059941
    99  H    0.045940
   100  H    0.040535
   101  H    0.049608
   102  H    0.040321
   103  H    0.060574
   104  H    0.027286
   105  H    0.027411
   106  H    0.029149
   107  H    0.025075
   108  H    0.005242
   109  H    0.021182
   110  H    0.023349
   111  H    0.029992
   112  H    0.024907
   113  H    0.029860
   114  H    0.011687
   115  H    0.016173
   116  H    0.016469
   117  H    0.019371
   118  H    0.022114
   119  H    0.019831
   120  H    0.023037
   121  H    0.018986
   122  H    0.025717
   123  H    0.014644
   124  H    0.022469
   125  H    0.023922
   126  H    0.011031
   127  H    0.013377
   128  H    0.009335
   129  H    0.027392
   130  H    0.026953
   131  H    0.015612
   132  H    0.006759
   133  H    0.026007
   134  H    0.015646
   135  H    0.016678
   136  H    0.010861
   137  H    0.020086
   138  H    0.019182
   139  H    0.019294
   140  H    0.018789
 Sum of Mulliken charges =  -0.00000

 Dipole moment (field-independent basis, Debye):
    X=              0.6785    Y=             -3.8282    Z=              4.1089  Tot=              5.6567
 N-N= 4.494385091385D+03 E-N= 0.000000000000D+00  KE=-9.662356318602D+03
 Leave Link  601 at Wed May  4 11:58:13 2022, MaxMem=  6710886400 cpu:               0.8 elap:               0.0
 (Enter /sw/apps/gaussian-16.0/g16/l9999.exe)
 1\1\GINC-BP1-COMPUTE096\SP\RZINDO CIS\STO-3G\C55H74Mg1N4O6\OF15641\04-
 May-2022\0\\#p ZINDO=(nstates=5)\\step_1651_chromophore_23 ZINDO\\0,1\
 Mg,0,-9.952,40.315,41.482\C,0,-8.843,37.061,40.55\C,0,-7.351,41.494,39
 .485\C,0,-11.287,43.342,41.772\C,0,-12.928,38.818,42.612\N,0,-8.224,39
 .346,40.17\C,0,-7.959,38.039,40.022\C,0,-6.653,37.799,39.133\C,0,-6.12
 8,39.304,39.035\C,0,-7.33,40.116,39.615\C,0,-4.832,39.701,39.789\C,0,-
 7.,37.118,37.738\C,0,-6.001,35.982,37.396\C,0,-4.821,36.267,36.436\O,0

 Normal termination of Gaussian 16 at Wed May  4 11:58:13 2022.
