 Gaussian 16, Revision A.03,
 Gaussian 16:  ES64L-G16RevA.03 25-Dec-2016

 ------------------------------
 #p blyp/Def2SVP td=(nstates=5)
 ------------------------------

 --------------------------------------------------
 step_1801_chromophore_2 TDDFT with blyp functional
 --------------------------------------------------
 Symbolic Z-matrix:
 Charge =  0 Multiplicity = 1

                         Standard orientation:
 ---------------------------------------------------------------------
 Center     Atomic      Atomic             Coordinates (Angstroms)
 Number     Number       Type             X           Y           Z
 ---------------------------------------------------------------------
      1         12           0        4.020180    1.120243   -0.219519
      2          6           0        3.781716   -2.241295   -1.084467
      3          6           0        1.907659    1.795516   -2.915587
      4          6           0        3.879625    4.194044    0.785228
      5          6           0        6.045002    0.156369    2.442065
      6          7           0        2.987547   -0.128305   -1.713204
      7          6           0        3.020833   -1.466059   -1.925526
      8          6           0        2.056743   -2.007185   -2.970052
      9          6           0        1.629052   -0.665749   -3.705036
     10          6           0        2.257215    0.442063   -2.729774
     11          6           0        2.137677   -0.481105   -5.103496
     12          6           0        0.820121   -2.977273   -2.695269
     13          6           0        0.285156   -3.007789   -1.238707
     14          6           0       -1.178947   -2.887901   -1.022090
     15          8           0       -2.030028   -3.576337   -1.630119
     16          8           0       -1.480862   -1.894315   -0.103440
     17          7           0        3.063726    2.825504   -0.989740
     18          6           0        2.261192    2.924930   -2.099552
     19          6           0        1.685923    4.183945   -2.203299
     20          6           0        2.407325    4.951806   -1.200486
     21          6           0        3.164163    4.012745   -0.438710
     22          6           0        0.949216    4.601035   -3.395533
     23          6           0        2.130523    6.408175   -0.947085
     24          8           0        1.258006    7.023967   -1.648196
     25          6           0        2.863167    7.180072    0.173296
     26          7           0        4.772544    2.051470    1.429041
     27          6           0        4.596557    3.350956    1.577448
     28          6           0        5.216841    3.828692    2.946904
     29          6           0        5.793875    2.500133    3.517935
     30          6           0        5.498485    1.483119    2.420819
     31          6           0        6.164266    5.113398    2.962063
     32          6           0        5.351555    2.069338    4.999787
     33          6           0        6.427624    2.058939    6.091711
     34          7           0        4.961610   -0.673319    0.514436
     35          6           0        5.763333   -0.882258    1.561112
     36          6           0        6.040774   -2.281580    1.660251
     37          6           0        5.299551   -2.882186    0.692624
     38          6           0        4.665721   -1.847523   -0.005314
     39          6           0        6.833388   -2.950457    2.632527
     40          6           0        4.993980   -4.065233    0.051774
     41          8           0        5.465681   -5.194818    0.262682
     42          6           0        3.951049   -3.739855   -1.099373
     43          6           0        4.493925   -4.343110   -2.315410
     44          8           0        3.772063   -4.986938   -3.119364
     45          8           0        5.806367   -4.083505   -2.512616
     46          6           0        6.363033   -4.744372   -3.801890
     47          6           0       -2.868985   -1.428877   -0.010079
     48          6           0       -3.684817   -2.543709    0.651296
     49          6           0       -3.881916   -2.804478    1.980889
     50          6           0       -3.121114   -2.027076    3.063737
     51          6           0       -4.571024   -4.066210    2.461778
     52          6           0       -5.937194   -3.954411    2.946772
     53          6           0       -7.093082   -4.433815    2.041347
     54          6           0       -8.373858   -3.576155    2.105934
     55          6           0       -9.657373   -4.462543    2.216339
     56          6           0       -8.535128   -2.683516    0.814046
     57          6           0       -9.075585   -1.305816    1.179257
     58          6           0       -8.033433   -0.288888    1.632459
     59          6           0       -7.467329    0.632757    0.485928
     60          6           0       -5.973571    0.498345    0.403568
     61          6           0       -7.847131    2.167357    0.734328
     62          6           0       -8.208018    3.008332   -0.584774
     63          6           0       -9.494974    3.795918   -0.402899
     64          6           0      -10.575562    3.758979   -1.626381
     65          6           0      -10.255577    4.809237   -2.687400
     66          6           0      -11.967159    3.921611   -1.035460
     67          1           0        1.357228    1.846779   -3.856116
     68          1           0        3.882850    5.157105    1.299664
     69          1           0        6.616601   -0.168962    3.313836
     70          1           0        2.563088   -2.772142   -3.558459
     71          1           0        0.540215   -0.651285   -3.752911
     72          1           0        2.590935    0.506589   -5.185593
     73          1           0        1.235520   -0.544429   -5.710965
     74          1           0        2.723382   -1.338231   -5.434820
     75          1           0        1.050843   -4.035607   -2.813546
     76          1           0        0.096633   -2.793187   -3.489472
     77          1           0        0.740133   -2.252026   -0.599378
     78          1           0        0.420706   -4.037527   -0.906094
     79          1           0       -0.104380    4.819047   -3.219477
     80          1           0        0.948480    3.762107   -4.091420
     81          1           0        1.310966    5.466470   -3.951760
     82          1           0        3.911930    6.883541    0.144459
     83          1           0        2.357206    7.158283    1.138585
     84          1           0        2.981745    8.235728   -0.073829
     85          1           0        4.348184    4.071446    3.559261
     86          1           0        6.869119    2.678723    3.542577
     87          1           0        7.138741    4.752745    3.290430
     88          1           0        5.796183    5.829274    3.695917
     89          1           0        6.220350    5.384252    1.907335
     90          1           0        5.043721    1.024251    4.946992
     91          1           0        4.554597    2.754291    5.288895
     92          1           0        7.395237    2.307400    5.656228
     93          1           0        6.456065    1.206242    6.770695
     94          1           0        6.197895    2.973982    6.637689
     95          1           0        6.130627   -3.596209    3.159364
     96          1           0        7.271626   -2.225341    3.317786
     97          1           0        7.689858   -3.546563    2.317600
     98          1           0        2.959443   -4.107277   -0.833725
     99          1           0        5.798196   -4.399357   -4.668578
    100          1           0        6.344082   -5.832082   -3.732768
    101          1           0        7.402809   -4.431510   -3.895530
    102          1           0       -3.284711   -1.198549   -0.991239
    103          1           0       -2.848954   -0.496187    0.553967
    104          1           0       -4.331187   -3.091664   -0.033150
    105          1           0       -2.370081   -1.338795    2.676493
    106          1           0       -2.866320   -2.657153    3.914391
    107          1           0       -3.918406   -1.378678    3.427374
    108          1           0       -3.958506   -4.354942    3.314839
    109          1           0       -4.424206   -4.839048    1.707138
    110          1           0       -6.009434   -2.906465    3.239546
    111          1           0       -6.041602   -4.571938    3.838306
    112          1           0       -7.444273   -5.381005    2.451552
    113          1           0       -6.710508   -4.544105    1.026301
    114          1           0       -8.398257   -2.961531    3.005677
    115          1           0       -9.980808   -4.579882    3.250999
    116          1           0       -9.542546   -5.453310    1.775910
    117          1           0      -10.445840   -3.928845    1.685337
    118          1           0       -9.197857   -3.163131    0.095059
    119          1           0       -7.513786   -2.560658    0.451764
    120          1           0       -9.896345   -1.370696    1.893634
    121          1           0       -9.596803   -1.017916    0.265993
    122          1           0       -7.186724   -0.858300    2.014351
    123          1           0       -8.470044    0.321603    2.423120
    124          1           0       -7.864546    0.418841   -0.506008
    125          1           0       -5.645087   -0.194628   -0.371022
    126          1           0       -5.506285    0.182565    1.337184
    127          1           0       -5.647747    1.510273    0.164785
    128          1           0       -7.116269    2.822064    1.207147
    129          1           0       -8.670848    2.170530    1.448794
    130          1           0       -8.176004    2.328262   -1.435970
    131          1           0       -7.383575    3.699109   -0.758052
    132          1           0       -9.356695    4.876708   -0.428859
    133          1           0       -9.865332    3.486940    0.574790
    134          1           0      -10.442455    2.821034   -2.163483
    135          1           0      -10.730763    4.602997   -3.646066
    136          1           0       -9.172125    4.696511   -2.738971
    137          1           0      -10.420537    5.790883   -2.242545
    138          1           0      -12.561617    3.010596   -1.084711
    139          1           0      -12.484447    4.731454   -1.550360
    140          1           0      -12.036157    4.207413    0.014600
 ---------------------------------------------------------------------

 SCF Done:  E(RB-LYP) =  -3007.32436484     A.U. after   21 cycles

 Excitation energies and oscillator strengths:

 Excited State   1:      Singlet-A      1.4732 eV  841.59 nm  f=0.0011  <S**2>=0.000
     244 -> 247        0.31912
     245 -> 247        0.62868
 This state for optimization and/or second-order correction.
 Total Energy, E(TD-HF/TD-DFT) =  -3007.27022533
 Copying the excited state density for this state as the 1-particle RhoCI density.

 Excited State   2:      Singlet-A      1.6790 eV  738.46 nm  f=0.0026  <S**2>=0.000
     243 -> 247        0.67805
     244 -> 247       -0.16767

 Excited State   3:      Singlet-A      1.8091 eV  685.34 nm  f=0.2941  <S**2>=0.000
     244 -> 248        0.13900
     246 -> 247        0.68818
     246 <- 247       -0.15661

 Excited State   4:      Singlet-A      1.9037 eV  651.30 nm  f=0.0013  <S**2>=0.000
     242 -> 247        0.70509

 Excited State   5:      Singlet-A      1.9967 eV  620.95 nm  f=0.1400  <S**2>=0.000
     240 -> 247        0.10777
     243 -> 247        0.17809
     244 -> 247        0.56916
     245 -> 247       -0.28504
     246 -> 248       -0.18057
     246 -> 249       -0.10261

 The electronic state is 1-A.
 Alpha  occ. eigenvalues --  -46.27792 -18.83106 -18.81495 -18.76280 -18.75972
 Alpha  occ. eigenvalues --  -18.75396 -18.74780 -14.04127 -14.03795 -14.01299
 Alpha  occ. eigenvalues --  -14.00900 -10.04073 -10.03555  -9.99634  -9.99099
 Alpha  occ. eigenvalues --   -9.98770  -9.97928  -9.97703  -9.97101  -9.97029
 Alpha  occ. eigenvalues --   -9.96762  -9.96100  -9.95473  -9.95452  -9.94835
 Alpha  occ. eigenvalues --   -9.94442  -9.94290  -9.94223  -9.94205  -9.93876
 Alpha  occ. eigenvalues --   -9.93785  -9.93674  -9.93647  -9.93577  -9.93560
 Alpha  occ. eigenvalues --   -9.93531  -9.93312  -9.93119  -9.92942  -9.92782
 Alpha  occ. eigenvalues --   -9.92740  -9.92434  -9.92419  -9.92246  -9.92173
 Alpha  occ. eigenvalues --   -9.92004  -9.91961  -9.91854  -9.91782  -9.91396
 Alpha  occ. eigenvalues --   -9.91371  -9.91078  -9.91071  -9.91051  -9.91037
 Alpha  occ. eigenvalues --   -9.90959  -9.90880  -9.90847  -9.90708  -9.90708
 Alpha  occ. eigenvalues --   -9.90646  -9.90462  -9.90457  -9.90305  -9.90285
 Alpha  occ. eigenvalues --   -9.90153  -2.92439  -1.72882  -1.72302  -1.72159
 Alpha  occ. eigenvalues --   -0.97233  -0.96199  -0.90361  -0.88643  -0.88206
 Alpha  occ. eigenvalues --   -0.88181  -0.88105  -0.87719  -0.87138  -0.86194
 Alpha  occ. eigenvalues --   -0.76441  -0.73610  -0.73036  -0.72728  -0.72452
 Alpha  occ. eigenvalues --   -0.72356  -0.72220  -0.71478  -0.71411  -0.70547
 Alpha  occ. eigenvalues --   -0.70183  -0.69446  -0.68382  -0.68108  -0.67620
 Alpha  occ. eigenvalues --   -0.66784  -0.66331  -0.65355  -0.65214  -0.64835
 Alpha  occ. eigenvalues --   -0.64329  -0.63019  -0.62671  -0.62085  -0.61322
 Alpha  occ. eigenvalues --   -0.60724  -0.60125  -0.60072  -0.59210  -0.59016
 Alpha  occ. eigenvalues --   -0.58360  -0.58041  -0.57114  -0.56218  -0.55101
 Alpha  occ. eigenvalues --   -0.54889  -0.53324  -0.52952  -0.52379  -0.51962
 Alpha  occ. eigenvalues --   -0.51666  -0.51223  -0.51149  -0.50659  -0.49763
 Alpha  occ. eigenvalues --   -0.49175  -0.48900  -0.48670  -0.48128  -0.47529
 Alpha  occ. eigenvalues --   -0.46971  -0.46169  -0.45667  -0.45154  -0.44609
 Alpha  occ. eigenvalues --   -0.44168  -0.44129  -0.43295  -0.42679  -0.42507
 Alpha  occ. eigenvalues --   -0.42342  -0.41929  -0.41691  -0.41493  -0.41471
 Alpha  occ. eigenvalues --   -0.41001  -0.40889  -0.40843  -0.40400  -0.40132
 Alpha  occ. eigenvalues --   -0.39978  -0.39636  -0.39583  -0.39304  -0.39047
 Alpha  occ. eigenvalues --   -0.38957  -0.38863  -0.38751  -0.38555  -0.38295
 Alpha  occ. eigenvalues --   -0.38148  -0.37890  -0.37850  -0.37763  -0.37514
 Alpha  occ. eigenvalues --   -0.37265  -0.37115  -0.36882  -0.36590  -0.36328
 Alpha  occ. eigenvalues --   -0.36255  -0.36169  -0.36031  -0.35879  -0.35603
 Alpha  occ. eigenvalues --   -0.35433  -0.35374  -0.35199  -0.34998  -0.34772
 Alpha  occ. eigenvalues --   -0.34448  -0.34349  -0.34263  -0.34110  -0.33985
 Alpha  occ. eigenvalues --   -0.33858  -0.33778  -0.33698  -0.33508  -0.33409
 Alpha  occ. eigenvalues --   -0.33213  -0.33023  -0.32837  -0.32559  -0.32284
 Alpha  occ. eigenvalues --   -0.32136  -0.31971  -0.31598  -0.31333  -0.31177
 Alpha  occ. eigenvalues --   -0.30917  -0.30835  -0.30632  -0.30550  -0.30442
 Alpha  occ. eigenvalues --   -0.30180  -0.29892  -0.29812  -0.29679  -0.29485
 Alpha  occ. eigenvalues --   -0.29439  -0.29167  -0.29063  -0.29034  -0.28752
 Alpha  occ. eigenvalues --   -0.28692  -0.28351  -0.28162  -0.27953  -0.27878
 Alpha  occ. eigenvalues --   -0.27424  -0.27364  -0.27101  -0.26888  -0.26658
 Alpha  occ. eigenvalues --   -0.26495  -0.26215  -0.26188  -0.25336  -0.25310
 Alpha  occ. eigenvalues --   -0.24897  -0.24551  -0.24087  -0.24061  -0.23534
 Alpha  occ. eigenvalues --   -0.23313  -0.22578  -0.21452  -0.21218  -0.21184
 Alpha  occ. eigenvalues --   -0.20396  -0.19490  -0.18585  -0.17913  -0.17804
 Alpha  occ. eigenvalues --   -0.16678
 Alpha virt. eigenvalues --   -0.12495  -0.07209  -0.06350  -0.05050  -0.03209
 Alpha virt. eigenvalues --   -0.02959  -0.02583  -0.02306  -0.01627  -0.00631
 Alpha virt. eigenvalues --    0.00537   0.01016   0.02116   0.02360   0.02748

 Mulliken charges:
               1
     1  Mg   0.699592
     2  C   -0.000686
     3  C   -0.046164
     4  C   -0.037443
     5  C   -0.081157
     6  N   -0.209454
     7  C   -0.081873
     8  C    0.048260
     9  C   -0.041454
    10  C    0.003338
    11  C    0.148887
    12  C    0.092489
    13  C    0.126617
    14  C    0.052537
    15  O   -0.222295
    16  O   -0.278162
    17  N   -0.250099
    18  C    0.146791
    19  C   -0.109779
    20  C    0.026697
    21  C    0.163129
    22  C    0.194470
    23  C   -0.071518
    24  O   -0.218041
    25  C    0.133834
    26  N   -0.227449
    27  C   -0.047958
    28  C   -0.026473
    29  C    0.028736
    30  C    0.028736
    31  C    0.148744
    32  C    0.087985
    33  C    0.060399
    34  N   -0.175042
    35  C    0.091910
    36  C   -0.161875
    37  C    0.201095
    38  C   -0.006916
    39  C    0.167548
    40  C   -0.117833
    41  O   -0.153455
    42  C    0.119441
    43  C    0.128929
    44  O   -0.228318
    45  O   -0.271918
    46  C    0.222257
    47  C    0.332427
    48  C   -0.113388
    49  C   -0.177250
    50  C    0.152281
    51  C    0.150658
    52  C    0.089081
    53  C    0.155947
    54  C   -0.111175
    55  C    0.097291
    56  C    0.101882
    57  C    0.062268
    58  C    0.141676
    59  C   -0.059673
    60  C    0.097171
    61  C    0.040702
    62  C    0.075790
    63  C    0.066395
    64  C   -0.102681
    65  C    0.112147
    66  C    0.121403
    67  H   -0.053592
    68  H   -0.081298
    69  H   -0.063994
    70  H   -0.014422
    71  H   -0.009704
    72  H    0.004388
    73  H   -0.018631
    74  H   -0.004447
    75  H   -0.005554
    76  H   -0.010091
    77  H    0.008084
    78  H    0.018373
    79  H   -0.005279
    80  H   -0.040786
    81  H    0.004253
    82  H   -0.000917
    83  H    0.023770
    84  H   -0.017572
    85  H   -0.021238
    86  H   -0.027369
    87  H   -0.015788
    88  H    0.004435
    89  H    0.006318
    90  H   -0.012655
    91  H   -0.016448
    92  H   -0.015399
    93  H    0.010594
    94  H   -0.018019
    95  H    0.013945
    96  H   -0.035167
    97  H    0.011735
    98  H   -0.010696
    99  H    0.025620
   100  H    0.035324
   101  H    0.017619
   102  H   -0.006846
   103  H   -0.002867
   104  H   -0.026216
   105  H    0.001979
   106  H   -0.007321
   107  H   -0.012519
   108  H   -0.048967
   109  H   -0.021840
   110  H   -0.032504
   111  H   -0.039298
   112  H   -0.045210
   113  H   -0.025109
   114  H   -0.035690
   115  H   -0.020866
   116  H   -0.012079
   117  H   -0.023815
   118  H   -0.029641
   119  H   -0.032555
   120  H   -0.043591
   121  H   -0.043423
   122  H   -0.034149
   123  H   -0.033051
   124  H   -0.031000
   125  H   -0.012721
   126  H   -0.007065
   127  H   -0.026185
   128  H   -0.029212
   129  H   -0.030916
   130  H   -0.026809
   131  H   -0.030249
   132  H   -0.036528
   133  H   -0.023006
   134  H   -0.038376
   135  H    0.002176
   136  H   -0.024347
   137  H   -0.014678
   138  H   -0.016722
   139  H   -0.031635
   140  H   -0.022551
 Sum of Mulliken charges =  -0.00000

 Dipole moment (field-independent basis, Debye):
    X=              3.3293    Y=              2.4815    Z=              3.2244  Tot=              5.2572
 Quadrupole moment (field-independent basis, Debye-Ang):
   XX=           -377.9571   YY=           -460.0245   ZZ=           -377.3537
   XY=             20.0541   XZ=             -0.0541   YZ=             14.8384

 Normal termination of Gaussian 16 at Wed May  4 14:52:56 2022.
