 Gaussian 16, Revision A.03,
 Gaussian 16:  ES64L-G16RevA.03 25-Dec-2016

 -----------------------------------
 #p cam-b3lyp/Def2SVP td=(nstates=5)
 -----------------------------------

 -------------------------------------------------------
 step_1801_chromophore_2 TDDFT with cam-b3lyp functional
 -------------------------------------------------------
 Symbolic Z-matrix:
 Charge =  0 Multiplicity = 1

                         Standard orientation:
 ---------------------------------------------------------------------
 Center     Atomic      Atomic             Coordinates (Angstroms)
 Number     Number       Type             X           Y           Z
 ---------------------------------------------------------------------
      1         12           0        4.020180    1.120243   -0.219519
      2          6           0        3.781716   -2.241295   -1.084467
      3          6           0        1.907659    1.795516   -2.915587
      4          6           0        3.879625    4.194044    0.785228
      5          6           0        6.045002    0.156369    2.442065
      6          7           0        2.987547   -0.128305   -1.713204
      7          6           0        3.020833   -1.466059   -1.925526
      8          6           0        2.056743   -2.007185   -2.970052
      9          6           0        1.629052   -0.665749   -3.705036
     10          6           0        2.257215    0.442063   -2.729774
     11          6           0        2.137677   -0.481105   -5.103496
     12          6           0        0.820121   -2.977273   -2.695269
     13          6           0        0.285156   -3.007789   -1.238707
     14          6           0       -1.178947   -2.887901   -1.022090
     15          8           0       -2.030028   -3.576337   -1.630119
     16          8           0       -1.480862   -1.894315   -0.103440
     17          7           0        3.063726    2.825504   -0.989740
     18          6           0        2.261192    2.924930   -2.099552
     19          6           0        1.685923    4.183945   -2.203299
     20          6           0        2.407325    4.951806   -1.200486
     21          6           0        3.164163    4.012745   -0.438710
     22          6           0        0.949216    4.601035   -3.395533
     23          6           0        2.130523    6.408175   -0.947085
     24          8           0        1.258006    7.023967   -1.648196
     25          6           0        2.863167    7.180072    0.173296
     26          7           0        4.772544    2.051470    1.429041
     27          6           0        4.596557    3.350956    1.577448
     28          6           0        5.216841    3.828692    2.946904
     29          6           0        5.793875    2.500133    3.517935
     30          6           0        5.498485    1.483119    2.420819
     31          6           0        6.164266    5.113398    2.962063
     32          6           0        5.351555    2.069338    4.999787
     33          6           0        6.427624    2.058939    6.091711
     34          7           0        4.961610   -0.673319    0.514436
     35          6           0        5.763333   -0.882258    1.561112
     36          6           0        6.040774   -2.281580    1.660251
     37          6           0        5.299551   -2.882186    0.692624
     38          6           0        4.665721   -1.847523   -0.005314
     39          6           0        6.833388   -2.950457    2.632527
     40          6           0        4.993980   -4.065233    0.051774
     41          8           0        5.465681   -5.194818    0.262682
     42          6           0        3.951049   -3.739855   -1.099373
     43          6           0        4.493925   -4.343110   -2.315410
     44          8           0        3.772063   -4.986938   -3.119364
     45          8           0        5.806367   -4.083505   -2.512616
     46          6           0        6.363033   -4.744372   -3.801890
     47          6           0       -2.868985   -1.428877   -0.010079
     48          6           0       -3.684817   -2.543709    0.651296
     49          6           0       -3.881916   -2.804478    1.980889
     50          6           0       -3.121114   -2.027076    3.063737
     51          6           0       -4.571024   -4.066210    2.461778
     52          6           0       -5.937194   -3.954411    2.946772
     53          6           0       -7.093082   -4.433815    2.041347
     54          6           0       -8.373858   -3.576155    2.105934
     55          6           0       -9.657373   -4.462543    2.216339
     56          6           0       -8.535128   -2.683516    0.814046
     57          6           0       -9.075585   -1.305816    1.179257
     58          6           0       -8.033433   -0.288888    1.632459
     59          6           0       -7.467329    0.632757    0.485928
     60          6           0       -5.973571    0.498345    0.403568
     61          6           0       -7.847131    2.167357    0.734328
     62          6           0       -8.208018    3.008332   -0.584774
     63          6           0       -9.494974    3.795918   -0.402899
     64          6           0      -10.575562    3.758979   -1.626381
     65          6           0      -10.255577    4.809237   -2.687400
     66          6           0      -11.967159    3.921611   -1.035460
     67          1           0        1.357228    1.846779   -3.856116
     68          1           0        3.882850    5.157105    1.299664
     69          1           0        6.616601   -0.168962    3.313836
     70          1           0        2.563088   -2.772142   -3.558459
     71          1           0        0.540215   -0.651285   -3.752911
     72          1           0        2.590935    0.506589   -5.185593
     73          1           0        1.235520   -0.544429   -5.710965
     74          1           0        2.723382   -1.338231   -5.434820
     75          1           0        1.050843   -4.035607   -2.813546
     76          1           0        0.096633   -2.793187   -3.489472
     77          1           0        0.740133   -2.252026   -0.599378
     78          1           0        0.420706   -4.037527   -0.906094
     79          1           0       -0.104380    4.819047   -3.219477
     80          1           0        0.948480    3.762107   -4.091420
     81          1           0        1.310966    5.466470   -3.951760
     82          1           0        3.911930    6.883541    0.144459
     83          1           0        2.357206    7.158283    1.138585
     84          1           0        2.981745    8.235728   -0.073829
     85          1           0        4.348184    4.071446    3.559261
     86          1           0        6.869119    2.678723    3.542577
     87          1           0        7.138741    4.752745    3.290430
     88          1           0        5.796183    5.829274    3.695917
     89          1           0        6.220350    5.384252    1.907335
     90          1           0        5.043721    1.024251    4.946992
     91          1           0        4.554597    2.754291    5.288895
     92          1           0        7.395237    2.307400    5.656228
     93          1           0        6.456065    1.206242    6.770695
     94          1           0        6.197895    2.973982    6.637689
     95          1           0        6.130627   -3.596209    3.159364
     96          1           0        7.271626   -2.225341    3.317786
     97          1           0        7.689858   -3.546563    2.317600
     98          1           0        2.959443   -4.107277   -0.833725
     99          1           0        5.798196   -4.399357   -4.668578
    100          1           0        6.344082   -5.832082   -3.732768
    101          1           0        7.402809   -4.431510   -3.895530
    102          1           0       -3.284711   -1.198549   -0.991239
    103          1           0       -2.848954   -0.496187    0.553967
    104          1           0       -4.331187   -3.091664   -0.033150
    105          1           0       -2.370081   -1.338795    2.676493
    106          1           0       -2.866320   -2.657153    3.914391
    107          1           0       -3.918406   -1.378678    3.427374
    108          1           0       -3.958506   -4.354942    3.314839
    109          1           0       -4.424206   -4.839048    1.707138
    110          1           0       -6.009434   -2.906465    3.239546
    111          1           0       -6.041602   -4.571938    3.838306
    112          1           0       -7.444273   -5.381005    2.451552
    113          1           0       -6.710508   -4.544105    1.026301
    114          1           0       -8.398257   -2.961531    3.005677
    115          1           0       -9.980808   -4.579882    3.250999
    116          1           0       -9.542546   -5.453310    1.775910
    117          1           0      -10.445840   -3.928845    1.685337
    118          1           0       -9.197857   -3.163131    0.095059
    119          1           0       -7.513786   -2.560658    0.451764
    120          1           0       -9.896345   -1.370696    1.893634
    121          1           0       -9.596803   -1.017916    0.265993
    122          1           0       -7.186724   -0.858300    2.014351
    123          1           0       -8.470044    0.321603    2.423120
    124          1           0       -7.864546    0.418841   -0.506008
    125          1           0       -5.645087   -0.194628   -0.371022
    126          1           0       -5.506285    0.182565    1.337184
    127          1           0       -5.647747    1.510273    0.164785
    128          1           0       -7.116269    2.822064    1.207147
    129          1           0       -8.670848    2.170530    1.448794
    130          1           0       -8.176004    2.328262   -1.435970
    131          1           0       -7.383575    3.699109   -0.758052
    132          1           0       -9.356695    4.876708   -0.428859
    133          1           0       -9.865332    3.486940    0.574790
    134          1           0      -10.442455    2.821034   -2.163483
    135          1           0      -10.730763    4.602997   -3.646066
    136          1           0       -9.172125    4.696511   -2.738971
    137          1           0      -10.420537    5.790883   -2.242545
    138          1           0      -12.561617    3.010596   -1.084711
    139          1           0      -12.484447    4.731454   -1.550360
    140          1           0      -12.036157    4.207413    0.014600
 ---------------------------------------------------------------------

 SCF Done:  E(RCAM-B3LYP) =  -3007.12011482     A.U. after   18 cycles

 Excitation energies and oscillator strengths:

 Excited State   1:      Singlet-A      1.7070 eV  726.33 nm  f=0.4035  <S**2>=0.000
     245 -> 248       -0.16206
     246 -> 247        0.68920
     245 <- 248       -0.10174
 This state for optimization and/or second-order correction.
 Total Energy, E(TD-HF/TD-DFT) =  -3007.05738425
 Copying the excited state density for this state as the 1-particle RhoCI density.

 Excited State   2:      Singlet-A      2.1822 eV  568.17 nm  f=0.1769  <S**2>=0.000
     245 -> 247        0.66157
     246 -> 248        0.23237

 Excited State   3:      Singlet-A      3.1091 eV  398.77 nm  f=0.0085  <S**2>=0.000
     242 -> 250       -0.11907
     243 -> 247        0.66624

 Excited State   4:      Singlet-A      3.2643 eV  379.82 nm  f=0.0004  <S**2>=0.000
     240 -> 247        0.27995
     240 -> 249       -0.16158
     241 -> 247        0.28025
     241 -> 249       -0.11990
     242 -> 247        0.42414
     242 -> 248       -0.11632
     242 -> 249        0.14813
     242 -> 250        0.17488

 Excited State   5:      Singlet-A      3.2690 eV  379.27 nm  f=0.0013  <S**2>=0.000
     240 -> 247        0.37648
     240 -> 249       -0.19127
     241 -> 247        0.23456
     241 -> 249       -0.10341
     242 -> 247       -0.37632
     242 -> 248        0.10715
     242 -> 249       -0.14211
     242 -> 250       -0.15495

 The electronic state is 1-A.
 Alpha  occ. eigenvalues --  -46.89349 -19.26111 -19.24325 -19.19366 -19.18878
 Alpha  occ. eigenvalues --  -19.18733 -19.17839 -14.43064 -14.42657 -14.39634
 Alpha  occ. eigenvalues --  -14.39407 -10.39538 -10.38881 -10.34811 -10.34579
 Alpha  occ. eigenvalues --  -10.32951 -10.32342 -10.32058 -10.31688 -10.31430
 Alpha  occ. eigenvalues --  -10.31130 -10.30322 -10.29854 -10.29481 -10.29336
 Alpha  occ. eigenvalues --  -10.28465 -10.28307 -10.28265 -10.28253 -10.28224
 Alpha  occ. eigenvalues --  -10.28197 -10.27960 -10.27917 -10.27667 -10.27604
 Alpha  occ. eigenvalues --  -10.27384 -10.27356 -10.27222 -10.27002 -10.26918
 Alpha  occ. eigenvalues --  -10.26844 -10.26478 -10.26109 -10.26062 -10.26052
 Alpha  occ. eigenvalues --  -10.25782 -10.25590 -10.25587 -10.25517 -10.25127
 Alpha  occ. eigenvalues --  -10.25012 -10.24967 -10.24771 -10.24714 -10.24707
 Alpha  occ. eigenvalues --  -10.24619 -10.24583 -10.24489 -10.24438 -10.24354
 Alpha  occ. eigenvalues --  -10.24292 -10.24282 -10.24062 -10.24049 -10.23864
 Alpha  occ. eigenvalues --  -10.23708  -3.17903  -1.92822  -1.92352  -1.92209
 Alpha  occ. eigenvalues --   -1.15744  -1.14544  -1.08847  -1.06566  -1.06243
 Alpha  occ. eigenvalues --   -1.06014  -1.05969  -1.05506  -1.04739  -1.03820
 Alpha  occ. eigenvalues --   -0.93758  -0.90480  -0.89808  -0.89469  -0.89213
 Alpha  occ. eigenvalues --   -0.89186  -0.88877  -0.88146  -0.88021  -0.87105
 Alpha  occ. eigenvalues --   -0.86651  -0.85850  -0.84669  -0.84362  -0.83808
 Alpha  occ. eigenvalues --   -0.82925  -0.82420  -0.81181  -0.81131  -0.80860
 Alpha  occ. eigenvalues --   -0.80132  -0.78717  -0.78236  -0.77673  -0.76828
 Alpha  occ. eigenvalues --   -0.76035  -0.75455  -0.75439  -0.74372  -0.74277
 Alpha  occ. eigenvalues --   -0.73444  -0.73204  -0.71993  -0.71080  -0.69829
 Alpha  occ. eigenvalues --   -0.69567  -0.67846  -0.67430  -0.66481  -0.66296
 Alpha  occ. eigenvalues --   -0.65759  -0.65336  -0.65271  -0.64830  -0.63803
 Alpha  occ. eigenvalues --   -0.62950  -0.62640  -0.62587  -0.61963  -0.61255
 Alpha  occ. eigenvalues --   -0.60568  -0.59763  -0.59067  -0.58613  -0.57973
 Alpha  occ. eigenvalues --   -0.57701  -0.57390  -0.56590  -0.55988  -0.55582
 Alpha  occ. eigenvalues --   -0.55439  -0.55118  -0.54453  -0.54348  -0.54205
 Alpha  occ. eigenvalues --   -0.53920  -0.53561  -0.53406  -0.53265  -0.53132
 Alpha  occ. eigenvalues --   -0.52706  -0.52547  -0.52458  -0.52010  -0.51552
 Alpha  occ. eigenvalues --   -0.51403  -0.51347  -0.51175  -0.50954  -0.50736
 Alpha  occ. eigenvalues --   -0.50528  -0.50309  -0.50184  -0.50011  -0.49847
 Alpha  occ. eigenvalues --   -0.49507  -0.49232  -0.49222  -0.49009  -0.48597
 Alpha  occ. eigenvalues --   -0.48540  -0.48415  -0.48248  -0.48080  -0.47666
 Alpha  occ. eigenvalues --   -0.47495  -0.47429  -0.47242  -0.46946  -0.46690
 Alpha  occ. eigenvalues --   -0.46655  -0.46298  -0.46222  -0.46139  -0.45856
 Alpha  occ. eigenvalues --   -0.45714  -0.45547  -0.45460  -0.45421  -0.45162
 Alpha  occ. eigenvalues --   -0.44903  -0.44771  -0.44605  -0.44423  -0.43937
 Alpha  occ. eigenvalues --   -0.43709  -0.43451  -0.43175  -0.43080  -0.42932
 Alpha  occ. eigenvalues --   -0.42752  -0.42379  -0.42115  -0.42016  -0.41811
 Alpha  occ. eigenvalues --   -0.41610  -0.41530  -0.41047  -0.40874  -0.40722
 Alpha  occ. eigenvalues --   -0.40589  -0.40488  -0.40381  -0.40174  -0.39912
 Alpha  occ. eigenvalues --   -0.39849  -0.39362  -0.39257  -0.39027  -0.38808
 Alpha  occ. eigenvalues --   -0.38339  -0.38255  -0.38144  -0.38014  -0.37525
 Alpha  occ. eigenvalues --   -0.37231  -0.37154  -0.36913  -0.36460  -0.35921
 Alpha  occ. eigenvalues --   -0.35575  -0.35237  -0.35093  -0.34102  -0.33916
 Alpha  occ. eigenvalues --   -0.33742  -0.33686  -0.33189  -0.31730  -0.30937
 Alpha  occ. eigenvalues --   -0.30737  -0.30285  -0.29381  -0.29247  -0.24649
 Alpha  occ. eigenvalues --   -0.22093
 Alpha virt. eigenvalues --   -0.09858  -0.01848  -0.00010   0.01932   0.03040
 Alpha virt. eigenvalues --    0.03998   0.04524   0.04734   0.04955   0.06020
 Alpha virt. eigenvalues --    0.07738   0.07961   0.08472   0.08628   0.09287

 Mulliken charges:
               1
     1  Mg   0.834573
     2  C   -0.026271
     3  C   -0.053904
     4  C   -0.058755
     5  C   -0.083820
     6  N   -0.279584
     7  C   -0.046119
     8  C    0.007846
     9  C   -0.091374
    10  C    0.014015
    11  C    0.086565
    12  C    0.040239
    13  C    0.047542
    14  C    0.147285
    15  O   -0.264602
    16  O   -0.343652
    17  N   -0.340057
    18  C    0.146123
    19  C   -0.099508
    20  C   -0.044369
    21  C    0.187743
    22  C    0.126812
    23  C    0.004950
    24  O   -0.258634
    25  C    0.051609
    26  N   -0.309587
    27  C   -0.022160
    28  C   -0.074294
    29  C   -0.026536
    30  C    0.051230
    31  C    0.088212
    32  C    0.031975
    33  C   -0.002184
    34  N   -0.267257
    35  C    0.098314
    36  C   -0.157637
    37  C    0.122794
    38  C    0.039186
    39  C    0.112557
    40  C   -0.016791
    41  O   -0.191390
    42  C    0.037454
    43  C    0.217748
    44  O   -0.270345
    45  O   -0.335708
    46  C    0.184819
    47  C    0.294779
    48  C   -0.132602
    49  C   -0.192905
    50  C    0.088365
    51  C    0.084685
    52  C    0.037639
    53  C    0.097042
    54  C   -0.165237
    55  C    0.041134
    56  C    0.049960
    57  C    0.007586
    58  C    0.089076
    59  C   -0.115948
    60  C    0.049729
    61  C   -0.007744
    62  C    0.021333
    63  C    0.014725
    64  C   -0.157178
    65  C    0.052227
    66  C    0.056449
    67  H   -0.019865
    68  H   -0.044708
    69  H   -0.029117
    70  H    0.020581
    71  H    0.023587
    72  H    0.029555
    73  H    0.006363
    74  H    0.021166
    75  H    0.028075
    76  H    0.021587
    77  H    0.041560
    78  H    0.047504
    79  H    0.022671
    80  H   -0.014654
    81  H    0.032762
    82  H    0.025526
    83  H    0.052153
    84  H    0.017644
    85  H    0.012582
    86  H    0.006303
    87  H    0.008547
    88  H    0.028600
    89  H    0.029714
    90  H    0.016304
    91  H    0.011472
    92  H    0.007744
    93  H    0.034559
    94  H    0.005780
    95  H    0.040887
    96  H   -0.008906
    97  H    0.041298
    98  H    0.031443
    99  H    0.049156
   100  H    0.058287
   101  H    0.042453
   102  H    0.023808
   103  H    0.025454
   104  H    0.004927
   105  H    0.028356
   106  H    0.018252
   107  H    0.009331
   108  H   -0.015800
   109  H    0.010568
   110  H   -0.008245
   111  H   -0.008112
   112  H   -0.013424
   113  H    0.002393
   114  H   -0.003575
   115  H    0.004000
   116  H    0.011650
   117  H   -0.000705
   118  H    0.000489
   119  H   -0.008318
   120  H   -0.014684
   121  H   -0.013848
   122  H   -0.011272
   123  H   -0.003151
   124  H   -0.000003
   125  H    0.007221
   126  H    0.011232
   127  H   -0.002078
   128  H   -0.000228
   129  H   -0.004923
   130  H   -0.001025
   131  H   -0.002156
   132  H   -0.008657
   133  H    0.004438
   134  H   -0.007419
   135  H    0.026841
   136  H   -0.001035
   137  H    0.008062
   138  H    0.008273
   139  H   -0.005960
   140  H    0.002544
 Sum of Mulliken charges =  -0.00000

 Dipole moment (field-independent basis, Debye):
    X=              3.5768    Y=              2.5492    Z=              3.4716  Tot=              5.5986
 Quadrupole moment (field-independent basis, Debye-Ang):
   XX=           -374.9640   YY=           -458.3793   ZZ=           -374.9018
   XY=             20.2718   XZ=              1.0801   YZ=             16.2712

 Normal termination of Gaussian 16 at Wed May  4 13:56:13 2022.
