 Gaussian 16, Revision A.03,
 Gaussian 16:  ES64L-G16RevA.03 25-Dec-2016

 ---------------------------------
 #p PBE1PBE/Def2SVP td=(nstates=5)
 ---------------------------------

 -----------------------------------------------------
 step_1801_chromophore_2 TDDFT with PBE1PBE functional
 -----------------------------------------------------
 Symbolic Z-matrix:
 Charge =  0 Multiplicity = 1

                         Standard orientation:
 ---------------------------------------------------------------------
 Center     Atomic      Atomic             Coordinates (Angstroms)
 Number     Number       Type             X           Y           Z
 ---------------------------------------------------------------------
      1         12           0        4.020180    1.120243   -0.219519
      2          6           0        3.781716   -2.241295   -1.084467
      3          6           0        1.907659    1.795516   -2.915587
      4          6           0        3.879625    4.194044    0.785228
      5          6           0        6.045002    0.156369    2.442065
      6          7           0        2.987547   -0.128305   -1.713204
      7          6           0        3.020833   -1.466059   -1.925526
      8          6           0        2.056743   -2.007185   -2.970052
      9          6           0        1.629052   -0.665749   -3.705036
     10          6           0        2.257215    0.442063   -2.729774
     11          6           0        2.137677   -0.481105   -5.103496
     12          6           0        0.820121   -2.977273   -2.695269
     13          6           0        0.285156   -3.007789   -1.238707
     14          6           0       -1.178947   -2.887901   -1.022090
     15          8           0       -2.030028   -3.576337   -1.630119
     16          8           0       -1.480862   -1.894315   -0.103440
     17          7           0        3.063726    2.825504   -0.989740
     18          6           0        2.261192    2.924930   -2.099552
     19          6           0        1.685923    4.183945   -2.203299
     20          6           0        2.407325    4.951806   -1.200486
     21          6           0        3.164163    4.012745   -0.438710
     22          6           0        0.949216    4.601035   -3.395533
     23          6           0        2.130523    6.408175   -0.947085
     24          8           0        1.258006    7.023967   -1.648196
     25          6           0        2.863167    7.180072    0.173296
     26          7           0        4.772544    2.051470    1.429041
     27          6           0        4.596557    3.350956    1.577448
     28          6           0        5.216841    3.828692    2.946904
     29          6           0        5.793875    2.500133    3.517935
     30          6           0        5.498485    1.483119    2.420819
     31          6           0        6.164266    5.113398    2.962063
     32          6           0        5.351555    2.069338    4.999787
     33          6           0        6.427624    2.058939    6.091711
     34          7           0        4.961610   -0.673319    0.514436
     35          6           0        5.763333   -0.882258    1.561112
     36          6           0        6.040774   -2.281580    1.660251
     37          6           0        5.299551   -2.882186    0.692624
     38          6           0        4.665721   -1.847523   -0.005314
     39          6           0        6.833388   -2.950457    2.632527
     40          6           0        4.993980   -4.065233    0.051774
     41          8           0        5.465681   -5.194818    0.262682
     42          6           0        3.951049   -3.739855   -1.099373
     43          6           0        4.493925   -4.343110   -2.315410
     44          8           0        3.772063   -4.986938   -3.119364
     45          8           0        5.806367   -4.083505   -2.512616
     46          6           0        6.363033   -4.744372   -3.801890
     47          6           0       -2.868985   -1.428877   -0.010079
     48          6           0       -3.684817   -2.543709    0.651296
     49          6           0       -3.881916   -2.804478    1.980889
     50          6           0       -3.121114   -2.027076    3.063737
     51          6           0       -4.571024   -4.066210    2.461778
     52          6           0       -5.937194   -3.954411    2.946772
     53          6           0       -7.093082   -4.433815    2.041347
     54          6           0       -8.373858   -3.576155    2.105934
     55          6           0       -9.657373   -4.462543    2.216339
     56          6           0       -8.535128   -2.683516    0.814046
     57          6           0       -9.075585   -1.305816    1.179257
     58          6           0       -8.033433   -0.288888    1.632459
     59          6           0       -7.467329    0.632757    0.485928
     60          6           0       -5.973571    0.498345    0.403568
     61          6           0       -7.847131    2.167357    0.734328
     62          6           0       -8.208018    3.008332   -0.584774
     63          6           0       -9.494974    3.795918   -0.402899
     64          6           0      -10.575562    3.758979   -1.626381
     65          6           0      -10.255577    4.809237   -2.687400
     66          6           0      -11.967159    3.921611   -1.035460
     67          1           0        1.357228    1.846779   -3.856116
     68          1           0        3.882850    5.157105    1.299664
     69          1           0        6.616601   -0.168962    3.313836
     70          1           0        2.563088   -2.772142   -3.558459
     71          1           0        0.540215   -0.651285   -3.752911
     72          1           0        2.590935    0.506589   -5.185593
     73          1           0        1.235520   -0.544429   -5.710965
     74          1           0        2.723382   -1.338231   -5.434820
     75          1           0        1.050843   -4.035607   -2.813546
     76          1           0        0.096633   -2.793187   -3.489472
     77          1           0        0.740133   -2.252026   -0.599378
     78          1           0        0.420706   -4.037527   -0.906094
     79          1           0       -0.104380    4.819047   -3.219477
     80          1           0        0.948480    3.762107   -4.091420
     81          1           0        1.310966    5.466470   -3.951760
     82          1           0        3.911930    6.883541    0.144459
     83          1           0        2.357206    7.158283    1.138585
     84          1           0        2.981745    8.235728   -0.073829
     85          1           0        4.348184    4.071446    3.559261
     86          1           0        6.869119    2.678723    3.542577
     87          1           0        7.138741    4.752745    3.290430
     88          1           0        5.796183    5.829274    3.695917
     89          1           0        6.220350    5.384252    1.907335
     90          1           0        5.043721    1.024251    4.946992
     91          1           0        4.554597    2.754291    5.288895
     92          1           0        7.395237    2.307400    5.656228
     93          1           0        6.456065    1.206242    6.770695
     94          1           0        6.197895    2.973982    6.637689
     95          1           0        6.130627   -3.596209    3.159364
     96          1           0        7.271626   -2.225341    3.317786
     97          1           0        7.689858   -3.546563    2.317600
     98          1           0        2.959443   -4.107277   -0.833725
     99          1           0        5.798196   -4.399357   -4.668578
    100          1           0        6.344082   -5.832082   -3.732768
    101          1           0        7.402809   -4.431510   -3.895530
    102          1           0       -3.284711   -1.198549   -0.991239
    103          1           0       -2.848954   -0.496187    0.553967
    104          1           0       -4.331187   -3.091664   -0.033150
    105          1           0       -2.370081   -1.338795    2.676493
    106          1           0       -2.866320   -2.657153    3.914391
    107          1           0       -3.918406   -1.378678    3.427374
    108          1           0       -3.958506   -4.354942    3.314839
    109          1           0       -4.424206   -4.839048    1.707138
    110          1           0       -6.009434   -2.906465    3.239546
    111          1           0       -6.041602   -4.571938    3.838306
    112          1           0       -7.444273   -5.381005    2.451552
    113          1           0       -6.710508   -4.544105    1.026301
    114          1           0       -8.398257   -2.961531    3.005677
    115          1           0       -9.980808   -4.579882    3.250999
    116          1           0       -9.542546   -5.453310    1.775910
    117          1           0      -10.445840   -3.928845    1.685337
    118          1           0       -9.197857   -3.163131    0.095059
    119          1           0       -7.513786   -2.560658    0.451764
    120          1           0       -9.896345   -1.370696    1.893634
    121          1           0       -9.596803   -1.017916    0.265993
    122          1           0       -7.186724   -0.858300    2.014351
    123          1           0       -8.470044    0.321603    2.423120
    124          1           0       -7.864546    0.418841   -0.506008
    125          1           0       -5.645087   -0.194628   -0.371022
    126          1           0       -5.506285    0.182565    1.337184
    127          1           0       -5.647747    1.510273    0.164785
    128          1           0       -7.116269    2.822064    1.207147
    129          1           0       -8.670848    2.170530    1.448794
    130          1           0       -8.176004    2.328262   -1.435970
    131          1           0       -7.383575    3.699109   -0.758052
    132          1           0       -9.356695    4.876708   -0.428859
    133          1           0       -9.865332    3.486940    0.574790
    134          1           0      -10.442455    2.821034   -2.163483
    135          1           0      -10.730763    4.602997   -3.646066
    136          1           0       -9.172125    4.696511   -2.738971
    137          1           0      -10.420537    5.790883   -2.242545
    138          1           0      -12.561617    3.010596   -1.084711
    139          1           0      -12.484447    4.731454   -1.550360
    140          1           0      -12.036157    4.207413    0.014600
 ---------------------------------------------------------------------

 SCF Done:  E(RPBE1PBE) =  -3005.31003223     A.U. after   15 cycles

 Excitation energies and oscillator strengths:

 Excited State   1:      Singlet-A      1.8581 eV  667.26 nm  f=0.3787  <S**2>=0.000
     245 -> 248       -0.15356
     246 -> 247        0.69672
     246 <- 247       -0.11682
 This state for optimization and/or second-order correction.
 Total Energy, E(TD-HF/TD-DFT) =  -3005.24174816
 Copying the excited state density for this state as the 1-particle RhoCI density.

 Excited State   2:      Singlet-A      2.1934 eV  565.27 nm  f=0.1706  <S**2>=0.000
     245 -> 247        0.66958
     246 -> 248        0.20661

 Excited State   3:      Singlet-A      2.6124 eV  474.60 nm  f=0.0013  <S**2>=0.000
     242 -> 247        0.11834
     243 -> 247        0.67119

 Excited State   4:      Singlet-A      2.7366 eV  453.06 nm  f=0.0001  <S**2>=0.000
     241 -> 247        0.67597
     241 -> 249       -0.15324

 Excited State   5:      Singlet-A      2.8293 eV  438.21 nm  f=0.0073  <S**2>=0.000
     242 -> 247        0.67951
     243 -> 247       -0.13913

 The electronic state is 1-A.
 Alpha  occ. eigenvalues --  -46.92737 -19.26683 -19.25003 -19.19621 -19.19161
 Alpha  occ. eigenvalues --  -19.18907 -19.18184 -14.42568 -14.42138 -14.39328
 Alpha  occ. eigenvalues --  -14.38965 -10.36522 -10.35904 -10.32068 -10.31639
 Alpha  occ. eigenvalues --  -10.30123 -10.30003 -10.29402 -10.29338 -10.29292
 Alpha  occ. eigenvalues --  -10.28864 -10.28053 -10.27404 -10.27313 -10.26908
 Alpha  occ. eigenvalues --  -10.26319 -10.26139 -10.26137 -10.26043 -10.26004
 Alpha  occ. eigenvalues --  -10.25787 -10.25498 -10.25419 -10.25380 -10.25286
 Alpha  occ. eigenvalues --  -10.25009 -10.24999 -10.24863 -10.24573 -10.24516
 Alpha  occ. eigenvalues --  -10.24496 -10.24359 -10.23528 -10.23406 -10.23374
 Alpha  occ. eigenvalues --  -10.23282 -10.23278 -10.23179 -10.22980 -10.22826
 Alpha  occ. eigenvalues --  -10.22579 -10.22485 -10.22395 -10.22266 -10.22209
 Alpha  occ. eigenvalues --  -10.22166 -10.22163 -10.22043 -10.21932 -10.21897
 Alpha  occ. eigenvalues --  -10.21835 -10.21661 -10.21573 -10.21451 -10.21197
 Alpha  occ. eigenvalues --  -10.21071  -3.14873  -1.87735  -1.87242  -1.87101
 Alpha  occ. eigenvalues --   -1.10435  -1.09320  -1.03491  -1.01213  -1.01015
 Alpha  occ. eigenvalues --   -1.00798  -1.00789  -1.00184  -0.99488  -0.98466
 Alpha  occ. eigenvalues --   -0.88058  -0.84579  -0.84138  -0.83707  -0.83463
 Alpha  occ. eigenvalues --   -0.83299  -0.83168  -0.82363  -0.82215  -0.81229
 Alpha  occ. eigenvalues --   -0.80987  -0.80156  -0.78941  -0.78580  -0.78054
 Alpha  occ. eigenvalues --   -0.77208  -0.76583  -0.75441  -0.75309  -0.75087
 Alpha  occ. eigenvalues --   -0.74320  -0.72993  -0.72528  -0.71987  -0.71113
 Alpha  occ. eigenvalues --   -0.70414  -0.69610  -0.69519  -0.68779  -0.68391
 Alpha  occ. eigenvalues --   -0.67733  -0.67387  -0.66470  -0.65395  -0.64276
 Alpha  occ. eigenvalues --   -0.63937  -0.62119  -0.61904  -0.60903  -0.60565
 Alpha  occ. eigenvalues --   -0.60267  -0.59853  -0.59731  -0.59058  -0.57911
 Alpha  occ. eigenvalues --   -0.57430  -0.57098  -0.56756  -0.56145  -0.55780
 Alpha  occ. eigenvalues --   -0.55237  -0.54345  -0.53643  -0.53159  -0.52428
 Alpha  occ. eigenvalues --   -0.52062  -0.51920  -0.51037  -0.50486  -0.50151
 Alpha  occ. eigenvalues --   -0.49908  -0.49491  -0.48991  -0.48796  -0.48561
 Alpha  occ. eigenvalues --   -0.48499  -0.47959  -0.47926  -0.47811  -0.47641
 Alpha  occ. eigenvalues --   -0.47218  -0.47162  -0.46996  -0.46463  -0.46138
 Alpha  occ. eigenvalues --   -0.45928  -0.45892  -0.45730  -0.45477  -0.45388
 Alpha  occ. eigenvalues --   -0.45033  -0.44901  -0.44724  -0.44646  -0.44432
 Alpha  occ. eigenvalues --   -0.44151  -0.43859  -0.43749  -0.43524  -0.43180
 Alpha  occ. eigenvalues --   -0.43157  -0.43088  -0.42911  -0.42676  -0.42294
 Alpha  occ. eigenvalues --   -0.42176  -0.42051  -0.41916  -0.41584  -0.41421
 Alpha  occ. eigenvalues --   -0.41404  -0.40973  -0.40953  -0.40845  -0.40516
 Alpha  occ. eigenvalues --   -0.40325  -0.40196  -0.40147  -0.40021  -0.39944
 Alpha  occ. eigenvalues --   -0.39570  -0.39505  -0.39292  -0.39179  -0.38723
 Alpha  occ. eigenvalues --   -0.38467  -0.38240  -0.37890  -0.37835  -0.37737
 Alpha  occ. eigenvalues --   -0.37550  -0.37132  -0.36945  -0.36867  -0.36634
 Alpha  occ. eigenvalues --   -0.36413  -0.36378  -0.35912  -0.35595  -0.35574
 Alpha  occ. eigenvalues --   -0.35466  -0.35331  -0.35222  -0.34929  -0.34804
 Alpha  occ. eigenvalues --   -0.34580  -0.34249  -0.34121  -0.33923  -0.33591
 Alpha  occ. eigenvalues --   -0.33179  -0.33106  -0.33027  -0.32796  -0.32556
 Alpha  occ. eigenvalues --   -0.32188  -0.32025  -0.31714  -0.31512  -0.30782
 Alpha  occ. eigenvalues --   -0.30509  -0.30438  -0.30036  -0.29476  -0.28851
 Alpha  occ. eigenvalues --   -0.28720  -0.28603  -0.27942  -0.27359  -0.26371
 Alpha  occ. eigenvalues --   -0.25613  -0.25420  -0.24775  -0.24546  -0.21607
 Alpha  occ. eigenvalues --   -0.19699
 Alpha virt. eigenvalues --   -0.12228  -0.05450  -0.04180  -0.02496  -0.00124
 Alpha virt. eigenvalues --    0.00178   0.00271   0.00507   0.00621   0.02073
 Alpha virt. eigenvalues --    0.03521   0.03938   0.05022   0.05197   0.05874

 Mulliken charges:
               1
     1  Mg   0.984149
     2  C   -0.035622
     3  C   -0.045023
     4  C   -0.059215
     5  C   -0.072145
     6  N   -0.387052
     7  C    0.011250
     8  C   -0.027321
     9  C   -0.174012
    10  C    0.047358
    11  C    0.030222
    12  C   -0.012148
    13  C   -0.039006
    14  C    0.225501
    15  O   -0.296236
    16  O   -0.374271
    17  N   -0.461300
    18  C    0.169049
    19  C   -0.114016
    20  C   -0.090602
    21  C    0.219969
    22  C    0.060146
    23  C    0.055165
    24  O   -0.290482
    25  C   -0.024330
    26  N   -0.427497
    27  C    0.021359
    28  C   -0.140781
    29  C   -0.098551
    30  C    0.087809
    31  C    0.022697
    32  C   -0.030795
    33  C   -0.073852
    34  N   -0.400707
    35  C    0.127007
    36  C   -0.189174
    37  C    0.068059
    38  C    0.103188
    39  C    0.063916
    40  C    0.083618
    41  O   -0.237671
    42  C   -0.080934
    43  C    0.306264
    44  O   -0.305736
    45  O   -0.363916
    46  C    0.127929
    47  C    0.246147
    48  C   -0.142631
    49  C   -0.229023
    50  C    0.023458
    51  C    0.019819
    52  C   -0.026041
    53  C    0.038076
    54  C   -0.243248
    55  C   -0.019129
    56  C   -0.013983
    57  C   -0.051798
    58  C    0.027178
    59  C   -0.199688
    60  C   -0.011157
    61  C   -0.059025
    62  C   -0.037863
    63  C   -0.043232
    64  C   -0.246082
    65  C   -0.016623
    66  C   -0.001871
    67  H    0.010372
    68  H   -0.008507
    69  H    0.003259
    70  H    0.060895
    71  H    0.059711
    72  H    0.056605
    73  H    0.034459
    74  H    0.049055
    75  H    0.058895
    76  H    0.051457
    77  H    0.076067
    78  H    0.078955
    79  H    0.051714
    80  H    0.015772
    81  H    0.060663
    82  H    0.051465
    83  H    0.078372
    84  H    0.046026
    85  H    0.051264
    86  H    0.044936
    87  H    0.036654
    88  H    0.055347
    89  H    0.057327
    90  H    0.049568
    91  H    0.043345
    92  H    0.035177
    93  H    0.060953
    94  H    0.034240
    95  H    0.067651
    96  H    0.018877
    97  H    0.067327
    98  H    0.073960
    99  H    0.069839
   100  H    0.079209
   101  H    0.063684
   102  H    0.049794
   103  H    0.050763
   104  H    0.034398
   105  H    0.055848
   106  H    0.044579
   107  H    0.038551
   108  H    0.018062
   109  H    0.041884
   110  H    0.026215
   111  H    0.025002
   112  H    0.021309
   113  H    0.033562
   114  H    0.033343
   115  H    0.032362
   116  H    0.038727
   117  H    0.027400
   118  H    0.032212
   119  H    0.028513
   120  H    0.017795
   121  H    0.019481
   122  H    0.026341
   123  H    0.028150
   124  H    0.036217
   125  H    0.036272
   126  H    0.039378
   127  H    0.026856
   128  H    0.031848
   129  H    0.026369
   130  H    0.029364
   131  H    0.030112
   132  H    0.025480
   133  H    0.035949
   134  H    0.030271
   135  H    0.054568
   136  H    0.030271
   137  H    0.035895
   138  H    0.035900
   139  H    0.021737
   140  H    0.029084
 Sum of Mulliken charges =  -0.00000

 Dipole moment (field-independent basis, Debye):
    X=              3.4915    Y=              2.7238    Z=              3.4440  Tot=              5.6099
 Quadrupole moment (field-independent basis, Debye-Ang):
   XX=           -372.6878   YY=           -455.1715   ZZ=           -370.3603
   XY=             21.2254   XZ=              2.1223   YZ=             16.4112

 Normal termination of Gaussian 16 at Wed May  4 14:13:28 2022.
