 Gaussian 16, Revision A.03,
 Gaussian 16:  ES64L-G16RevA.03 25-Dec-2016

 --------------------------------
 #p wB97XD/Def2SVP td=(nstates=5)
 --------------------------------

 ----------------------------------------------------
 step_1801_chromophore_2 TDDFT with wB97XD functional
 ----------------------------------------------------
 Symbolic Z-matrix:
 Charge =  0 Multiplicity = 1

                         Standard orientation:
 ---------------------------------------------------------------------
 Center     Atomic      Atomic             Coordinates (Angstroms)
 Number     Number       Type             X           Y           Z
 ---------------------------------------------------------------------
      1         12           0        4.020180    1.120243   -0.219519
      2          6           0        3.781716   -2.241295   -1.084467
      3          6           0        1.907659    1.795516   -2.915587
      4          6           0        3.879625    4.194044    0.785228
      5          6           0        6.045002    0.156369    2.442065
      6          7           0        2.987547   -0.128305   -1.713204
      7          6           0        3.020833   -1.466059   -1.925526
      8          6           0        2.056743   -2.007185   -2.970052
      9          6           0        1.629052   -0.665749   -3.705036
     10          6           0        2.257215    0.442063   -2.729774
     11          6           0        2.137677   -0.481105   -5.103496
     12          6           0        0.820121   -2.977273   -2.695269
     13          6           0        0.285156   -3.007789   -1.238707
     14          6           0       -1.178947   -2.887901   -1.022090
     15          8           0       -2.030028   -3.576337   -1.630119
     16          8           0       -1.480862   -1.894315   -0.103440
     17          7           0        3.063726    2.825504   -0.989740
     18          6           0        2.261192    2.924930   -2.099552
     19          6           0        1.685923    4.183945   -2.203299
     20          6           0        2.407325    4.951806   -1.200486
     21          6           0        3.164163    4.012745   -0.438710
     22          6           0        0.949216    4.601035   -3.395533
     23          6           0        2.130523    6.408175   -0.947085
     24          8           0        1.258006    7.023967   -1.648196
     25          6           0        2.863167    7.180072    0.173296
     26          7           0        4.772544    2.051470    1.429041
     27          6           0        4.596557    3.350956    1.577448
     28          6           0        5.216841    3.828692    2.946904
     29          6           0        5.793875    2.500133    3.517935
     30          6           0        5.498485    1.483119    2.420819
     31          6           0        6.164266    5.113398    2.962063
     32          6           0        5.351555    2.069338    4.999787
     33          6           0        6.427624    2.058939    6.091711
     34          7           0        4.961610   -0.673319    0.514436
     35          6           0        5.763333   -0.882258    1.561112
     36          6           0        6.040774   -2.281580    1.660251
     37          6           0        5.299551   -2.882186    0.692624
     38          6           0        4.665721   -1.847523   -0.005314
     39          6           0        6.833388   -2.950457    2.632527
     40          6           0        4.993980   -4.065233    0.051774
     41          8           0        5.465681   -5.194818    0.262682
     42          6           0        3.951049   -3.739855   -1.099373
     43          6           0        4.493925   -4.343110   -2.315410
     44          8           0        3.772063   -4.986938   -3.119364
     45          8           0        5.806367   -4.083505   -2.512616
     46          6           0        6.363033   -4.744372   -3.801890
     47          6           0       -2.868985   -1.428877   -0.010079
     48          6           0       -3.684817   -2.543709    0.651296
     49          6           0       -3.881916   -2.804478    1.980889
     50          6           0       -3.121114   -2.027076    3.063737
     51          6           0       -4.571024   -4.066210    2.461778
     52          6           0       -5.937194   -3.954411    2.946772
     53          6           0       -7.093082   -4.433815    2.041347
     54          6           0       -8.373858   -3.576155    2.105934
     55          6           0       -9.657373   -4.462543    2.216339
     56          6           0       -8.535128   -2.683516    0.814046
     57          6           0       -9.075585   -1.305816    1.179257
     58          6           0       -8.033433   -0.288888    1.632459
     59          6           0       -7.467329    0.632757    0.485928
     60          6           0       -5.973571    0.498345    0.403568
     61          6           0       -7.847131    2.167357    0.734328
     62          6           0       -8.208018    3.008332   -0.584774
     63          6           0       -9.494974    3.795918   -0.402899
     64          6           0      -10.575562    3.758979   -1.626381
     65          6           0      -10.255577    4.809237   -2.687400
     66          6           0      -11.967159    3.921611   -1.035460
     67          1           0        1.357228    1.846779   -3.856116
     68          1           0        3.882850    5.157105    1.299664
     69          1           0        6.616601   -0.168962    3.313836
     70          1           0        2.563088   -2.772142   -3.558459
     71          1           0        0.540215   -0.651285   -3.752911
     72          1           0        2.590935    0.506589   -5.185593
     73          1           0        1.235520   -0.544429   -5.710965
     74          1           0        2.723382   -1.338231   -5.434820
     75          1           0        1.050843   -4.035607   -2.813546
     76          1           0        0.096633   -2.793187   -3.489472
     77          1           0        0.740133   -2.252026   -0.599378
     78          1           0        0.420706   -4.037527   -0.906094
     79          1           0       -0.104380    4.819047   -3.219477
     80          1           0        0.948480    3.762107   -4.091420
     81          1           0        1.310966    5.466470   -3.951760
     82          1           0        3.911930    6.883541    0.144459
     83          1           0        2.357206    7.158283    1.138585
     84          1           0        2.981745    8.235728   -0.073829
     85          1           0        4.348184    4.071446    3.559261
     86          1           0        6.869119    2.678723    3.542577
     87          1           0        7.138741    4.752745    3.290430
     88          1           0        5.796183    5.829274    3.695917
     89          1           0        6.220350    5.384252    1.907335
     90          1           0        5.043721    1.024251    4.946992
     91          1           0        4.554597    2.754291    5.288895
     92          1           0        7.395237    2.307400    5.656228
     93          1           0        6.456065    1.206242    6.770695
     94          1           0        6.197895    2.973982    6.637689
     95          1           0        6.130627   -3.596209    3.159364
     96          1           0        7.271626   -2.225341    3.317786
     97          1           0        7.689858   -3.546563    2.317600
     98          1           0        2.959443   -4.107277   -0.833725
     99          1           0        5.798196   -4.399357   -4.668578
    100          1           0        6.344082   -5.832082   -3.732768
    101          1           0        7.402809   -4.431510   -3.895530
    102          1           0       -3.284711   -1.198549   -0.991239
    103          1           0       -2.848954   -0.496187    0.553967
    104          1           0       -4.331187   -3.091664   -0.033150
    105          1           0       -2.370081   -1.338795    2.676493
    106          1           0       -2.866320   -2.657153    3.914391
    107          1           0       -3.918406   -1.378678    3.427374
    108          1           0       -3.958506   -4.354942    3.314839
    109          1           0       -4.424206   -4.839048    1.707138
    110          1           0       -6.009434   -2.906465    3.239546
    111          1           0       -6.041602   -4.571938    3.838306
    112          1           0       -7.444273   -5.381005    2.451552
    113          1           0       -6.710508   -4.544105    1.026301
    114          1           0       -8.398257   -2.961531    3.005677
    115          1           0       -9.980808   -4.579882    3.250999
    116          1           0       -9.542546   -5.453310    1.775910
    117          1           0      -10.445840   -3.928845    1.685337
    118          1           0       -9.197857   -3.163131    0.095059
    119          1           0       -7.513786   -2.560658    0.451764
    120          1           0       -9.896345   -1.370696    1.893634
    121          1           0       -9.596803   -1.017916    0.265993
    122          1           0       -7.186724   -0.858300    2.014351
    123          1           0       -8.470044    0.321603    2.423120
    124          1           0       -7.864546    0.418841   -0.506008
    125          1           0       -5.645087   -0.194628   -0.371022
    126          1           0       -5.506285    0.182565    1.337184
    127          1           0       -5.647747    1.510273    0.164785
    128          1           0       -7.116269    2.822064    1.207147
    129          1           0       -8.670848    2.170530    1.448794
    130          1           0       -8.176004    2.328262   -1.435970
    131          1           0       -7.383575    3.699109   -0.758052
    132          1           0       -9.356695    4.876708   -0.428859
    133          1           0       -9.865332    3.486940    0.574790
    134          1           0      -10.442455    2.821034   -2.163483
    135          1           0      -10.730763    4.602997   -3.646066
    136          1           0       -9.172125    4.696511   -2.738971
    137          1           0      -10.420537    5.790883   -2.242545
    138          1           0      -12.561617    3.010596   -1.084711
    139          1           0      -12.484447    4.731454   -1.550360
    140          1           0      -12.036157    4.207413    0.014600
 ---------------------------------------------------------------------

 SCF Done:  E(RwB97XD) =  -3007.81908870     A.U. after   19 cycles

 Excitation energies and oscillator strengths:

 Excited State   1:      Singlet-A      1.6487 eV  751.99 nm  f=0.4028  <S**2>=0.000
     245 -> 248       -0.16774
     246 -> 247        0.68687
     245 <- 248       -0.11094
 This state for optimization and/or second-order correction.
 Total Energy, E(TD-HF/TD-DFT) =  -3007.75849846
 Copying the excited state density for this state as the 1-particle RhoCI density.

 Excited State   2:      Singlet-A      2.1280 eV  582.64 nm  f=0.1714  <S**2>=0.000
     245 -> 247        0.65883
     246 -> 248        0.23777

 Excited State   3:      Singlet-A      3.1567 eV  392.76 nm  f=0.0081  <S**2>=0.000
     242 -> 250        0.13169
     243 -> 247        0.65029
     243 -> 249        0.13164

 Excited State   4:      Singlet-A      3.2934 eV  376.46 nm  f=0.0001  <S**2>=0.000
     240 -> 247        0.16767
     240 -> 249       -0.12631
     241 -> 247        0.53195
     241 -> 249       -0.28407
     241 -> 250        0.13111
     242 -> 247        0.14276

 Excited State   5:      Singlet-A      3.3035 eV  375.31 nm  f=0.0016  <S**2>=0.000
     240 -> 247       -0.14481
     241 -> 247       -0.10517
     242 -> 247        0.53660
     242 -> 248       -0.14578
     242 -> 249        0.21018
     242 -> 250        0.22354
     243 -> 250        0.14160

 The electronic state is 1-A.
 Alpha  occ. eigenvalues --  -46.95691 -19.31323 -19.29548 -19.24356 -19.23854
 Alpha  occ. eigenvalues --  -19.23830 -19.22873 -14.47683 -14.47236 -14.44217
 Alpha  occ. eigenvalues --  -14.44005 -10.43402 -10.42693 -10.38791 -10.38630
 Alpha  occ. eigenvalues --  -10.36718 -10.36382 -10.35923 -10.35734 -10.35460
 Alpha  occ. eigenvalues --  -10.35121 -10.34305 -10.33885 -10.33473 -10.33370
 Alpha  occ. eigenvalues --  -10.32513 -10.32378 -10.32372 -10.32364 -10.32306
 Alpha  occ. eigenvalues --  -10.32245 -10.32090 -10.31963 -10.31738 -10.31624
 Alpha  occ. eigenvalues --  -10.31328 -10.31308 -10.31229 -10.30918 -10.30908
 Alpha  occ. eigenvalues --  -10.30888 -10.30546 -10.29938 -10.29928 -10.29921
 Alpha  occ. eigenvalues --  -10.29632 -10.29561 -10.29446 -10.29405 -10.29097
 Alpha  occ. eigenvalues --  -10.28946 -10.28854 -10.28719 -10.28624 -10.28598
 Alpha  occ. eigenvalues --  -10.28541 -10.28534 -10.28506 -10.28320 -10.28265
 Alpha  occ. eigenvalues --  -10.28193 -10.28088 -10.27947 -10.27876 -10.27663
 Alpha  occ. eigenvalues --  -10.27495  -3.21676  -1.95289  -1.94794  -1.94656
 Alpha  occ. eigenvalues --   -1.17919  -1.16707  -1.11111  -1.08650  -1.08413
 Alpha  occ. eigenvalues --   -1.08226  -1.08152  -1.07545  -1.06780  -1.05853
 Alpha  occ. eigenvalues --   -0.95776  -0.92244  -0.91733  -0.91325  -0.91161
 Alpha  occ. eigenvalues --   -0.90964  -0.90751  -0.89968  -0.89877  -0.88880
 Alpha  occ. eigenvalues --   -0.88558  -0.87760  -0.86590  -0.86213  -0.85685
 Alpha  occ. eigenvalues --   -0.84850  -0.84243  -0.83126  -0.82973  -0.82772
 Alpha  occ. eigenvalues --   -0.81975  -0.80640  -0.80155  -0.79594  -0.78770
 Alpha  occ. eigenvalues --   -0.77980  -0.77276  -0.77209  -0.76349  -0.76077
 Alpha  occ. eigenvalues --   -0.75351  -0.75042  -0.73985  -0.73004  -0.71840
 Alpha  occ. eigenvalues --   -0.71507  -0.69713  -0.69411  -0.68400  -0.68164
 Alpha  occ. eigenvalues --   -0.67761  -0.67321  -0.67229  -0.66682  -0.65595
 Alpha  occ. eigenvalues --   -0.64940  -0.64581  -0.64411  -0.63780  -0.63240
 Alpha  occ. eigenvalues --   -0.62576  -0.61771  -0.61023  -0.60576  -0.59912
 Alpha  occ. eigenvalues --   -0.59604  -0.59361  -0.58512  -0.57964  -0.57514
 Alpha  occ. eigenvalues --   -0.57365  -0.57001  -0.56358  -0.56246  -0.56025
 Alpha  occ. eigenvalues --   -0.55865  -0.55397  -0.55299  -0.55214  -0.55041
 Alpha  occ. eigenvalues --   -0.54589  -0.54495  -0.54441  -0.53930  -0.53488
 Alpha  occ. eigenvalues --   -0.53294  -0.53235  -0.53073  -0.52823  -0.52665
 Alpha  occ. eigenvalues --   -0.52393  -0.52247  -0.52072  -0.51952  -0.51779
 Alpha  occ. eigenvalues --   -0.51442  -0.51197  -0.51071  -0.50865  -0.50486
 Alpha  occ. eigenvalues --   -0.50456  -0.50328  -0.50146  -0.49944  -0.49586
 Alpha  occ. eigenvalues --   -0.49402  -0.49317  -0.49156  -0.48853  -0.48631
 Alpha  occ. eigenvalues --   -0.48587  -0.48214  -0.48143  -0.48076  -0.47789
 Alpha  occ. eigenvalues --   -0.47556  -0.47400  -0.47371  -0.47279  -0.47142
 Alpha  occ. eigenvalues --   -0.46774  -0.46709  -0.46477  -0.46354  -0.45835
 Alpha  occ. eigenvalues --   -0.45612  -0.45360  -0.45136  -0.44972  -0.44813
 Alpha  occ. eigenvalues --   -0.44656  -0.44261  -0.44031  -0.43922  -0.43739
 Alpha  occ. eigenvalues --   -0.43531  -0.43465  -0.42960  -0.42709  -0.42682
 Alpha  occ. eigenvalues --   -0.42528  -0.42373  -0.42304  -0.42022  -0.41806
 Alpha  occ. eigenvalues --   -0.41689  -0.41271  -0.41164  -0.40930  -0.40634
 Alpha  occ. eigenvalues --   -0.40171  -0.40139  -0.40030  -0.39855  -0.39581
 Alpha  occ. eigenvalues --   -0.39110  -0.39058  -0.38731  -0.38541  -0.37744
 Alpha  occ. eigenvalues --   -0.37473  -0.37247  -0.36991  -0.36174  -0.35871
 Alpha  occ. eigenvalues --   -0.35761  -0.35515  -0.35088  -0.33955  -0.33045
 Alpha  occ. eigenvalues --   -0.32843  -0.32232  -0.31509  -0.31252  -0.26569
 Alpha  occ. eigenvalues --   -0.23899
 Alpha virt. eigenvalues --   -0.08228   0.00069   0.02024   0.04040   0.06136
 Alpha virt. eigenvalues --    0.06644   0.06803   0.07044   0.07291   0.08540
 Alpha virt. eigenvalues --    0.10253   0.10722   0.11710   0.11782   0.12667

 Mulliken charges:
               1
     1  Mg   0.974749
     2  C   -0.038836
     3  C   -0.062479
     4  C   -0.068912
     5  C   -0.091320
     6  N   -0.351600
     7  C   -0.014766
     8  C   -0.016838
     9  C   -0.143274
    10  C    0.036091
    11  C    0.038394
    12  C   -0.002174
    13  C   -0.018032
    14  C    0.211574
    15  O   -0.293175
    16  O   -0.373574
    17  N   -0.425598
    18  C    0.160112
    19  C   -0.107787
    20  C   -0.087332
    21  C    0.212132
    22  C    0.071809
    23  C    0.047883
    24  O   -0.286260
    25  C   -0.009615
    26  N   -0.391071
    27  C    0.005882
    28  C   -0.118892
    29  C   -0.071970
    30  C    0.077223
    31  C    0.038285
    32  C   -0.015047
    33  C   -0.057696
    34  N   -0.358821
    35  C    0.116991
    36  C   -0.177874
    37  C    0.074523
    38  C    0.082087
    39  C    0.071195
    40  C    0.065421
    41  O   -0.226911
    42  C   -0.036337
    43  C    0.284154
    44  O   -0.299725
    45  O   -0.365438
    46  C    0.143746
    47  C    0.260329
    48  C   -0.150251
    49  C   -0.219608
    50  C    0.037936
    51  C    0.037665
    52  C   -0.008152
    53  C    0.054578
    54  C   -0.220123
    55  C   -0.006547
    56  C    0.011066
    57  C   -0.037712
    58  C    0.053659
    59  C   -0.173201
    60  C    0.008906
    61  C   -0.040860
    62  C   -0.025927
    63  C   -0.021741
    64  C   -0.218326
    65  C   -0.000991
    66  C    0.007065
    67  H    0.002646
    68  H   -0.022726
    69  H   -0.003785
    70  H    0.045426
    71  H    0.049260
    72  H    0.049904
    73  H    0.029097
    74  H    0.043905
    75  H    0.053259
    76  H    0.045762
    77  H    0.066608
    78  H    0.073127
    79  H    0.047452
    80  H    0.008560
    81  H    0.056850
    82  H    0.044055
    83  H    0.075252
    84  H    0.043772
    85  H    0.038558
    86  H    0.029076
    87  H    0.030092
    88  H    0.051030
    89  H    0.049727
    90  H    0.040063
    91  H    0.035679
    92  H    0.028015
    93  H    0.056937
    94  H    0.027563
    95  H    0.063644
    96  H    0.013411
    97  H    0.065037
    98  H    0.062205
    99  H    0.066256
   100  H    0.075696
   101  H    0.061083
   102  H    0.046560
   103  H    0.047035
   104  H    0.030308
   105  H    0.051286
   106  H    0.039921
   107  H    0.030418
   108  H    0.009659
   109  H    0.035758
   110  H    0.012579
   111  H    0.019042
   112  H    0.012244
   113  H    0.024306
   114  H    0.020705
   115  H    0.027257
   116  H    0.032723
   117  H    0.019495
   118  H    0.025074
   119  H    0.011491
   120  H    0.009429
   121  H    0.010973
   122  H    0.004208
   123  H    0.021384
   124  H    0.023333
   125  H    0.027487
   126  H    0.028364
   127  H    0.019220
   128  H    0.023802
   129  H    0.013860
   130  H    0.019518
   131  H    0.022727
   132  H    0.014183
   133  H    0.025257
   134  H    0.019432
   135  H    0.050426
   136  H    0.020982
   137  H    0.028480
   138  H    0.030910
   139  H    0.015780
   140  H    0.023228
 Sum of Mulliken charges =  -0.00000

 Dipole moment (field-independent basis, Debye):
    X=              3.6354    Y=              2.5453    Z=              3.5188  Tot=              5.6636
 Quadrupole moment (field-independent basis, Debye-Ang):
   XX=           -370.8545   YY=           -454.4625   ZZ=           -370.4269
   XY=             20.0717   XZ=              1.9393   YZ=             16.3777

 Normal termination of Gaussian 16 at Wed May  4 14:39:26 2022.
