 Gaussian 16, Revision A.03,
 Gaussian 16:  ES64L-G16RevA.03 25-Dec-2016

 --------------------
 #p ZINDO=(nstates=5)
 --------------------

 -----------------------------
 step_1801_chromophore_2 ZINDO
 -----------------------------
 Symbolic Z-matrix:
 Charge =  0 Multiplicity = 1

                         Standard orientation:
 ---------------------------------------------------------------------
 Center     Atomic      Atomic             Coordinates (Angstroms)
 Number     Number       Type             X           Y           Z
 ---------------------------------------------------------------------
      1         12           0        4.020180    1.120243   -0.219519
      2          6           0        3.781716   -2.241295   -1.084467
      3          6           0        1.907659    1.795516   -2.915587
      4          6           0        3.879625    4.194044    0.785228
      5          6           0        6.045002    0.156369    2.442065
      6          7           0        2.987547   -0.128305   -1.713204
      7          6           0        3.020833   -1.466059   -1.925526
      8          6           0        2.056743   -2.007185   -2.970052
      9          6           0        1.629052   -0.665749   -3.705036
     10          6           0        2.257215    0.442063   -2.729774
     11          6           0        2.137677   -0.481105   -5.103496
     12          6           0        0.820121   -2.977273   -2.695269
     13          6           0        0.285156   -3.007789   -1.238707
     14          6           0       -1.178947   -2.887901   -1.022090
     15          8           0       -2.030028   -3.576337   -1.630119
     16          8           0       -1.480862   -1.894315   -0.103440
     17          7           0        3.063726    2.825504   -0.989740
     18          6           0        2.261192    2.924930   -2.099552
     19          6           0        1.685923    4.183945   -2.203299
     20          6           0        2.407325    4.951806   -1.200486
     21          6           0        3.164163    4.012745   -0.438710
     22          6           0        0.949216    4.601035   -3.395533
     23          6           0        2.130523    6.408175   -0.947085
     24          8           0        1.258006    7.023967   -1.648196
     25          6           0        2.863167    7.180072    0.173296
     26          7           0        4.772544    2.051470    1.429041
     27          6           0        4.596557    3.350956    1.577448
     28          6           0        5.216841    3.828692    2.946904
     29          6           0        5.793875    2.500133    3.517935
     30          6           0        5.498485    1.483119    2.420819
     31          6           0        6.164266    5.113398    2.962063
     32          6           0        5.351555    2.069338    4.999787
     33          6           0        6.427624    2.058939    6.091711
     34          7           0        4.961610   -0.673319    0.514436
     35          6           0        5.763333   -0.882258    1.561112
     36          6           0        6.040774   -2.281580    1.660251
     37          6           0        5.299551   -2.882186    0.692624
     38          6           0        4.665721   -1.847523   -0.005314
     39          6           0        6.833388   -2.950457    2.632527
     40          6           0        4.993980   -4.065233    0.051774
     41          8           0        5.465681   -5.194818    0.262682
     42          6           0        3.951049   -3.739855   -1.099373
     43          6           0        4.493925   -4.343110   -2.315410
     44          8           0        3.772063   -4.986938   -3.119364
     45          8           0        5.806367   -4.083505   -2.512616
     46          6           0        6.363033   -4.744372   -3.801890
     47          6           0       -2.868985   -1.428877   -0.010079
     48          6           0       -3.684817   -2.543709    0.651296
     49          6           0       -3.881916   -2.804478    1.980889
     50          6           0       -3.121114   -2.027076    3.063737
     51          6           0       -4.571024   -4.066210    2.461778
     52          6           0       -5.937194   -3.954411    2.946772
     53          6           0       -7.093082   -4.433815    2.041347
     54          6           0       -8.373858   -3.576155    2.105934
     55          6           0       -9.657373   -4.462543    2.216339
     56          6           0       -8.535128   -2.683516    0.814046
     57          6           0       -9.075585   -1.305816    1.179257
     58          6           0       -8.033433   -0.288888    1.632459
     59          6           0       -7.467329    0.632757    0.485928
     60          6           0       -5.973571    0.498345    0.403568
     61          6           0       -7.847131    2.167357    0.734328
     62          6           0       -8.208018    3.008332   -0.584774
     63          6           0       -9.494974    3.795918   -0.402899
     64          6           0      -10.575562    3.758979   -1.626381
     65          6           0      -10.255577    4.809237   -2.687400
     66          6           0      -11.967159    3.921611   -1.035460
     67          1           0        1.357228    1.846779   -3.856116
     68          1           0        3.882850    5.157105    1.299664
     69          1           0        6.616601   -0.168962    3.313836
     70          1           0        2.563088   -2.772142   -3.558459
     71          1           0        0.540215   -0.651285   -3.752911
     72          1           0        2.590935    0.506589   -5.185593
     73          1           0        1.235520   -0.544429   -5.710965
     74          1           0        2.723382   -1.338231   -5.434820
     75          1           0        1.050843   -4.035607   -2.813546
     76          1           0        0.096633   -2.793187   -3.489472
     77          1           0        0.740133   -2.252026   -0.599378
     78          1           0        0.420706   -4.037527   -0.906094
     79          1           0       -0.104380    4.819047   -3.219477
     80          1           0        0.948480    3.762107   -4.091420
     81          1           0        1.310966    5.466470   -3.951760
     82          1           0        3.911930    6.883541    0.144459
     83          1           0        2.357206    7.158283    1.138585
     84          1           0        2.981745    8.235728   -0.073829
     85          1           0        4.348184    4.071446    3.559261
     86          1           0        6.869119    2.678723    3.542577
     87          1           0        7.138741    4.752745    3.290430
     88          1           0        5.796183    5.829274    3.695917
     89          1           0        6.220350    5.384252    1.907335
     90          1           0        5.043721    1.024251    4.946992
     91          1           0        4.554597    2.754291    5.288895
     92          1           0        7.395237    2.307400    5.656228
     93          1           0        6.456065    1.206242    6.770695
     94          1           0        6.197895    2.973982    6.637689
     95          1           0        6.130627   -3.596209    3.159364
     96          1           0        7.271626   -2.225341    3.317786
     97          1           0        7.689858   -3.546563    2.317600
     98          1           0        2.959443   -4.107277   -0.833725
     99          1           0        5.798196   -4.399357   -4.668578
    100          1           0        6.344082   -5.832082   -3.732768
    101          1           0        7.402809   -4.431510   -3.895530
    102          1           0       -3.284711   -1.198549   -0.991239
    103          1           0       -2.848954   -0.496187    0.553967
    104          1           0       -4.331187   -3.091664   -0.033150
    105          1           0       -2.370081   -1.338795    2.676493
    106          1           0       -2.866320   -2.657153    3.914391
    107          1           0       -3.918406   -1.378678    3.427374
    108          1           0       -3.958506   -4.354942    3.314839
    109          1           0       -4.424206   -4.839048    1.707138
    110          1           0       -6.009434   -2.906465    3.239546
    111          1           0       -6.041602   -4.571938    3.838306
    112          1           0       -7.444273   -5.381005    2.451552
    113          1           0       -6.710508   -4.544105    1.026301
    114          1           0       -8.398257   -2.961531    3.005677
    115          1           0       -9.980808   -4.579882    3.250999
    116          1           0       -9.542546   -5.453310    1.775910
    117          1           0      -10.445840   -3.928845    1.685337
    118          1           0       -9.197857   -3.163131    0.095059
    119          1           0       -7.513786   -2.560658    0.451764
    120          1           0       -9.896345   -1.370696    1.893634
    121          1           0       -9.596803   -1.017916    0.265993
    122          1           0       -7.186724   -0.858300    2.014351
    123          1           0       -8.470044    0.321603    2.423120
    124          1           0       -7.864546    0.418841   -0.506008
    125          1           0       -5.645087   -0.194628   -0.371022
    126          1           0       -5.506285    0.182565    1.337184
    127          1           0       -5.647747    1.510273    0.164785
    128          1           0       -7.116269    2.822064    1.207147
    129          1           0       -8.670848    2.170530    1.448794
    130          1           0       -8.176004    2.328262   -1.435970
    131          1           0       -7.383575    3.699109   -0.758052
    132          1           0       -9.356695    4.876708   -0.428859
    133          1           0       -9.865332    3.486940    0.574790
    134          1           0      -10.442455    2.821034   -2.163483
    135          1           0      -10.730763    4.602997   -3.646066
    136          1           0       -9.172125    4.696511   -2.738971
    137          1           0      -10.420537    5.790883   -2.242545
    138          1           0      -12.561617    3.010596   -1.084711
    139          1           0      -12.484447    4.731454   -1.550360
    140          1           0      -12.036157    4.207413    0.014600
 ---------------------------------------------------------------------

 SCF Done:  E(RZINDO/S) =  -474.443223098     A.U. after   19 cycles

 Excitation energies and oscillator strengths:

 Excited State   1:      Singlet-A      1.2658 eV  979.46 nm  f=0.6549  <S**2>=0.000
     175 ->178        -0.18341
     176 ->177         0.66498
 This state for optimization and/or second-order correction.
 Total Energy, E(CIS/TDA) =  -474.396704417
 Copying the excited state density for this state as the 1-particle RhoCI density.

 Excited State   2:      Singlet-A      1.9072 eV  650.08 nm  f=0.1212  <S**2>=0.000
     175 ->177         0.58995
     176 ->178         0.35856

 Excited State   3:      Singlet-A      2.8480 eV  435.33 nm  f=0.0007  <S**2>=0.000
     165 ->179        -0.11136
     168 ->177         0.38240
     168 ->179        -0.44410
     168 ->180         0.17676
     168 ->185        -0.17103
     168 ->196         0.11894

 Excited State   4:      Singlet-A      2.9276 eV  423.49 nm  f=0.0041  <S**2>=0.000
     170 ->177         0.27282
     170 ->178        -0.16524
     170 ->179         0.22675
     170 ->180         0.42314
     170 ->185         0.18741
     170 ->188        -0.16998
     173 ->177        -0.17588

 Excited State   5:      Singlet-A      3.0647 eV  404.56 nm  f=0.8123  <S**2>=0.000
     171 ->177         0.16878
     172 ->177         0.16247
     173 ->177         0.15352
     175 ->177        -0.29693
     176 ->178         0.48919
     176 ->179         0.23740

 The electronic state is 1-A.
 Alpha  occ. eigenvalues --   -1.89947  -1.84460  -1.81216  -1.73444  -1.72346
 Alpha  occ. eigenvalues --   -1.70911  -1.65153  -1.59728  -1.58640  -1.55307
 Alpha  occ. eigenvalues --   -1.54041  -1.51746  -1.49454  -1.48902  -1.48050
 Alpha  occ. eigenvalues --   -1.44808  -1.42705  -1.42141  -1.40156  -1.38410
 Alpha  occ. eigenvalues --   -1.38081  -1.36658  -1.32632  -1.30973  -1.29718
 Alpha  occ. eigenvalues --   -1.28602  -1.27953  -1.23467  -1.20841  -1.19029
 Alpha  occ. eigenvalues --   -1.16326  -1.15877  -1.14808  -1.13476  -1.13268
 Alpha  occ. eigenvalues --   -1.11769  -1.09755  -1.07916  -1.07357  -1.05470
 Alpha  occ. eigenvalues --   -1.04887  -1.03276  -0.99861  -0.98196  -0.96411
 Alpha  occ. eigenvalues --   -0.96085  -0.95186  -0.93412  -0.93096  -0.92308
 Alpha  occ. eigenvalues --   -0.91408  -0.90177  -0.89333  -0.88057  -0.86656
 Alpha  occ. eigenvalues --   -0.86089  -0.84422  -0.84116  -0.82097  -0.81497
 Alpha  occ. eigenvalues --   -0.79464  -0.78508  -0.78166  -0.76997  -0.76965
 Alpha  occ. eigenvalues --   -0.76615  -0.75828  -0.75484  -0.75050  -0.73747
 Alpha  occ. eigenvalues --   -0.72507  -0.72179  -0.71851  -0.70836  -0.70375
 Alpha  occ. eigenvalues --   -0.70274  -0.69460  -0.68870  -0.68343  -0.68098
 Alpha  occ. eigenvalues --   -0.67681  -0.66910  -0.66087  -0.65768  -0.65390
 Alpha  occ. eigenvalues --   -0.65179  -0.65119  -0.64708  -0.64444  -0.64072
 Alpha  occ. eigenvalues --   -0.63537  -0.63002  -0.62781  -0.62586  -0.62344
 Alpha  occ. eigenvalues --   -0.61497  -0.61395  -0.61142  -0.60725  -0.60260
 Alpha  occ. eigenvalues --   -0.59516  -0.58701  -0.58543  -0.58440  -0.57952
 Alpha  occ. eigenvalues --   -0.57610  -0.57404  -0.57096  -0.56580  -0.56419
 Alpha  occ. eigenvalues --   -0.56292  -0.55984  -0.55644  -0.55546  -0.54696
 Alpha  occ. eigenvalues --   -0.54435  -0.54133  -0.53725  -0.53465  -0.53094
 Alpha  occ. eigenvalues --   -0.52647  -0.52003  -0.51965  -0.51790  -0.51427
 Alpha  occ. eigenvalues --   -0.51300  -0.50885  -0.50540  -0.50131  -0.49731
 Alpha  occ. eigenvalues --   -0.49616  -0.49122  -0.49022  -0.48664  -0.48572
 Alpha  occ. eigenvalues --   -0.48430  -0.48133  -0.48023  -0.47824  -0.47608
 Alpha  occ. eigenvalues --   -0.47207  -0.47033  -0.46734  -0.46616  -0.46518
 Alpha  occ. eigenvalues --   -0.46477  -0.46402  -0.45823  -0.45440  -0.45287
 Alpha  occ. eigenvalues --   -0.44938  -0.44827  -0.44781  -0.44168  -0.43598
 Alpha  occ. eigenvalues --   -0.43421  -0.43145  -0.42799  -0.42484  -0.42014
 Alpha  occ. eigenvalues --   -0.41771  -0.41320  -0.40771  -0.39560  -0.38812
 Alpha  occ. eigenvalues --   -0.38416  -0.37737  -0.35754  -0.35680  -0.35085
 Alpha  occ. eigenvalues --   -0.34401  -0.33410  -0.32352  -0.31448  -0.27401
 Alpha  occ. eigenvalues --   -0.22941
 Alpha virt. eigenvalues --   -0.09803  -0.02484  -0.01340   0.00841   0.01557
 Alpha virt. eigenvalues --    0.01805   0.02128   0.02572   0.04221   0.04993
 Alpha virt. eigenvalues --    0.05646   0.05827   0.06767   0.07274   0.07757

 Mulliken charges:
               1
     1  Mg   0.427005
     2  C   -0.062978
     3  C   -0.071693
     4  C   -0.076839
     5  C   -0.067867
     6  N   -0.283345
     7  C    0.153562
     8  C   -0.012200
     9  C   -0.002805
    10  C    0.097229
    11  C   -0.051475
    12  C   -0.018535
    13  C    0.004902
    14  C    0.471936
    15  O   -0.533591
    16  O   -0.275195
    17  N   -0.311973
    18  C    0.092796
    19  C    0.025852
    20  C   -0.059626
    21  C    0.136166
    22  C   -0.031336
    23  C    0.314143
    24  O   -0.548226
    25  C   -0.034250
    26  N   -0.248019
    27  C    0.119100
    28  C   -0.017368
    29  C   -0.003643
    30  C    0.139617
    31  C   -0.056243
    32  C   -0.030341
    33  C   -0.061669
    34  N   -0.320192
    35  C    0.114196
    36  C    0.076103
    37  C   -0.044990
    38  C    0.122913
    39  C   -0.033513
    40  C    0.329044
    41  O   -0.533190
    42  C    0.054532
    43  C    0.497989
    44  O   -0.552582
    45  O   -0.256861
    46  C    0.077082
    47  C    0.111511
    48  C   -0.086439
    49  C   -0.010762
    50  C   -0.052467
    51  C   -0.008299
    52  C   -0.024130
    53  C   -0.034589
    54  C   -0.020446
    55  C   -0.062330
    56  C   -0.034708
    57  C   -0.034486
    58  C   -0.030347
    59  C   -0.010835
    60  C   -0.056061
    61  C   -0.052027
    62  C   -0.038683
    63  C   -0.045737
    64  C   -0.013076
    65  C   -0.057765
    66  C   -0.055287
    67  H    0.037678
    68  H    0.021932
    69  H    0.028177
    70  H    0.043303
    71  H    0.035809
    72  H    0.033498
    73  H    0.014065
    74  H    0.027591
    75  H    0.033218
    76  H    0.039202
    77  H    0.036315
    78  H    0.053886
    79  H    0.034260
    80  H    0.011119
    81  H    0.038870
    82  H    0.026588
    83  H    0.050110
    84  H    0.028929
    85  H    0.023331
    86  H    0.028441
    87  H    0.020550
    88  H    0.034578
    89  H    0.034522
    90  H    0.021591
    91  H    0.028895
    92  H    0.020330
    93  H    0.034394
    94  H    0.012201
    95  H    0.040926
    96  H    0.011674
    97  H    0.044990
    98  H    0.057675
    99  H    0.048783
   100  H    0.055107
   101  H    0.032001
   102  H    0.043324
   103  H    0.035060
   104  H    0.033470
   105  H    0.032135
   106  H    0.031813
   107  H    0.019400
   108  H    0.012406
   109  H    0.024210
   110  H    0.019565
   111  H    0.011501
   112  H    0.016806
   113  H    0.029112
   114  H    0.024187
   115  H    0.013546
   116  H    0.021910
   117  H    0.014135
   118  H    0.026424
   119  H    0.019033
   120  H    0.014220
   121  H    0.007100
   122  H    0.021378
   123  H    0.021068
   124  H    0.028968
   125  H    0.017256
   126  H    0.019177
   127  H    0.014578
   128  H    0.020414
   129  H    0.014253
   130  H    0.022989
   131  H    0.014631
   132  H    0.019380
   133  H    0.027123
   134  H    0.018355
   135  H    0.029208
   136  H    0.012263
   137  H    0.023369
   138  H    0.015181
   139  H    0.013053
   140  H    0.016801
 Sum of Mulliken charges =  -0.00000

 Dipole moment (field-independent basis, Debye):
    X=              5.7591    Y=              3.1985    Z=              6.6464  Tot=              9.3580
 N-N= 4.516567637841D+03 E-N= 0.000000000000D+00  KE=-9.707109035208D+03
 Leave Link  601 at Wed May  4 14:53:02 2022, MaxMem=  6710886400 cpu:               0.8 elap:               0.0
 (Enter /sw/apps/gaussian-16.0/g16/l9999.exe)
 1\1\GINC-BP1-COMPUTE122\SP\RZINDO CIS\STO-3G\C55H74Mg1N4O6\OF15641\04-
 May-2022\0\\#p ZINDO=(nstates=5)\\step_1801_chromophore_2 ZINDO\\0,1\M
 g,0,2.096,-0.301,41.956\C,0,5.432,0.633,41.634\C,0,1.262,2.874,40.768\
 C,0,-0.994,-1.259,41.848\C,0,3.209,-3.415,43.041\N,0,3.262,1.437,41.26
 6\C,0,4.6,1.646,41.223\C,0,5.061,2.926,40.543\C,0,3.697,3.737,40.477\C
 ,0,2.64,2.612,40.913\C,0,3.589,4.933,41.375\C,0,5.898,3.022,39.188\C,0
 ,5.849,1.776,38.264\C,0,5.58,1.98,36.818\O,0,6.191,2.811,36.108\O,0,4.

 Normal termination of Gaussian 16 at Wed May  4 14:53:02 2022.
