 Gaussian 16, Revision A.03,
 Gaussian 16:  ES64L-G16RevA.03 25-Dec-2016

 ------------------------------
 #p blyp/Def2SVP td=(nstates=5)
 ------------------------------

 --------------------------------------------------
 step_351_chromophore_26 TDDFT with blyp functional
 --------------------------------------------------
 Symbolic Z-matrix:
 Charge =  0 Multiplicity = 1

                         Standard orientation:
 ---------------------------------------------------------------------
 Center     Atomic      Atomic             Coordinates (Angstroms)
 Number     Number       Type             X           Y           Z
 ---------------------------------------------------------------------
      1         12           0       -3.507603    1.572834    0.506439
      2          6           0       -4.804275   -1.718098    0.260767
      3          6           0       -1.832625    0.602582    3.319408
      4          6           0       -2.168469    4.542178    0.400026
      5          6           0       -4.812789    2.103793   -2.826224
      6          7           0       -3.330915   -0.355764    1.610384
      7          6           0       -3.991519   -1.491573    1.360421
      8          6           0       -3.750829   -2.505598    2.477633
      9          6           0       -2.848525   -1.692050    3.538742
     10          6           0       -2.607521   -0.402655    2.780007
     11          6           0       -3.314768   -1.745052    5.058526
     12          6           0       -2.991878   -3.800774    2.004474
     13          6           0       -1.756087   -3.581953    1.086330
     14          6           0       -0.781786   -4.656044    0.741609
     15          8           0       -0.155238   -5.348560    1.544002
     16          8           0       -0.559677   -4.713193   -0.645335
     17          7           0       -2.213651    2.498045    1.746480
     18          6           0       -1.610112    1.918614    2.829309
     19          6           0       -0.808848    2.961426    3.517259
     20          6           0       -0.887380    4.151437    2.702421
     21          6           0       -1.791057    3.805633    1.605887
     22          6           0       -0.067193    2.692910    4.766615
     23          6           0       -0.243102    5.477352    2.980423
     24          8           0        0.480165    5.608343    3.941041
     25          6           0       -0.490220    6.618431    2.110875
     26          7           0       -3.621822    3.134757   -1.017214
     27          6           0       -2.984106    4.310790   -0.665015
     28          6           0       -3.260750    5.368502   -1.740541
     29          6           0       -3.862445    4.530562   -2.898452
     30          6           0       -4.166358    3.199469   -2.298503
     31          6           0       -3.982322    6.665893   -1.276758
     32          6           0       -2.974218    4.377140   -4.146059
     33          6           0       -3.594392    3.699234   -5.376196
     34          7           0       -4.638375    0.530663   -1.018430
     35          6           0       -5.018323    0.839498   -2.276797
     36          6           0       -5.694253   -0.313395   -2.912490
     37          6           0       -5.725025   -1.289112   -1.917827
     38          6           0       -4.934937   -0.777721   -0.804765
     39          6           0       -6.204763   -0.382546   -4.369292
     40          6           0       -6.121754   -2.581249   -1.608404
     41          8           0       -6.769437   -3.394219   -2.269709
     42          6           0       -5.549736   -2.947970   -0.213937
     43          6           0       -6.652323   -3.296943    0.732544
     44          8           0       -6.668532   -4.290899    1.458759
     45          8           0       -7.543614   -2.259589    0.778256
     46          6           0       -8.617504   -2.117072    1.783124
     47          6           0        0.491745   -5.605320   -1.102698
     48          6           0        1.808654   -4.868295   -1.089660
     49          6           0        2.518661   -4.260246   -2.067950
     50          6           0        2.006020   -4.041342   -3.501242
     51          6           0        3.944752   -3.771617   -1.863812
     52          6           0        4.152911   -2.272428   -1.439672
     53          6           0        5.209354   -1.610213   -2.311803
     54          6           0        6.212194   -0.819140   -1.533412
     55          6           0        6.858285    0.375494   -2.301878
     56          6           0        7.267225   -1.769401   -0.980985
     57          6           0        7.711983   -1.412939    0.453392
     58          6           0        9.085033   -2.035865    0.789457
     59          6           0       10.119531   -0.968985    1.350632
     60          6           0       10.136739   -1.115855    2.883627
     61          6           0       11.506488   -1.055032    0.667020
     62          6           0       11.620623   -0.093727   -0.600662
     63          6           0       11.743814    1.401184   -0.371958
     64          6           0       10.498636    2.213927   -0.913942
     65          6           0       10.934679    3.106102   -2.085383
     66          6           0        9.862890    2.934542    0.287694
     67          1           0       -1.493871    0.235679    4.290624
     68          1           0       -1.712098    5.521199    0.238816
     69          1           0       -5.209449    2.255780   -3.832052
     70          1           0       -4.704536   -2.866353    2.860872
     71          1           0       -1.821155   -2.053953    3.571930
     72          1           0       -4.217021   -2.352431    5.120203
     73          1           0       -3.597036   -0.765788    5.445298
     74          1           0       -2.580066   -2.260115    5.678201
     75          1           0       -3.692862   -4.498182    1.545131
     76          1           0       -2.572210   -4.336708    2.856026
     77          1           0       -1.261750   -2.707688    1.508079
     78          1           0       -2.202081   -3.238429    0.152624
     79          1           0        0.976753    2.711215    4.454983
     80          1           0       -0.152894    1.701269    5.209412
     81          1           0       -0.271756    3.541060    5.420664
     82          1           0       -1.568658    6.730967    1.996392
     83          1           0        0.016969    6.629903    1.146059
     84          1           0       -0.014966    7.480129    2.578155
     85          1           0       -2.299563    5.697722   -2.133193
     86          1           0       -4.819716    4.947705   -3.210363
     87          1           0       -4.814220    6.922092   -1.932430
     88          1           0       -3.316383    7.520163   -1.395729
     89          1           0       -4.252395    6.496871   -0.234286
     90          1           0       -2.082689    3.806148   -3.888134
     91          1           0       -2.574997    5.333706   -4.481854
     92          1           0       -3.239660    2.699596   -5.626294
     93          1           0       -3.535475    4.405274   -6.204200
     94          1           0       -4.678062    3.657757   -5.263165
     95          1           0       -7.047674    0.285411   -4.549568
     96          1           0       -6.530367   -1.390083   -4.626075
     97          1           0       -5.493229   -0.071252   -5.134101
     98          1           0       -4.794565   -3.733871   -0.225306
     99          1           0       -9.585013   -2.323675    1.323985
    100          1           0       -8.608782   -1.108124    2.195455
    101          1           0       -8.543599   -2.856862    2.580518
    102          1           0        0.115468   -5.933295   -2.071560
    103          1           0        0.507899   -6.415357   -0.373804
    104          1           0        2.460083   -5.095728   -0.245851
    105          1           0        2.543077   -4.760855   -4.119220
    106          1           0        2.237519   -3.030121   -3.836412
    107          1           0        0.945871   -4.295609   -3.512907
    108          1           0        4.285960   -3.945726   -2.884120
    109          1           0        4.592064   -4.403533   -1.254309
    110          1           0        4.505251   -2.309832   -0.409501
    111          1           0        3.247436   -1.693665   -1.623589
    112          1           0        4.704489   -0.972068   -3.036562
    113          1           0        5.721464   -2.276967   -3.004502
    114          1           0        5.708013   -0.219572   -0.774954
    115          1           0        6.335384    0.458074   -3.254756
    116          1           0        7.898029    0.199321   -2.577451
    117          1           0        6.685137    1.247543   -1.670632
    118          1           0        8.211744   -1.735708   -1.524947
    119          1           0        7.010249   -2.802325   -1.212280
    120          1           0        6.873379   -1.862490    0.984633
    121          1           0        7.593690   -0.333214    0.534901
    122          1           0        9.503682   -2.546061   -0.078115
    123          1           0        8.892534   -2.815793    1.526190
    124          1           0        9.837162    0.070738    1.179742
    125          1           0        9.533695   -1.959027    3.219372
    126          1           0        9.656225   -0.207609    3.247416
    127          1           0       11.132548   -1.032044    3.318536
    128          1           0       11.616678   -2.104080    0.392053
    129          1           0       12.263695   -0.826531    1.417600
    130          1           0       10.741492   -0.287077   -1.214250
    131          1           0       12.492597   -0.489689   -1.121209
    132          1           0       12.624007    1.741639   -0.915903
    133          1           0       11.779249    1.764288    0.655406
    134          1           0        9.607489    1.695354   -1.266941
    135          1           0       10.523293    2.805045   -3.048878
    136          1           0       11.983105    2.959969   -2.346016
    137          1           0       10.653877    4.126784   -1.826319
    138          1           0       10.407887    3.768706    0.729579
    139          1           0        9.486029    2.236031    1.034995
    140          1           0        9.104713    3.542471   -0.205467
 ---------------------------------------------------------------------

 SCF Done:  E(RB-LYP) =  -3007.37436367     A.U. after   22 cycles

 Excitation energies and oscillator strengths:

 Excited State   1:      Singlet-A      1.7821 eV  695.73 nm  f=0.0703  <S**2>=0.000
     244 -> 247        0.55524
     245 -> 247       -0.25983
     246 -> 247       -0.34501
 This state for optimization and/or second-order correction.
 Total Energy, E(TD-HF/TD-DFT) =  -3007.30887394
 Copying the excited state density for this state as the 1-particle RhoCI density.

 Excited State   2:      Singlet-A      1.8263 eV  678.87 nm  f=0.2518  <S**2>=0.000
     244 -> 247        0.30569
     245 -> 247       -0.15430
     245 -> 248        0.15401
     246 -> 247        0.59923
     246 <- 247       -0.13776

 Excited State   3:      Singlet-A      1.8603 eV  666.47 nm  f=0.0052  <S**2>=0.000
     243 -> 247        0.69455

 Excited State   4:      Singlet-A      2.0523 eV  604.13 nm  f=0.0765  <S**2>=0.000
     244 -> 247        0.28694
     245 -> 247        0.58388
     246 -> 248       -0.23265

 Excited State   5:      Singlet-A      2.3081 eV  537.16 nm  f=0.0000  <S**2>=0.000
     242 -> 247        0.70567

 The electronic state is 1-A.
 Alpha  occ. eigenvalues --  -46.27859 -18.82404 -18.80768 -18.76959 -18.76582
 Alpha  occ. eigenvalues --  -18.75256 -18.75180 -14.03680 -14.02817 -14.01813
 Alpha  occ. eigenvalues --  -14.01306 -10.04565 -10.03855  -9.99373  -9.98939
 Alpha  occ. eigenvalues --   -9.98737  -9.97075  -9.96964  -9.96857  -9.96538
 Alpha  occ. eigenvalues --   -9.96523  -9.96445  -9.96141  -9.95841  -9.95148
 Alpha  occ. eigenvalues --   -9.94552  -9.94518  -9.94495  -9.94146  -9.94109
 Alpha  occ. eigenvalues --   -9.94084  -9.93985  -9.93980  -9.93319  -9.93254
 Alpha  occ. eigenvalues --   -9.93204  -9.93140  -9.93120  -9.93116  -9.93100
 Alpha  occ. eigenvalues --   -9.93087  -9.92851  -9.92684  -9.92566  -9.92424
 Alpha  occ. eigenvalues --   -9.92291  -9.91972  -9.91915  -9.91871  -9.91785
 Alpha  occ. eigenvalues --   -9.91686  -9.91434  -9.91249  -9.91240  -9.91169
 Alpha  occ. eigenvalues --   -9.91124  -9.91025  -9.90978  -9.90885  -9.90842
 Alpha  occ. eigenvalues --   -9.90746  -9.90734  -9.90687  -9.90654  -9.90489
 Alpha  occ. eigenvalues --   -9.90242  -2.92384  -1.72821  -1.72271  -1.72086
 Alpha  occ. eigenvalues --   -0.97376  -0.96304  -0.92296  -0.90598  -0.89681
 Alpha  occ. eigenvalues --   -0.88942  -0.86933  -0.86122  -0.85454  -0.84716
 Alpha  occ. eigenvalues --   -0.76284  -0.73887  -0.72936  -0.72592  -0.72331
 Alpha  occ. eigenvalues --   -0.72197  -0.71949  -0.71766  -0.70755  -0.70005
 Alpha  occ. eigenvalues --   -0.69764  -0.69041  -0.68161  -0.68059  -0.67563
 Alpha  occ. eigenvalues --   -0.66755  -0.66142  -0.65699  -0.65452  -0.64758
 Alpha  occ. eigenvalues --   -0.64143  -0.62872  -0.62521  -0.62282  -0.61666
 Alpha  occ. eigenvalues --   -0.60498  -0.60417  -0.60313  -0.59230  -0.58958
 Alpha  occ. eigenvalues --   -0.58681  -0.58027  -0.57333  -0.55788  -0.55448
 Alpha  occ. eigenvalues --   -0.54634  -0.53715  -0.52907  -0.52520  -0.52018
 Alpha  occ. eigenvalues --   -0.51711  -0.51341  -0.51208  -0.50899  -0.49876
 Alpha  occ. eigenvalues --   -0.49871  -0.49058  -0.48732  -0.48444  -0.46840
 Alpha  occ. eigenvalues --   -0.46083  -0.45851  -0.45531  -0.44902  -0.44600
 Alpha  occ. eigenvalues --   -0.44179  -0.43877  -0.43608  -0.42767  -0.42525
 Alpha  occ. eigenvalues --   -0.42413  -0.42209  -0.41452  -0.41236  -0.41044
 Alpha  occ. eigenvalues --   -0.40877  -0.40517  -0.40319  -0.40139  -0.39913
 Alpha  occ. eigenvalues --   -0.39803  -0.39709  -0.39411  -0.39389  -0.39294
 Alpha  occ. eigenvalues --   -0.39174  -0.39158  -0.39017  -0.38603  -0.38350
 Alpha  occ. eigenvalues --   -0.38211  -0.37965  -0.37727  -0.37639  -0.37347
 Alpha  occ. eigenvalues --   -0.37253  -0.36979  -0.36805  -0.36758  -0.36573
 Alpha  occ. eigenvalues --   -0.36548  -0.36330  -0.35977  -0.35632  -0.35516
 Alpha  occ. eigenvalues --   -0.35400  -0.35327  -0.35063  -0.34932  -0.34876
 Alpha  occ. eigenvalues --   -0.34780  -0.34724  -0.34466  -0.34391  -0.33978
 Alpha  occ. eigenvalues --   -0.33801  -0.33697  -0.33477  -0.33363  -0.33239
 Alpha  occ. eigenvalues --   -0.33194  -0.32953  -0.32788  -0.32593  -0.32557
 Alpha  occ. eigenvalues --   -0.32329  -0.32184  -0.31774  -0.31610  -0.31483
 Alpha  occ. eigenvalues --   -0.31390  -0.31251  -0.31176  -0.30719  -0.30681
 Alpha  occ. eigenvalues --   -0.30476  -0.30291  -0.30056  -0.29873  -0.29519
 Alpha  occ. eigenvalues --   -0.29500  -0.29321  -0.29310  -0.29245  -0.28962
 Alpha  occ. eigenvalues --   -0.28795  -0.28719  -0.28414  -0.28227  -0.28056
 Alpha  occ. eigenvalues --   -0.27537  -0.26868  -0.26775  -0.26595  -0.26516
 Alpha  occ. eigenvalues --   -0.26305  -0.26170  -0.25389  -0.25268  -0.24844
 Alpha  occ. eigenvalues --   -0.24720  -0.24076  -0.23975  -0.23909  -0.23574
 Alpha  occ. eigenvalues --   -0.23347  -0.22675  -0.21747  -0.21681  -0.21183
 Alpha  occ. eigenvalues --   -0.20529  -0.20453  -0.18758  -0.18524  -0.17681
 Alpha  occ. eigenvalues --   -0.16174
 Alpha virt. eigenvalues --   -0.11972  -0.06942  -0.06280  -0.04877  -0.03339
 Alpha virt. eigenvalues --   -0.03003  -0.02487  -0.02296  -0.01651  -0.00072
 Alpha virt. eigenvalues --    0.01147   0.01586   0.01940   0.02388   0.02674

 Mulliken charges:
               1
     1  Mg   0.682500
     2  C   -0.039355
     3  C   -0.054228
     4  C   -0.008072
     5  C   -0.081058
     6  N   -0.187820
     7  C   -0.067737
     8  C    0.023181
     9  C    0.012699
    10  C   -0.052419
    11  C    0.133158
    12  C    0.051640
    13  C    0.100081
    14  C    0.113752
    15  O   -0.197203
    16  O   -0.286671
    17  N   -0.330154
    18  C    0.184912
    19  C   -0.167097
    20  C    0.052776
    21  C    0.121255
    22  C    0.206735
    23  C   -0.112284
    24  O   -0.151368
    25  C    0.146202
    26  N   -0.244394
    27  C   -0.016756
    28  C    0.012188
    29  C    0.067822
    30  C    0.014063
    31  C    0.148059
    32  C    0.086118
    33  C    0.082402
    34  N   -0.205136
    35  C    0.104202
    36  C   -0.163017
    37  C    0.133596
    38  C    0.055733
    39  C    0.162249
    40  C   -0.081214
    41  O   -0.139166
    42  C    0.124674
    43  C    0.123268
    44  O   -0.175189
    45  O   -0.289101
    46  C    0.212727
    47  C    0.348194
    48  C   -0.075333
    49  C   -0.196709
    50  C    0.137928
    51  C    0.104020
    52  C    0.136991
    53  C    0.095847
    54  C   -0.101751
    55  C    0.109806
    56  C    0.072262
    57  C    0.079239
    58  C    0.129129
    59  C   -0.107216
    60  C    0.125415
    61  C    0.099912
    62  C    0.075814
    63  C    0.146422
    64  C   -0.141248
    65  C    0.118111
    66  C    0.082344
    67  H   -0.065807
    68  H   -0.083238
    69  H   -0.084126
    70  H   -0.003905
    71  H   -0.010854
    72  H   -0.009953
    73  H   -0.000355
    74  H   -0.000536
    75  H    0.002406
    76  H   -0.013331
    77  H    0.006238
    78  H   -0.010848
    79  H    0.003559
    80  H   -0.022227
    81  H    0.017292
    82  H    0.011938
    83  H    0.018227
    84  H   -0.020046
    85  H   -0.030779
    86  H   -0.039179
    87  H   -0.011020
    88  H   -0.011095
    89  H    0.003927
    90  H   -0.026173
    91  H   -0.024580
    92  H    0.012211
    93  H   -0.020843
    94  H   -0.015305
    95  H   -0.005178
    96  H    0.009157
    97  H   -0.007093
    98  H   -0.005064
    99  H    0.022120
   100  H    0.023213
   101  H    0.017426
   102  H   -0.009253
   103  H   -0.013370
   104  H   -0.035967
   105  H    0.005721
   106  H    0.000166
   107  H   -0.003651
   108  H   -0.040826
   109  H   -0.020793
   110  H   -0.008784
   111  H   -0.020615
   112  H   -0.059178
   113  H   -0.038768
   114  H   -0.041459
   115  H   -0.035802
   116  H   -0.003826
   117  H   -0.002676
   118  H   -0.048829
   119  H   -0.040418
   120  H   -0.033814
   121  H   -0.020682
   122  H   -0.029166
   123  H   -0.030326
   124  H   -0.031091
   125  H   -0.010476
   126  H   -0.031637
   127  H   -0.024308
   128  H   -0.040293
   129  H   -0.042301
   130  H   -0.024826
   131  H   -0.034576
   132  H   -0.031753
   133  H   -0.030946
   134  H   -0.018905
   135  H   -0.023302
   136  H   -0.026147
   137  H   -0.016354
   138  H   -0.025324
   139  H    0.005601
   140  H   -0.032952
 Sum of Mulliken charges =  -0.00000

 Dipole moment (field-independent basis, Debye):
    X=             -0.3689    Y=              5.5121    Z=             -2.6066  Tot=              6.1085
 Quadrupole moment (field-independent basis, Debye-Ang):
   XX=           -402.6716   YY=           -427.1292   ZZ=           -397.1287
   XY=            -44.0235   XZ=            -22.8903   YZ=            -21.2983

 Normal termination of Gaussian 16 at Fri Apr 29 15:58:42 2022.
