 Gaussian 16, Revision A.03,
 Gaussian 16:  ES64L-G16RevA.03 25-Dec-2016

 -----------------------------------
 #p cam-b3lyp/Def2SVP td=(nstates=5)
 -----------------------------------

 -------------------------------------------------------
 step_351_chromophore_26 TDDFT with cam-b3lyp functional
 -------------------------------------------------------
 Symbolic Z-matrix:
 Charge =  0 Multiplicity = 1

                         Standard orientation:
 ---------------------------------------------------------------------
 Center     Atomic      Atomic             Coordinates (Angstroms)
 Number     Number       Type             X           Y           Z
 ---------------------------------------------------------------------
      1         12           0       -3.507603    1.572834    0.506439
      2          6           0       -4.804275   -1.718098    0.260767
      3          6           0       -1.832625    0.602582    3.319408
      4          6           0       -2.168469    4.542178    0.400026
      5          6           0       -4.812789    2.103793   -2.826224
      6          7           0       -3.330915   -0.355764    1.610384
      7          6           0       -3.991519   -1.491573    1.360421
      8          6           0       -3.750829   -2.505598    2.477633
      9          6           0       -2.848525   -1.692050    3.538742
     10          6           0       -2.607521   -0.402655    2.780007
     11          6           0       -3.314768   -1.745052    5.058526
     12          6           0       -2.991878   -3.800774    2.004474
     13          6           0       -1.756087   -3.581953    1.086330
     14          6           0       -0.781786   -4.656044    0.741609
     15          8           0       -0.155238   -5.348560    1.544002
     16          8           0       -0.559677   -4.713193   -0.645335
     17          7           0       -2.213651    2.498045    1.746480
     18          6           0       -1.610112    1.918614    2.829309
     19          6           0       -0.808848    2.961426    3.517259
     20          6           0       -0.887380    4.151437    2.702421
     21          6           0       -1.791057    3.805633    1.605887
     22          6           0       -0.067193    2.692910    4.766615
     23          6           0       -0.243102    5.477352    2.980423
     24          8           0        0.480165    5.608343    3.941041
     25          6           0       -0.490220    6.618431    2.110875
     26          7           0       -3.621822    3.134757   -1.017214
     27          6           0       -2.984106    4.310790   -0.665015
     28          6           0       -3.260750    5.368502   -1.740541
     29          6           0       -3.862445    4.530562   -2.898452
     30          6           0       -4.166358    3.199469   -2.298503
     31          6           0       -3.982322    6.665893   -1.276758
     32          6           0       -2.974218    4.377140   -4.146059
     33          6           0       -3.594392    3.699234   -5.376196
     34          7           0       -4.638375    0.530663   -1.018430
     35          6           0       -5.018323    0.839498   -2.276797
     36          6           0       -5.694253   -0.313395   -2.912490
     37          6           0       -5.725025   -1.289112   -1.917827
     38          6           0       -4.934937   -0.777721   -0.804765
     39          6           0       -6.204763   -0.382546   -4.369292
     40          6           0       -6.121754   -2.581249   -1.608404
     41          8           0       -6.769437   -3.394219   -2.269709
     42          6           0       -5.549736   -2.947970   -0.213937
     43          6           0       -6.652323   -3.296943    0.732544
     44          8           0       -6.668532   -4.290899    1.458759
     45          8           0       -7.543614   -2.259589    0.778256
     46          6           0       -8.617504   -2.117072    1.783124
     47          6           0        0.491745   -5.605320   -1.102698
     48          6           0        1.808654   -4.868295   -1.089660
     49          6           0        2.518661   -4.260246   -2.067950
     50          6           0        2.006020   -4.041342   -3.501242
     51          6           0        3.944752   -3.771617   -1.863812
     52          6           0        4.152911   -2.272428   -1.439672
     53          6           0        5.209354   -1.610213   -2.311803
     54          6           0        6.212194   -0.819140   -1.533412
     55          6           0        6.858285    0.375494   -2.301878
     56          6           0        7.267225   -1.769401   -0.980985
     57          6           0        7.711983   -1.412939    0.453392
     58          6           0        9.085033   -2.035865    0.789457
     59          6           0       10.119531   -0.968985    1.350632
     60          6           0       10.136739   -1.115855    2.883627
     61          6           0       11.506488   -1.055032    0.667020
     62          6           0       11.620623   -0.093727   -0.600662
     63          6           0       11.743814    1.401184   -0.371958
     64          6           0       10.498636    2.213927   -0.913942
     65          6           0       10.934679    3.106102   -2.085383
     66          6           0        9.862890    2.934542    0.287694
     67          1           0       -1.493871    0.235679    4.290624
     68          1           0       -1.712098    5.521199    0.238816
     69          1           0       -5.209449    2.255780   -3.832052
     70          1           0       -4.704536   -2.866353    2.860872
     71          1           0       -1.821155   -2.053953    3.571930
     72          1           0       -4.217021   -2.352431    5.120203
     73          1           0       -3.597036   -0.765788    5.445298
     74          1           0       -2.580066   -2.260115    5.678201
     75          1           0       -3.692862   -4.498182    1.545131
     76          1           0       -2.572210   -4.336708    2.856026
     77          1           0       -1.261750   -2.707688    1.508079
     78          1           0       -2.202081   -3.238429    0.152624
     79          1           0        0.976753    2.711215    4.454983
     80          1           0       -0.152894    1.701269    5.209412
     81          1           0       -0.271756    3.541060    5.420664
     82          1           0       -1.568658    6.730967    1.996392
     83          1           0        0.016969    6.629903    1.146059
     84          1           0       -0.014966    7.480129    2.578155
     85          1           0       -2.299563    5.697722   -2.133193
     86          1           0       -4.819716    4.947705   -3.210363
     87          1           0       -4.814220    6.922092   -1.932430
     88          1           0       -3.316383    7.520163   -1.395729
     89          1           0       -4.252395    6.496871   -0.234286
     90          1           0       -2.082689    3.806148   -3.888134
     91          1           0       -2.574997    5.333706   -4.481854
     92          1           0       -3.239660    2.699596   -5.626294
     93          1           0       -3.535475    4.405274   -6.204200
     94          1           0       -4.678062    3.657757   -5.263165
     95          1           0       -7.047674    0.285411   -4.549568
     96          1           0       -6.530367   -1.390083   -4.626075
     97          1           0       -5.493229   -0.071252   -5.134101
     98          1           0       -4.794565   -3.733871   -0.225306
     99          1           0       -9.585013   -2.323675    1.323985
    100          1           0       -8.608782   -1.108124    2.195455
    101          1           0       -8.543599   -2.856862    2.580518
    102          1           0        0.115468   -5.933295   -2.071560
    103          1           0        0.507899   -6.415357   -0.373804
    104          1           0        2.460083   -5.095728   -0.245851
    105          1           0        2.543077   -4.760855   -4.119220
    106          1           0        2.237519   -3.030121   -3.836412
    107          1           0        0.945871   -4.295609   -3.512907
    108          1           0        4.285960   -3.945726   -2.884120
    109          1           0        4.592064   -4.403533   -1.254309
    110          1           0        4.505251   -2.309832   -0.409501
    111          1           0        3.247436   -1.693665   -1.623589
    112          1           0        4.704489   -0.972068   -3.036562
    113          1           0        5.721464   -2.276967   -3.004502
    114          1           0        5.708013   -0.219572   -0.774954
    115          1           0        6.335384    0.458074   -3.254756
    116          1           0        7.898029    0.199321   -2.577451
    117          1           0        6.685137    1.247543   -1.670632
    118          1           0        8.211744   -1.735708   -1.524947
    119          1           0        7.010249   -2.802325   -1.212280
    120          1           0        6.873379   -1.862490    0.984633
    121          1           0        7.593690   -0.333214    0.534901
    122          1           0        9.503682   -2.546061   -0.078115
    123          1           0        8.892534   -2.815793    1.526190
    124          1           0        9.837162    0.070738    1.179742
    125          1           0        9.533695   -1.959027    3.219372
    126          1           0        9.656225   -0.207609    3.247416
    127          1           0       11.132548   -1.032044    3.318536
    128          1           0       11.616678   -2.104080    0.392053
    129          1           0       12.263695   -0.826531    1.417600
    130          1           0       10.741492   -0.287077   -1.214250
    131          1           0       12.492597   -0.489689   -1.121209
    132          1           0       12.624007    1.741639   -0.915903
    133          1           0       11.779249    1.764288    0.655406
    134          1           0        9.607489    1.695354   -1.266941
    135          1           0       10.523293    2.805045   -3.048878
    136          1           0       11.983105    2.959969   -2.346016
    137          1           0       10.653877    4.126784   -1.826319
    138          1           0       10.407887    3.768706    0.729579
    139          1           0        9.486029    2.236031    1.034995
    140          1           0        9.104713    3.542471   -0.205467
 ---------------------------------------------------------------------

 SCF Done:  E(RCAM-B3LYP) =  -3007.17024535     A.U. after   17 cycles

 Excitation energies and oscillator strengths:

 Excited State   1:      Singlet-A      1.6963 eV  730.92 nm  f=0.3879  <S**2>=0.000
     245 -> 248       -0.17297
     246 -> 247        0.68819
     245 <- 248       -0.10763
 This state for optimization and/or second-order correction.
 Total Energy, E(TD-HF/TD-DFT) =  -3007.10790839
 Copying the excited state density for this state as the 1-particle RhoCI density.

 Excited State   2:      Singlet-A      2.2485 eV  551.41 nm  f=0.1122  <S**2>=0.000
     245 -> 247        0.64442
     246 -> 248        0.28031

 Excited State   3:      Singlet-A      3.3025 eV  375.42 nm  f=0.0014  <S**2>=0.000
     239 -> 247       -0.10133
     240 -> 247       -0.34959
     240 -> 249        0.24144
     242 -> 247        0.46181
     242 -> 249       -0.17870
     244 -> 247       -0.11092

 Excited State   4:      Singlet-A      3.3790 eV  366.93 nm  f=0.0003  <S**2>=0.000
     239 -> 247       -0.12360
     240 -> 247       -0.10468
     244 -> 247        0.66939

 Excited State   5:      Singlet-A      3.5434 eV  349.90 nm  f=0.1551  <S**2>=0.000
     239 -> 247       -0.12215
     240 -> 247       -0.38236
     240 -> 249        0.11845
     242 -> 247       -0.34970
     245 -> 247       -0.13284
     246 -> 248        0.40542

 The electronic state is 1-A.
 Alpha  occ. eigenvalues --  -46.89477 -19.25403 -19.23561 -19.20148 -19.19588
 Alpha  occ. eigenvalues --  -19.18682 -19.18285 -14.42619 -14.41674 -14.40249
 Alpha  occ. eigenvalues --  -14.39923 -10.40135 -10.39260 -10.34504 -10.34268
 Alpha  occ. eigenvalues --  -10.32806 -10.31522 -10.31286 -10.31133 -10.31123
 Alpha  occ. eigenvalues --  -10.30808 -10.30787 -10.30405 -10.30205 -10.29824
 Alpha  occ. eigenvalues --  -10.29451 -10.28694 -10.28532 -10.28479 -10.28455
 Alpha  occ. eigenvalues --  -10.28392 -10.28073 -10.28014 -10.27289 -10.27219
 Alpha  occ. eigenvalues --  -10.27148 -10.27118 -10.27074 -10.27040 -10.26948
 Alpha  occ. eigenvalues --  -10.26865 -10.26830 -10.26759 -10.26700 -10.26118
 Alpha  occ. eigenvalues --  -10.25909 -10.25644 -10.25575 -10.25564 -10.25544
 Alpha  occ. eigenvalues --  -10.25451 -10.25367 -10.25140 -10.24907 -10.24866
 Alpha  occ. eigenvalues --  -10.24804 -10.24801 -10.24623 -10.24516 -10.24510
 Alpha  occ. eigenvalues --  -10.24330 -10.24310 -10.24240 -10.24231 -10.24101
 Alpha  occ. eigenvalues --  -10.23788  -3.17901  -1.92817  -1.92356  -1.92197
 Alpha  occ. eigenvalues --   -1.15967  -1.14723  -1.10563  -1.09267  -1.07710
 Alpha  occ. eigenvalues --   -1.06770  -1.04794  -1.03882  -1.02998  -1.02195
 Alpha  occ. eigenvalues --   -0.93657  -0.90722  -0.89668  -0.89364  -0.89076
 Alpha  occ. eigenvalues --   -0.88846  -0.88638  -0.88415  -0.87300  -0.86644
 Alpha  occ. eigenvalues --   -0.86290  -0.85422  -0.84411  -0.84296  -0.83751
 Alpha  occ. eigenvalues --   -0.82852  -0.82152  -0.81473  -0.81446  -0.80640
 Alpha  occ. eigenvalues --   -0.79906  -0.78557  -0.78146  -0.77839  -0.77236
 Alpha  occ. eigenvalues --   -0.75850  -0.75736  -0.75600  -0.74489  -0.74138
 Alpha  occ. eigenvalues --   -0.73855  -0.73067  -0.72253  -0.70589  -0.70253
 Alpha  occ. eigenvalues --   -0.69312  -0.68215  -0.67338  -0.66904  -0.66178
 Alpha  occ. eigenvalues --   -0.65842  -0.65462  -0.65258  -0.64950  -0.63861
 Alpha  occ. eigenvalues --   -0.63640  -0.62972  -0.62507  -0.62298  -0.60553
 Alpha  occ. eigenvalues --   -0.59647  -0.59347  -0.59039  -0.58312  -0.58060
 Alpha  occ. eigenvalues --   -0.57560  -0.57375  -0.56825  -0.56083  -0.55539
 Alpha  occ. eigenvalues --   -0.55500  -0.55314  -0.54691  -0.54488  -0.53750
 Alpha  occ. eigenvalues --   -0.53527  -0.53333  -0.53024  -0.52883  -0.52814
 Alpha  occ. eigenvalues --   -0.52386  -0.52196  -0.51985  -0.51896  -0.51823
 Alpha  occ. eigenvalues --   -0.51745  -0.51606  -0.51469  -0.51291  -0.50938
 Alpha  occ. eigenvalues --   -0.50872  -0.50227  -0.49925  -0.49809  -0.49698
 Alpha  occ. eigenvalues --   -0.49522  -0.49498  -0.49380  -0.49066  -0.48969
 Alpha  occ. eigenvalues --   -0.48767  -0.48571  -0.48422  -0.47964  -0.47548
 Alpha  occ. eigenvalues --   -0.47360  -0.47286  -0.47183  -0.46901  -0.46745
 Alpha  occ. eigenvalues --   -0.46651  -0.46537  -0.46464  -0.46306  -0.46028
 Alpha  occ. eigenvalues --   -0.45738  -0.45383  -0.45331  -0.45187  -0.45095
 Alpha  occ. eigenvalues --   -0.44866  -0.44603  -0.44452  -0.44126  -0.44102
 Alpha  occ. eigenvalues --   -0.43876  -0.43732  -0.43431  -0.43091  -0.43021
 Alpha  occ. eigenvalues --   -0.42935  -0.42756  -0.42614  -0.42301  -0.42051
 Alpha  occ. eigenvalues --   -0.41889  -0.41798  -0.41618  -0.41175  -0.41037
 Alpha  occ. eigenvalues --   -0.40767  -0.40527  -0.40414  -0.40386  -0.40131
 Alpha  occ. eigenvalues --   -0.39928  -0.39792  -0.39441  -0.39212  -0.39088
 Alpha  occ. eigenvalues --   -0.38670  -0.37899  -0.37709  -0.37559  -0.37293
 Alpha  occ. eigenvalues --   -0.37074  -0.36942  -0.36889  -0.36134  -0.35408
 Alpha  occ. eigenvalues --   -0.35266  -0.35062  -0.34839  -0.34538  -0.34288
 Alpha  occ. eigenvalues --   -0.33967  -0.33826  -0.33266  -0.31575  -0.31148
 Alpha  occ. eigenvalues --   -0.31022  -0.30591  -0.30074  -0.29684  -0.24568
 Alpha  occ. eigenvalues --   -0.21467
 Alpha virt. eigenvalues --   -0.09197  -0.01762   0.00083   0.02129   0.02365
 Alpha virt. eigenvalues --    0.04387   0.04744   0.04990   0.05268   0.06277
 Alpha virt. eigenvalues --    0.07903   0.08048   0.08694   0.08723   0.08934

 Mulliken charges:
               1
     1  Mg   0.815409
     2  C   -0.067354
     3  C   -0.063604
     4  C   -0.037076
     5  C   -0.095644
     6  N   -0.260257
     7  C   -0.022741
     8  C   -0.027470
     9  C   -0.044795
    10  C   -0.031171
    11  C    0.073675
    12  C    0.007997
    13  C    0.026761
    14  C    0.202040
    15  O   -0.238514
    16  O   -0.352288
    17  N   -0.418546
    18  C    0.187187
    19  C   -0.167820
    20  C   -0.021135
    21  C    0.151745
    22  C    0.147177
    23  C   -0.028649
    24  O   -0.192444
    25  C    0.054241
    26  N   -0.316478
    27  C    0.006521
    28  C   -0.044901
    29  C    0.009463
    30  C    0.041949
    31  C    0.089402
    32  C    0.031371
    33  C    0.013732
    34  N   -0.291688
    35  C    0.114716
    36  C   -0.149730
    37  C    0.049414
    38  C    0.095227
    39  C    0.111770
    40  C    0.017262
    41  O   -0.175971
    42  C    0.043092
    43  C    0.215906
    44  O   -0.215968
    45  O   -0.354313
    46  C    0.178768
    47  C    0.300656
    48  C   -0.096601
    49  C   -0.210928
    50  C    0.078229
    51  C    0.046569
    52  C    0.079065
    53  C    0.039783
    54  C   -0.160878
    55  C    0.057738
    56  C    0.023190
    57  C    0.032625
    58  C    0.069326
    59  C   -0.156992
    60  C    0.069039
    61  C    0.050729
    62  C    0.024084
    63  C    0.082928
    64  C   -0.194357
    65  C    0.059497
    66  C    0.025468
    67  H   -0.030206
    68  H   -0.047595
    69  H   -0.046562
    70  H    0.030275
    71  H    0.022363
    72  H    0.014391
    73  H    0.024683
    74  H    0.024236
    75  H    0.029190
    76  H    0.019780
    77  H    0.036604
    78  H    0.021863
    79  H    0.030240
    80  H    0.004301
    81  H    0.043500
    82  H    0.038174
    83  H    0.046594
    84  H    0.017153
    85  H    0.005495
    86  H   -0.002824
    87  H    0.013899
    88  H    0.012682
    89  H    0.028688
    90  H    0.004173
    91  H    0.005480
    92  H    0.035615
    93  H    0.006399
    94  H    0.006151
    95  H    0.021963
    96  H    0.038487
    97  H    0.019009
    98  H    0.036438
    99  H    0.043255
   100  H    0.044774
   101  H    0.042479
   102  H    0.021156
   103  H    0.023888
   104  H   -0.004267
   105  H    0.029050
   106  H    0.022476
   107  H    0.020431
   108  H   -0.012182
   109  H    0.008561
   110  H    0.017475
   111  H    0.010099
   112  H   -0.027941
   113  H   -0.009695
   114  H   -0.007644
   115  H   -0.009397
   116  H    0.016161
   117  H    0.018105
   118  H   -0.022094
   119  H   -0.012501
   120  H   -0.006220
   121  H    0.003566
   122  H   -0.001414
   123  H   -0.000612
   124  H   -0.009388
   125  H    0.012690
   126  H   -0.006926
   127  H    0.000872
   128  H   -0.011360
   129  H   -0.013572
   130  H   -0.001986
   131  H   -0.004238
   132  H   -0.001595
   133  H   -0.001226
   134  H    0.006992
   135  H    0.001602
   136  H   -0.001565
   137  H    0.007272
   138  H    0.000000
   139  H    0.027386
   140  H   -0.008545
 Sum of Mulliken charges =  -0.00000

 Dipole moment (field-independent basis, Debye):
    X=             -0.7400    Y=              5.5998    Z=             -2.9694  Tot=              6.3814
 Quadrupole moment (field-independent basis, Debye-Ang):
   XX=           -400.2122   YY=           -424.8864   ZZ=           -395.2502
   XY=            -43.9107   XZ=            -22.2202   YZ=            -22.6276

 Normal termination of Gaussian 16 at Fri Apr 29 14:59:45 2022.
