 Gaussian 16, Revision A.03,
 Gaussian 16:  ES64L-G16RevA.03 25-Dec-2016

 ---------------------------------
 #p PBE1PBE/Def2SVP td=(nstates=5)
 ---------------------------------

 -----------------------------------------------------
 step_351_chromophore_26 TDDFT with PBE1PBE functional
 -----------------------------------------------------
 Symbolic Z-matrix:
 Charge =  0 Multiplicity = 1

                         Standard orientation:
 ---------------------------------------------------------------------
 Center     Atomic      Atomic             Coordinates (Angstroms)
 Number     Number       Type             X           Y           Z
 ---------------------------------------------------------------------
      1         12           0       -3.507603    1.572834    0.506439
      2          6           0       -4.804275   -1.718098    0.260767
      3          6           0       -1.832625    0.602582    3.319408
      4          6           0       -2.168469    4.542178    0.400026
      5          6           0       -4.812789    2.103793   -2.826224
      6          7           0       -3.330915   -0.355764    1.610384
      7          6           0       -3.991519   -1.491573    1.360421
      8          6           0       -3.750829   -2.505598    2.477633
      9          6           0       -2.848525   -1.692050    3.538742
     10          6           0       -2.607521   -0.402655    2.780007
     11          6           0       -3.314768   -1.745052    5.058526
     12          6           0       -2.991878   -3.800774    2.004474
     13          6           0       -1.756087   -3.581953    1.086330
     14          6           0       -0.781786   -4.656044    0.741609
     15          8           0       -0.155238   -5.348560    1.544002
     16          8           0       -0.559677   -4.713193   -0.645335
     17          7           0       -2.213651    2.498045    1.746480
     18          6           0       -1.610112    1.918614    2.829309
     19          6           0       -0.808848    2.961426    3.517259
     20          6           0       -0.887380    4.151437    2.702421
     21          6           0       -1.791057    3.805633    1.605887
     22          6           0       -0.067193    2.692910    4.766615
     23          6           0       -0.243102    5.477352    2.980423
     24          8           0        0.480165    5.608343    3.941041
     25          6           0       -0.490220    6.618431    2.110875
     26          7           0       -3.621822    3.134757   -1.017214
     27          6           0       -2.984106    4.310790   -0.665015
     28          6           0       -3.260750    5.368502   -1.740541
     29          6           0       -3.862445    4.530562   -2.898452
     30          6           0       -4.166358    3.199469   -2.298503
     31          6           0       -3.982322    6.665893   -1.276758
     32          6           0       -2.974218    4.377140   -4.146059
     33          6           0       -3.594392    3.699234   -5.376196
     34          7           0       -4.638375    0.530663   -1.018430
     35          6           0       -5.018323    0.839498   -2.276797
     36          6           0       -5.694253   -0.313395   -2.912490
     37          6           0       -5.725025   -1.289112   -1.917827
     38          6           0       -4.934937   -0.777721   -0.804765
     39          6           0       -6.204763   -0.382546   -4.369292
     40          6           0       -6.121754   -2.581249   -1.608404
     41          8           0       -6.769437   -3.394219   -2.269709
     42          6           0       -5.549736   -2.947970   -0.213937
     43          6           0       -6.652323   -3.296943    0.732544
     44          8           0       -6.668532   -4.290899    1.458759
     45          8           0       -7.543614   -2.259589    0.778256
     46          6           0       -8.617504   -2.117072    1.783124
     47          6           0        0.491745   -5.605320   -1.102698
     48          6           0        1.808654   -4.868295   -1.089660
     49          6           0        2.518661   -4.260246   -2.067950
     50          6           0        2.006020   -4.041342   -3.501242
     51          6           0        3.944752   -3.771617   -1.863812
     52          6           0        4.152911   -2.272428   -1.439672
     53          6           0        5.209354   -1.610213   -2.311803
     54          6           0        6.212194   -0.819140   -1.533412
     55          6           0        6.858285    0.375494   -2.301878
     56          6           0        7.267225   -1.769401   -0.980985
     57          6           0        7.711983   -1.412939    0.453392
     58          6           0        9.085033   -2.035865    0.789457
     59          6           0       10.119531   -0.968985    1.350632
     60          6           0       10.136739   -1.115855    2.883627
     61          6           0       11.506488   -1.055032    0.667020
     62          6           0       11.620623   -0.093727   -0.600662
     63          6           0       11.743814    1.401184   -0.371958
     64          6           0       10.498636    2.213927   -0.913942
     65          6           0       10.934679    3.106102   -2.085383
     66          6           0        9.862890    2.934542    0.287694
     67          1           0       -1.493871    0.235679    4.290624
     68          1           0       -1.712098    5.521199    0.238816
     69          1           0       -5.209449    2.255780   -3.832052
     70          1           0       -4.704536   -2.866353    2.860872
     71          1           0       -1.821155   -2.053953    3.571930
     72          1           0       -4.217021   -2.352431    5.120203
     73          1           0       -3.597036   -0.765788    5.445298
     74          1           0       -2.580066   -2.260115    5.678201
     75          1           0       -3.692862   -4.498182    1.545131
     76          1           0       -2.572210   -4.336708    2.856026
     77          1           0       -1.261750   -2.707688    1.508079
     78          1           0       -2.202081   -3.238429    0.152624
     79          1           0        0.976753    2.711215    4.454983
     80          1           0       -0.152894    1.701269    5.209412
     81          1           0       -0.271756    3.541060    5.420664
     82          1           0       -1.568658    6.730967    1.996392
     83          1           0        0.016969    6.629903    1.146059
     84          1           0       -0.014966    7.480129    2.578155
     85          1           0       -2.299563    5.697722   -2.133193
     86          1           0       -4.819716    4.947705   -3.210363
     87          1           0       -4.814220    6.922092   -1.932430
     88          1           0       -3.316383    7.520163   -1.395729
     89          1           0       -4.252395    6.496871   -0.234286
     90          1           0       -2.082689    3.806148   -3.888134
     91          1           0       -2.574997    5.333706   -4.481854
     92          1           0       -3.239660    2.699596   -5.626294
     93          1           0       -3.535475    4.405274   -6.204200
     94          1           0       -4.678062    3.657757   -5.263165
     95          1           0       -7.047674    0.285411   -4.549568
     96          1           0       -6.530367   -1.390083   -4.626075
     97          1           0       -5.493229   -0.071252   -5.134101
     98          1           0       -4.794565   -3.733871   -0.225306
     99          1           0       -9.585013   -2.323675    1.323985
    100          1           0       -8.608782   -1.108124    2.195455
    101          1           0       -8.543599   -2.856862    2.580518
    102          1           0        0.115468   -5.933295   -2.071560
    103          1           0        0.507899   -6.415357   -0.373804
    104          1           0        2.460083   -5.095728   -0.245851
    105          1           0        2.543077   -4.760855   -4.119220
    106          1           0        2.237519   -3.030121   -3.836412
    107          1           0        0.945871   -4.295609   -3.512907
    108          1           0        4.285960   -3.945726   -2.884120
    109          1           0        4.592064   -4.403533   -1.254309
    110          1           0        4.505251   -2.309832   -0.409501
    111          1           0        3.247436   -1.693665   -1.623589
    112          1           0        4.704489   -0.972068   -3.036562
    113          1           0        5.721464   -2.276967   -3.004502
    114          1           0        5.708013   -0.219572   -0.774954
    115          1           0        6.335384    0.458074   -3.254756
    116          1           0        7.898029    0.199321   -2.577451
    117          1           0        6.685137    1.247543   -1.670632
    118          1           0        8.211744   -1.735708   -1.524947
    119          1           0        7.010249   -2.802325   -1.212280
    120          1           0        6.873379   -1.862490    0.984633
    121          1           0        7.593690   -0.333214    0.534901
    122          1           0        9.503682   -2.546061   -0.078115
    123          1           0        8.892534   -2.815793    1.526190
    124          1           0        9.837162    0.070738    1.179742
    125          1           0        9.533695   -1.959027    3.219372
    126          1           0        9.656225   -0.207609    3.247416
    127          1           0       11.132548   -1.032044    3.318536
    128          1           0       11.616678   -2.104080    0.392053
    129          1           0       12.263695   -0.826531    1.417600
    130          1           0       10.741492   -0.287077   -1.214250
    131          1           0       12.492597   -0.489689   -1.121209
    132          1           0       12.624007    1.741639   -0.915903
    133          1           0       11.779249    1.764288    0.655406
    134          1           0        9.607489    1.695354   -1.266941
    135          1           0       10.523293    2.805045   -3.048878
    136          1           0       11.983105    2.959969   -2.346016
    137          1           0       10.653877    4.126784   -1.826319
    138          1           0       10.407887    3.768706    0.729579
    139          1           0        9.486029    2.236031    1.034995
    140          1           0        9.104713    3.542471   -0.205467
 ---------------------------------------------------------------------

 SCF Done:  E(RPBE1PBE) =  -3005.35950888     A.U. after   15 cycles

 Excitation energies and oscillator strengths:

 Excited State   1:      Singlet-A      1.8533 eV  668.99 nm  f=0.3750  <S**2>=0.000
     245 -> 248       -0.16578
     246 -> 247        0.69601
     246 <- 247       -0.11484
 This state for optimization and/or second-order correction.
 Total Energy, E(TD-HF/TD-DFT) =  -3005.29140139
 Copying the excited state density for this state as the 1-particle RhoCI density.

 Excited State   2:      Singlet-A      2.2511 eV  550.76 nm  f=0.1072  <S**2>=0.000
     245 -> 247        0.65490
     246 -> 248        0.25385

 Excited State   3:      Singlet-A      2.8369 eV  437.04 nm  f=0.0012  <S**2>=0.000
     240 -> 247        0.10202
     242 -> 247        0.65432
     242 -> 249       -0.17125
     243 -> 247        0.11377

 Excited State   4:      Singlet-A      2.9894 eV  414.74 nm  f=0.0022  <S**2>=0.000
     242 -> 247       -0.10596
     243 -> 247        0.66723
     244 -> 247       -0.16812

 Excited State   5:      Singlet-A      3.1064 eV  399.12 nm  f=0.0001  <S**2>=0.000
     241 -> 247        0.68013
     241 -> 249        0.10980
     241 -> 250        0.11735

 The electronic state is 1-A.
 Alpha  occ. eigenvalues --  -46.92844 -19.25952 -19.24263 -19.20316 -19.19834
 Alpha  occ. eigenvalues --  -19.18735 -19.18602 -14.42086 -14.41236 -14.39962
 Alpha  occ. eigenvalues --  -14.39463 -10.37069 -10.36243 -10.31494 -10.31448
 Alpha  occ. eigenvalues --  -10.29929 -10.29142 -10.29117 -10.28735 -10.28636
 Alpha  occ. eigenvalues --  -10.28569 -10.28471 -10.28115 -10.27914 -10.27381
 Alpha  occ. eigenvalues --  -10.26918 -10.26504 -10.26365 -10.26332 -10.26131
 Alpha  occ. eigenvalues --  -10.26025 -10.25859 -10.25848 -10.24953 -10.24886
 Alpha  occ. eigenvalues --  -10.24856 -10.24729 -10.24676 -10.24667 -10.24488
 Alpha  occ. eigenvalues --  -10.24483 -10.24332 -10.24267 -10.24158 -10.23553
 Alpha  occ. eigenvalues --  -10.23266 -10.23125 -10.23119 -10.23072 -10.23046
 Alpha  occ. eigenvalues --  -10.23038 -10.23021 -10.22853 -10.22569 -10.22499
 Alpha  occ. eigenvalues --  -10.22345 -10.22341 -10.22157 -10.22088 -10.22081
 Alpha  occ. eigenvalues --  -10.21787 -10.21765 -10.21732 -10.21667 -10.21646
 Alpha  occ. eigenvalues --  -10.21187  -3.14853  -1.87709  -1.87226  -1.87071
 Alpha  occ. eigenvalues --   -1.10624  -1.09489  -1.05419  -1.03830  -1.02449
 Alpha  occ. eigenvalues --   -1.01610  -0.99341  -0.98456  -0.97675  -0.96873
 Alpha  occ. eigenvalues --   -0.87900  -0.84822  -0.83958  -0.83482  -0.83241
 Alpha  occ. eigenvalues --   -0.83154  -0.82778  -0.82750  -0.81424  -0.80905
 Alpha  occ. eigenvalues --   -0.80674  -0.79670  -0.78624  -0.78538  -0.77939
 Alpha  occ. eigenvalues --   -0.77115  -0.76334  -0.75784  -0.75693  -0.74821
 Alpha  occ. eigenvalues --   -0.74079  -0.72860  -0.72419  -0.72130  -0.71493
 Alpha  occ. eigenvalues --   -0.70070  -0.69964  -0.69794  -0.68632  -0.68402
 Alpha  occ. eigenvalues --   -0.68140  -0.67414  -0.66663  -0.64947  -0.64583
 Alpha  occ. eigenvalues --   -0.63714  -0.62453  -0.61845  -0.61145  -0.60584
 Alpha  occ. eigenvalues --   -0.60301  -0.59810  -0.59627  -0.59528  -0.58133
 Alpha  occ. eigenvalues --   -0.58027  -0.57159  -0.56971  -0.56472  -0.55065
 Alpha  occ. eigenvalues --   -0.54263  -0.53889  -0.53436  -0.52877  -0.52547
 Alpha  occ. eigenvalues --   -0.51978  -0.51752  -0.51385  -0.50548  -0.50104
 Alpha  occ. eigenvalues --   -0.49890  -0.49798  -0.49093  -0.48991  -0.48252
 Alpha  occ. eigenvalues --   -0.48052  -0.47895  -0.47547  -0.47434  -0.47278
 Alpha  occ. eigenvalues --   -0.46894  -0.46711  -0.46550  -0.46481  -0.46343
 Alpha  occ. eigenvalues --   -0.46296  -0.46192  -0.45962  -0.45907  -0.45420
 Alpha  occ. eigenvalues --   -0.45373  -0.44737  -0.44542  -0.44346  -0.44247
 Alpha  occ. eigenvalues --   -0.44152  -0.44045  -0.43923  -0.43641  -0.43520
 Alpha  occ. eigenvalues --   -0.43404  -0.43180  -0.43102  -0.42644  -0.42174
 Alpha  occ. eigenvalues --   -0.42023  -0.41888  -0.41856  -0.41593  -0.41441
 Alpha  occ. eigenvalues --   -0.41335  -0.41193  -0.41116  -0.40970  -0.40671
 Alpha  occ. eigenvalues --   -0.40396  -0.40111  -0.40038  -0.39919  -0.39872
 Alpha  occ. eigenvalues --   -0.39442  -0.39312  -0.39111  -0.39074  -0.38794
 Alpha  occ. eigenvalues --   -0.38682  -0.38474  -0.38144  -0.37919  -0.37822
 Alpha  occ. eigenvalues --   -0.37656  -0.37644  -0.37426  -0.37078  -0.36918
 Alpha  occ. eigenvalues --   -0.36649  -0.36541  -0.36470  -0.35995  -0.35893
 Alpha  occ. eigenvalues --   -0.35535  -0.35461  -0.35282  -0.35187  -0.35032
 Alpha  occ. eigenvalues --   -0.34716  -0.34693  -0.34197  -0.34025  -0.33983
 Alpha  occ. eigenvalues --   -0.33446  -0.32918  -0.32718  -0.32399  -0.32071
 Alpha  occ. eigenvalues --   -0.31843  -0.31774  -0.31748  -0.31213  -0.30302
 Alpha  occ. eigenvalues --   -0.30192  -0.29985  -0.29749  -0.29414  -0.29327
 Alpha  occ. eigenvalues --   -0.28894  -0.28842  -0.28596  -0.27165  -0.26329
 Alpha  occ. eigenvalues --   -0.25848  -0.25575  -0.25414  -0.25383  -0.21465
 Alpha  occ. eigenvalues --   -0.19114
 Alpha virt. eigenvalues --   -0.11627  -0.05270  -0.04076  -0.02319  -0.00488
 Alpha virt. eigenvalues --    0.00023   0.00169   0.00731   0.01123   0.02576
 Alpha virt. eigenvalues --    0.03992   0.04635   0.04800   0.05260   0.05635

 Mulliken charges:
               1
     1  Mg   0.961210
     2  C   -0.067637
     3  C   -0.059193
     4  C   -0.045407
     5  C   -0.091475
     6  N   -0.372890
     7  C    0.053513
     8  C   -0.099307
     9  C   -0.114567
    10  C    0.009374
    11  C    0.013013
    12  C   -0.039556
    13  C   -0.057004
    14  C    0.273239
    15  O   -0.272405
    16  O   -0.381982
    17  N   -0.536496
    18  C    0.218411
    19  C   -0.195610
    20  C   -0.068586
    21  C    0.188578
    22  C    0.087230
    23  C    0.026256
    24  O   -0.229439
    25  C   -0.021381
    26  N   -0.415010
    27  C    0.040486
    28  C   -0.118909
    29  C   -0.073832
    30  C    0.090804
    31  C    0.029580
    32  C   -0.029038
    33  C   -0.058538
    34  N   -0.414414
    35  C    0.130518
    36  C   -0.154819
    37  C   -0.005333
    38  C    0.145732
    39  C    0.059860
    40  C    0.110592
    41  O   -0.225142
    42  C   -0.083222
    43  C    0.310637
    44  O   -0.255812
    45  O   -0.383645
    46  C    0.127504
    47  C    0.249519
    48  C   -0.104691
    49  C   -0.245217
    50  C    0.010281
    51  C   -0.016866
    52  C    0.014296
    53  C   -0.015517
    54  C   -0.251842
    55  C    0.001657
    56  C   -0.026831
    57  C   -0.030525
    58  C    0.011797
    59  C   -0.251337
    60  C    0.012936
    61  C   -0.003871
    62  C   -0.045872
    63  C    0.025633
    64  C   -0.288109
    65  C    0.003030
    66  C   -0.042446
    67  H    0.002855
    68  H   -0.012413
    69  H   -0.011082
    70  H    0.067747
    71  H    0.058858
    72  H    0.042813
    73  H    0.051831
    74  H    0.051030
    75  H    0.061029
    76  H    0.053049
    77  H    0.070993
    78  H    0.058253
    79  H    0.059863
    80  H    0.032111
    81  H    0.071282
    82  H    0.065348
    83  H    0.072672
    84  H    0.046025
    85  H    0.043696
    86  H    0.035649
    87  H    0.041522
    88  H    0.039646
    89  H    0.056360
    90  H    0.037983
    91  H    0.038246
    92  H    0.062841
    93  H    0.035436
    94  H    0.032909
    95  H    0.048577
    96  H    0.065190
    97  H    0.044898
    98  H    0.075506
    99  H    0.064453
   100  H    0.065525
   101  H    0.061737
   102  H    0.047891
   103  H    0.051444
   104  H    0.025788
   105  H    0.057356
   106  H    0.050539
   107  H    0.049116
   108  H    0.021227
   109  H    0.039121
   110  H    0.050958
   111  H    0.043477
   112  H    0.005378
   113  H    0.022268
   114  H    0.030308
   115  H    0.018953
   116  H    0.042089
   117  H    0.043692
   118  H    0.012204
   119  H    0.020582
   120  H    0.028684
   121  H    0.035752
   122  H    0.028990
   123  H    0.031699
   124  H    0.042116
   125  H    0.039033
   126  H    0.020797
   127  H    0.027484
   128  H    0.021536
   129  H    0.019239
   130  H    0.033777
   131  H    0.028854
   132  H    0.030894
   133  H    0.031827
   134  H    0.050003
   135  H    0.028935
   136  H    0.024863
   137  H    0.034025
   138  H    0.028676
   139  H    0.055706
   140  H    0.020367
 Sum of Mulliken charges =  -0.00000

 Dipole moment (field-independent basis, Debye):
    X=             -0.4815    Y=              5.9069    Z=             -2.8005  Tot=              6.5549
 Quadrupole moment (field-independent basis, Debye-Ang):
   XX=           -399.1783   YY=           -421.0108   ZZ=           -390.5559
   XY=            -44.5614   XZ=            -22.5008   YZ=            -23.4403

 Normal termination of Gaussian 16 at Fri Apr 29 15:16:53 2022.
