 Gaussian 16, Revision A.03,
 Gaussian 16:  ES64L-G16RevA.03 25-Dec-2016

 --------------------------------
 #p wB97XD/Def2SVP td=(nstates=5)
 --------------------------------

 ----------------------------------------------------
 step_351_chromophore_26 TDDFT with wB97XD functional
 ----------------------------------------------------
 Symbolic Z-matrix:
 Charge =  0 Multiplicity = 1

                         Standard orientation:
 ---------------------------------------------------------------------
 Center     Atomic      Atomic             Coordinates (Angstroms)
 Number     Number       Type             X           Y           Z
 ---------------------------------------------------------------------
      1         12           0       -3.507603    1.572834    0.506439
      2          6           0       -4.804275   -1.718098    0.260767
      3          6           0       -1.832625    0.602582    3.319408
      4          6           0       -2.168469    4.542178    0.400026
      5          6           0       -4.812789    2.103793   -2.826224
      6          7           0       -3.330915   -0.355764    1.610384
      7          6           0       -3.991519   -1.491573    1.360421
      8          6           0       -3.750829   -2.505598    2.477633
      9          6           0       -2.848525   -1.692050    3.538742
     10          6           0       -2.607521   -0.402655    2.780007
     11          6           0       -3.314768   -1.745052    5.058526
     12          6           0       -2.991878   -3.800774    2.004474
     13          6           0       -1.756087   -3.581953    1.086330
     14          6           0       -0.781786   -4.656044    0.741609
     15          8           0       -0.155238   -5.348560    1.544002
     16          8           0       -0.559677   -4.713193   -0.645335
     17          7           0       -2.213651    2.498045    1.746480
     18          6           0       -1.610112    1.918614    2.829309
     19          6           0       -0.808848    2.961426    3.517259
     20          6           0       -0.887380    4.151437    2.702421
     21          6           0       -1.791057    3.805633    1.605887
     22          6           0       -0.067193    2.692910    4.766615
     23          6           0       -0.243102    5.477352    2.980423
     24          8           0        0.480165    5.608343    3.941041
     25          6           0       -0.490220    6.618431    2.110875
     26          7           0       -3.621822    3.134757   -1.017214
     27          6           0       -2.984106    4.310790   -0.665015
     28          6           0       -3.260750    5.368502   -1.740541
     29          6           0       -3.862445    4.530562   -2.898452
     30          6           0       -4.166358    3.199469   -2.298503
     31          6           0       -3.982322    6.665893   -1.276758
     32          6           0       -2.974218    4.377140   -4.146059
     33          6           0       -3.594392    3.699234   -5.376196
     34          7           0       -4.638375    0.530663   -1.018430
     35          6           0       -5.018323    0.839498   -2.276797
     36          6           0       -5.694253   -0.313395   -2.912490
     37          6           0       -5.725025   -1.289112   -1.917827
     38          6           0       -4.934937   -0.777721   -0.804765
     39          6           0       -6.204763   -0.382546   -4.369292
     40          6           0       -6.121754   -2.581249   -1.608404
     41          8           0       -6.769437   -3.394219   -2.269709
     42          6           0       -5.549736   -2.947970   -0.213937
     43          6           0       -6.652323   -3.296943    0.732544
     44          8           0       -6.668532   -4.290899    1.458759
     45          8           0       -7.543614   -2.259589    0.778256
     46          6           0       -8.617504   -2.117072    1.783124
     47          6           0        0.491745   -5.605320   -1.102698
     48          6           0        1.808654   -4.868295   -1.089660
     49          6           0        2.518661   -4.260246   -2.067950
     50          6           0        2.006020   -4.041342   -3.501242
     51          6           0        3.944752   -3.771617   -1.863812
     52          6           0        4.152911   -2.272428   -1.439672
     53          6           0        5.209354   -1.610213   -2.311803
     54          6           0        6.212194   -0.819140   -1.533412
     55          6           0        6.858285    0.375494   -2.301878
     56          6           0        7.267225   -1.769401   -0.980985
     57          6           0        7.711983   -1.412939    0.453392
     58          6           0        9.085033   -2.035865    0.789457
     59          6           0       10.119531   -0.968985    1.350632
     60          6           0       10.136739   -1.115855    2.883627
     61          6           0       11.506488   -1.055032    0.667020
     62          6           0       11.620623   -0.093727   -0.600662
     63          6           0       11.743814    1.401184   -0.371958
     64          6           0       10.498636    2.213927   -0.913942
     65          6           0       10.934679    3.106102   -2.085383
     66          6           0        9.862890    2.934542    0.287694
     67          1           0       -1.493871    0.235679    4.290624
     68          1           0       -1.712098    5.521199    0.238816
     69          1           0       -5.209449    2.255780   -3.832052
     70          1           0       -4.704536   -2.866353    2.860872
     71          1           0       -1.821155   -2.053953    3.571930
     72          1           0       -4.217021   -2.352431    5.120203
     73          1           0       -3.597036   -0.765788    5.445298
     74          1           0       -2.580066   -2.260115    5.678201
     75          1           0       -3.692862   -4.498182    1.545131
     76          1           0       -2.572210   -4.336708    2.856026
     77          1           0       -1.261750   -2.707688    1.508079
     78          1           0       -2.202081   -3.238429    0.152624
     79          1           0        0.976753    2.711215    4.454983
     80          1           0       -0.152894    1.701269    5.209412
     81          1           0       -0.271756    3.541060    5.420664
     82          1           0       -1.568658    6.730967    1.996392
     83          1           0        0.016969    6.629903    1.146059
     84          1           0       -0.014966    7.480129    2.578155
     85          1           0       -2.299563    5.697722   -2.133193
     86          1           0       -4.819716    4.947705   -3.210363
     87          1           0       -4.814220    6.922092   -1.932430
     88          1           0       -3.316383    7.520163   -1.395729
     89          1           0       -4.252395    6.496871   -0.234286
     90          1           0       -2.082689    3.806148   -3.888134
     91          1           0       -2.574997    5.333706   -4.481854
     92          1           0       -3.239660    2.699596   -5.626294
     93          1           0       -3.535475    4.405274   -6.204200
     94          1           0       -4.678062    3.657757   -5.263165
     95          1           0       -7.047674    0.285411   -4.549568
     96          1           0       -6.530367   -1.390083   -4.626075
     97          1           0       -5.493229   -0.071252   -5.134101
     98          1           0       -4.794565   -3.733871   -0.225306
     99          1           0       -9.585013   -2.323675    1.323985
    100          1           0       -8.608782   -1.108124    2.195455
    101          1           0       -8.543599   -2.856862    2.580518
    102          1           0        0.115468   -5.933295   -2.071560
    103          1           0        0.507899   -6.415357   -0.373804
    104          1           0        2.460083   -5.095728   -0.245851
    105          1           0        2.543077   -4.760855   -4.119220
    106          1           0        2.237519   -3.030121   -3.836412
    107          1           0        0.945871   -4.295609   -3.512907
    108          1           0        4.285960   -3.945726   -2.884120
    109          1           0        4.592064   -4.403533   -1.254309
    110          1           0        4.505251   -2.309832   -0.409501
    111          1           0        3.247436   -1.693665   -1.623589
    112          1           0        4.704489   -0.972068   -3.036562
    113          1           0        5.721464   -2.276967   -3.004502
    114          1           0        5.708013   -0.219572   -0.774954
    115          1           0        6.335384    0.458074   -3.254756
    116          1           0        7.898029    0.199321   -2.577451
    117          1           0        6.685137    1.247543   -1.670632
    118          1           0        8.211744   -1.735708   -1.524947
    119          1           0        7.010249   -2.802325   -1.212280
    120          1           0        6.873379   -1.862490    0.984633
    121          1           0        7.593690   -0.333214    0.534901
    122          1           0        9.503682   -2.546061   -0.078115
    123          1           0        8.892534   -2.815793    1.526190
    124          1           0        9.837162    0.070738    1.179742
    125          1           0        9.533695   -1.959027    3.219372
    126          1           0        9.656225   -0.207609    3.247416
    127          1           0       11.132548   -1.032044    3.318536
    128          1           0       11.616678   -2.104080    0.392053
    129          1           0       12.263695   -0.826531    1.417600
    130          1           0       10.741492   -0.287077   -1.214250
    131          1           0       12.492597   -0.489689   -1.121209
    132          1           0       12.624007    1.741639   -0.915903
    133          1           0       11.779249    1.764288    0.655406
    134          1           0        9.607489    1.695354   -1.266941
    135          1           0       10.523293    2.805045   -3.048878
    136          1           0       11.983105    2.959969   -2.346016
    137          1           0       10.653877    4.126784   -1.826319
    138          1           0       10.407887    3.768706    0.729579
    139          1           0        9.486029    2.236031    1.034995
    140          1           0        9.104713    3.542471   -0.205467
 ---------------------------------------------------------------------

 SCF Done:  E(RwB97XD) =  -3007.87111524     A.U. after   19 cycles

 Excitation energies and oscillator strengths:

 Excited State   1:      Singlet-A      1.6380 eV  756.95 nm  f=0.3863  <S**2>=0.000
     245 -> 248       -0.17845
     246 -> 247        0.68579
     245 <- 248       -0.11684
 This state for optimization and/or second-order correction.
 Total Energy, E(TD-HF/TD-DFT) =  -3007.81092152
 Copying the excited state density for this state as the 1-particle RhoCI density.

 Excited State   2:      Singlet-A      2.1933 eV  565.28 nm  f=0.1090  <S**2>=0.000
     245 -> 247        0.64233
     246 -> 248        0.28317

 Excited State   3:      Singlet-A      3.3144 eV  374.07 nm  f=0.0020  <S**2>=0.000
     240 -> 247       -0.24861
     240 -> 249        0.21814
     242 -> 247        0.51971
     242 -> 249       -0.24049
     246 -> 248       -0.10259

 Excited State   4:      Singlet-A      3.4312 eV  361.34 nm  f=0.0004  <S**2>=0.000
     239 -> 247       -0.13457
     240 -> 247       -0.14091
     244 -> 247        0.65503

 Excited State   5:      Singlet-A      3.5556 eV  348.70 nm  f=0.2050  <S**2>=0.000
     240 -> 247       -0.42176
     240 -> 249        0.12595
     242 -> 247       -0.23199
     245 -> 247       -0.14873
     246 -> 248        0.44190

 The electronic state is 1-A.
 Alpha  occ. eigenvalues --  -46.95796 -19.30645 -19.28817 -19.25134 -19.24531
 Alpha  occ. eigenvalues --  -19.23805 -19.23242 -14.47210 -14.46290 -14.44822
 Alpha  occ. eigenvalues --  -14.44543 -10.44022 -10.43073 -10.38558 -10.38154
 Alpha  occ. eigenvalues --  -10.36531 -10.35561 -10.35299 -10.35172 -10.34989
 Alpha  occ. eigenvalues --  -10.34788 -10.34786 -10.34476 -10.34182 -10.33908
 Alpha  occ. eigenvalues --  -10.33681 -10.32781 -10.32609 -10.32549 -10.32538
 Alpha  occ. eigenvalues --  -10.32533 -10.32115 -10.32055 -10.31317 -10.31202
 Alpha  occ. eigenvalues --  -10.31199 -10.31117 -10.31017 -10.30944 -10.30812
 Alpha  occ. eigenvalues --  -10.30807 -10.30807 -10.30734 -10.30687 -10.29982
 Alpha  occ. eigenvalues --  -10.29718 -10.29639 -10.29486 -10.29480 -10.29474
 Alpha  occ. eigenvalues --  -10.29316 -10.29311 -10.29113 -10.28841 -10.28819
 Alpha  occ. eigenvalues --  -10.28719 -10.28702 -10.28513 -10.28433 -10.28423
 Alpha  occ. eigenvalues --  -10.28165 -10.28132 -10.28125 -10.28040 -10.28005
 Alpha  occ. eigenvalues --  -10.27595  -3.21677  -1.95281  -1.94796  -1.94636
 Alpha  occ. eigenvalues --   -1.18159  -1.16890  -1.12722  -1.11558  -1.09934
 Alpha  occ. eigenvalues --   -1.08975  -1.06816  -1.05921  -1.04991  -1.04205
 Alpha  occ. eigenvalues --   -0.95679  -0.92467  -0.91557  -0.91151  -0.90880
 Alpha  occ. eigenvalues --   -0.90747  -0.90423  -0.90346  -0.89062  -0.88629
 Alpha  occ. eigenvalues --   -0.88210  -0.87312  -0.86294  -0.86195  -0.85584
 Alpha  occ. eigenvalues --   -0.84750  -0.83979  -0.83435  -0.83360  -0.82490
 Alpha  occ. eigenvalues --   -0.81747  -0.80500  -0.80072  -0.79740  -0.79175
 Alpha  occ. eigenvalues --   -0.77651  -0.77629  -0.77453  -0.76295  -0.76019
 Alpha  occ. eigenvalues --   -0.75768  -0.75008  -0.74215  -0.72531  -0.72226
 Alpha  occ. eigenvalues --   -0.71282  -0.70068  -0.69299  -0.68758  -0.68127
 Alpha  occ. eigenvalues --   -0.67796  -0.67324  -0.67230  -0.66946  -0.65661
 Alpha  occ. eigenvalues --   -0.65639  -0.64780  -0.64459  -0.64112  -0.62548
 Alpha  occ. eigenvalues --   -0.61666  -0.61290  -0.60955  -0.60292  -0.60006
 Alpha  occ. eigenvalues --   -0.59502  -0.59262  -0.58777  -0.58058  -0.57531
 Alpha  occ. eigenvalues --   -0.57371  -0.57225  -0.56606  -0.56427  -0.55657
 Alpha  occ. eigenvalues --   -0.55405  -0.55272  -0.54915  -0.54811  -0.54705
 Alpha  occ. eigenvalues --   -0.54272  -0.54049  -0.53925  -0.53826  -0.53678
 Alpha  occ. eigenvalues --   -0.53659  -0.53515  -0.53316  -0.53228  -0.52885
 Alpha  occ. eigenvalues --   -0.52734  -0.52094  -0.51842  -0.51671  -0.51624
 Alpha  occ. eigenvalues --   -0.51482  -0.51436  -0.51303  -0.50956  -0.50881
 Alpha  occ. eigenvalues --   -0.50673  -0.50462  -0.50332  -0.49871  -0.49424
 Alpha  occ. eigenvalues --   -0.49266  -0.49139  -0.49101  -0.48822  -0.48612
 Alpha  occ. eigenvalues --   -0.48557  -0.48476  -0.48355  -0.48244  -0.47980
 Alpha  occ. eigenvalues --   -0.47663  -0.47266  -0.47239  -0.47130  -0.47042
 Alpha  occ. eigenvalues --   -0.46696  -0.46507  -0.46318  -0.46010  -0.45962
 Alpha  occ. eigenvalues --   -0.45821  -0.45611  -0.45301  -0.45090  -0.44961
 Alpha  occ. eigenvalues --   -0.44770  -0.44682  -0.44538  -0.44231  -0.43990
 Alpha  occ. eigenvalues --   -0.43830  -0.43718  -0.43547  -0.43076  -0.42947
 Alpha  occ. eigenvalues --   -0.42645  -0.42442  -0.42296  -0.42252  -0.42035
 Alpha  occ. eigenvalues --   -0.41778  -0.41672  -0.41277  -0.41044  -0.40986
 Alpha  occ. eigenvalues --   -0.40517  -0.39833  -0.39777  -0.39403  -0.39129
 Alpha  occ. eigenvalues --   -0.38917  -0.38896  -0.38778  -0.38126  -0.37272
 Alpha  occ. eigenvalues --   -0.37129  -0.36946  -0.36825  -0.36360  -0.36295
 Alpha  occ. eigenvalues --   -0.35790  -0.35730  -0.35525  -0.33774  -0.33258
 Alpha  occ. eigenvalues --   -0.32896  -0.32731  -0.32088  -0.31828  -0.26492
 Alpha  occ. eigenvalues --   -0.23264
 Alpha virt. eigenvalues --   -0.07555   0.00154   0.02116   0.04245   0.05477
 Alpha virt. eigenvalues --    0.06654   0.06868   0.07429   0.07761   0.08898
 Alpha virt. eigenvalues --    0.10661   0.11394   0.11433   0.11993   0.12285

 Mulliken charges:
               1
     1  Mg   0.953183
     2  C   -0.075723
     3  C   -0.070748
     4  C   -0.052142
     5  C   -0.105000
     6  N   -0.334587
     7  C    0.020418
     8  C   -0.074770
     9  C   -0.090127
    10  C   -0.009450
    11  C    0.023868
    12  C   -0.028066
    13  C   -0.033198
    14  C    0.262977
    15  O   -0.269154
    16  O   -0.382176
    17  N   -0.503686
    18  C    0.204412
    19  C   -0.184858
    20  C   -0.064750
    21  C    0.177599
    22  C    0.097241
    23  C    0.021673
    24  O   -0.224718
    25  C   -0.009686
    26  N   -0.385745
    27  C    0.029209
    28  C   -0.094254
    29  C   -0.042502
    30  C    0.074121
    31  C    0.041181
    32  C   -0.016944
    33  C   -0.043884
    34  N   -0.377497
    35  C    0.127864
    36  C   -0.155788
    37  C    0.000827
    38  C    0.128730
    39  C    0.068905
    40  C    0.093603
    41  O   -0.212603
    42  C   -0.033528
    43  C    0.284203
    44  O   -0.247756
    45  O   -0.384516
    46  C    0.142831
    47  C    0.266207
    48  C   -0.117706
    49  C   -0.234548
    50  C    0.026848
    51  C    0.004604
    52  C    0.026793
    53  C    0.002848
    54  C   -0.219733
    55  C    0.013342
    56  C   -0.009580
    57  C   -0.011169
    58  C    0.028822
    59  C   -0.206271
    60  C    0.024257
    61  C    0.008949
    62  C   -0.019914
    63  C    0.039390
    64  C   -0.253572
    65  C    0.013955
    66  C   -0.026843
    67  H   -0.005982
    68  H   -0.025263
    69  H   -0.022518
    70  H    0.057610
    71  H    0.046270
    72  H    0.036294
    73  H    0.046084
    74  H    0.046515
    75  H    0.052277
    76  H    0.045756
    77  H    0.061183
    78  H    0.046566
    79  H    0.054049
    80  H    0.027289
    81  H    0.066512
    82  H    0.057790
    83  H    0.068593
    84  H    0.044031
    85  H    0.032448
    86  H    0.024269
    87  H    0.035876
    88  H    0.034422
    89  H    0.049606
    90  H    0.029691
    91  H    0.031032
    92  H    0.057759
    93  H    0.030967
    94  H    0.024860
    95  H    0.044737
    96  H    0.063119
    97  H    0.040849
    98  H    0.066595
    99  H    0.060398
   100  H    0.062275
   101  H    0.058628
   102  H    0.044809
   103  H    0.047166
   104  H    0.022447
   105  H    0.051028
   106  H    0.044240
   107  H    0.042739
   108  H    0.008559
   109  H    0.033454
   110  H    0.041514
   111  H    0.036455
   112  H   -0.003477
   113  H    0.011645
   114  H    0.017501
   115  H    0.012888
   116  H    0.034382
   117  H    0.038768
   118  H   -0.003006
   119  H    0.010252
   120  H    0.018735
   121  H    0.024223
   122  H    0.018589
   123  H    0.023507
   124  H    0.005912
   125  H    0.032712
   126  H    0.015180
   127  H    0.021887
   128  H    0.013365
   129  H    0.010647
   130  H    0.017921
   131  H    0.022463
   132  H    0.022708
   133  H    0.021942
   134  H    0.029580
   135  H    0.023685
   136  H    0.018198
   137  H    0.028347
   138  H    0.022314
   139  H    0.051544
   140  H    0.012917
 Sum of Mulliken charges =  -0.00000

 Dipole moment (field-independent basis, Debye):
    X=             -0.8128    Y=              5.6878    Z=             -3.0737  Tot=              6.5161
 Quadrupole moment (field-independent basis, Debye-Ang):
   XX=           -396.2634   YY=           -421.0736   ZZ=           -390.6791
   XY=            -43.7239   XZ=            -21.6475   YZ=            -23.2636

 Normal termination of Gaussian 16 at Fri Apr 29 15:45:02 2022.
