 Gaussian 16, Revision A.03,
 Gaussian 16:  ES64L-G16RevA.03 25-Dec-2016

 --------------------
 #p ZINDO=(nstates=5)
 --------------------

 -----------------------------
 step_351_chromophore_26 ZINDO
 -----------------------------
 Symbolic Z-matrix:
 Charge =  0 Multiplicity = 1

                         Standard orientation:
 ---------------------------------------------------------------------
 Center     Atomic      Atomic             Coordinates (Angstroms)
 Number     Number       Type             X           Y           Z
 ---------------------------------------------------------------------
      1         12           0       -3.507603    1.572834    0.506439
      2          6           0       -4.804275   -1.718098    0.260767
      3          6           0       -1.832625    0.602582    3.319408
      4          6           0       -2.168469    4.542178    0.400026
      5          6           0       -4.812789    2.103793   -2.826224
      6          7           0       -3.330915   -0.355764    1.610384
      7          6           0       -3.991519   -1.491573    1.360421
      8          6           0       -3.750829   -2.505598    2.477633
      9          6           0       -2.848525   -1.692050    3.538742
     10          6           0       -2.607521   -0.402655    2.780007
     11          6           0       -3.314768   -1.745052    5.058526
     12          6           0       -2.991878   -3.800774    2.004474
     13          6           0       -1.756087   -3.581953    1.086330
     14          6           0       -0.781786   -4.656044    0.741609
     15          8           0       -0.155238   -5.348560    1.544002
     16          8           0       -0.559677   -4.713193   -0.645335
     17          7           0       -2.213651    2.498045    1.746480
     18          6           0       -1.610112    1.918614    2.829309
     19          6           0       -0.808848    2.961426    3.517259
     20          6           0       -0.887380    4.151437    2.702421
     21          6           0       -1.791057    3.805633    1.605887
     22          6           0       -0.067193    2.692910    4.766615
     23          6           0       -0.243102    5.477352    2.980423
     24          8           0        0.480165    5.608343    3.941041
     25          6           0       -0.490220    6.618431    2.110875
     26          7           0       -3.621822    3.134757   -1.017214
     27          6           0       -2.984106    4.310790   -0.665015
     28          6           0       -3.260750    5.368502   -1.740541
     29          6           0       -3.862445    4.530562   -2.898452
     30          6           0       -4.166358    3.199469   -2.298503
     31          6           0       -3.982322    6.665893   -1.276758
     32          6           0       -2.974218    4.377140   -4.146059
     33          6           0       -3.594392    3.699234   -5.376196
     34          7           0       -4.638375    0.530663   -1.018430
     35          6           0       -5.018323    0.839498   -2.276797
     36          6           0       -5.694253   -0.313395   -2.912490
     37          6           0       -5.725025   -1.289112   -1.917827
     38          6           0       -4.934937   -0.777721   -0.804765
     39          6           0       -6.204763   -0.382546   -4.369292
     40          6           0       -6.121754   -2.581249   -1.608404
     41          8           0       -6.769437   -3.394219   -2.269709
     42          6           0       -5.549736   -2.947970   -0.213937
     43          6           0       -6.652323   -3.296943    0.732544
     44          8           0       -6.668532   -4.290899    1.458759
     45          8           0       -7.543614   -2.259589    0.778256
     46          6           0       -8.617504   -2.117072    1.783124
     47          6           0        0.491745   -5.605320   -1.102698
     48          6           0        1.808654   -4.868295   -1.089660
     49          6           0        2.518661   -4.260246   -2.067950
     50          6           0        2.006020   -4.041342   -3.501242
     51          6           0        3.944752   -3.771617   -1.863812
     52          6           0        4.152911   -2.272428   -1.439672
     53          6           0        5.209354   -1.610213   -2.311803
     54          6           0        6.212194   -0.819140   -1.533412
     55          6           0        6.858285    0.375494   -2.301878
     56          6           0        7.267225   -1.769401   -0.980985
     57          6           0        7.711983   -1.412939    0.453392
     58          6           0        9.085033   -2.035865    0.789457
     59          6           0       10.119531   -0.968985    1.350632
     60          6           0       10.136739   -1.115855    2.883627
     61          6           0       11.506488   -1.055032    0.667020
     62          6           0       11.620623   -0.093727   -0.600662
     63          6           0       11.743814    1.401184   -0.371958
     64          6           0       10.498636    2.213927   -0.913942
     65          6           0       10.934679    3.106102   -2.085383
     66          6           0        9.862890    2.934542    0.287694
     67          1           0       -1.493871    0.235679    4.290624
     68          1           0       -1.712098    5.521199    0.238816
     69          1           0       -5.209449    2.255780   -3.832052
     70          1           0       -4.704536   -2.866353    2.860872
     71          1           0       -1.821155   -2.053953    3.571930
     72          1           0       -4.217021   -2.352431    5.120203
     73          1           0       -3.597036   -0.765788    5.445298
     74          1           0       -2.580066   -2.260115    5.678201
     75          1           0       -3.692862   -4.498182    1.545131
     76          1           0       -2.572210   -4.336708    2.856026
     77          1           0       -1.261750   -2.707688    1.508079
     78          1           0       -2.202081   -3.238429    0.152624
     79          1           0        0.976753    2.711215    4.454983
     80          1           0       -0.152894    1.701269    5.209412
     81          1           0       -0.271756    3.541060    5.420664
     82          1           0       -1.568658    6.730967    1.996392
     83          1           0        0.016969    6.629903    1.146059
     84          1           0       -0.014966    7.480129    2.578155
     85          1           0       -2.299563    5.697722   -2.133193
     86          1           0       -4.819716    4.947705   -3.210363
     87          1           0       -4.814220    6.922092   -1.932430
     88          1           0       -3.316383    7.520163   -1.395729
     89          1           0       -4.252395    6.496871   -0.234286
     90          1           0       -2.082689    3.806148   -3.888134
     91          1           0       -2.574997    5.333706   -4.481854
     92          1           0       -3.239660    2.699596   -5.626294
     93          1           0       -3.535475    4.405274   -6.204200
     94          1           0       -4.678062    3.657757   -5.263165
     95          1           0       -7.047674    0.285411   -4.549568
     96          1           0       -6.530367   -1.390083   -4.626075
     97          1           0       -5.493229   -0.071252   -5.134101
     98          1           0       -4.794565   -3.733871   -0.225306
     99          1           0       -9.585013   -2.323675    1.323985
    100          1           0       -8.608782   -1.108124    2.195455
    101          1           0       -8.543599   -2.856862    2.580518
    102          1           0        0.115468   -5.933295   -2.071560
    103          1           0        0.507899   -6.415357   -0.373804
    104          1           0        2.460083   -5.095728   -0.245851
    105          1           0        2.543077   -4.760855   -4.119220
    106          1           0        2.237519   -3.030121   -3.836412
    107          1           0        0.945871   -4.295609   -3.512907
    108          1           0        4.285960   -3.945726   -2.884120
    109          1           0        4.592064   -4.403533   -1.254309
    110          1           0        4.505251   -2.309832   -0.409501
    111          1           0        3.247436   -1.693665   -1.623589
    112          1           0        4.704489   -0.972068   -3.036562
    113          1           0        5.721464   -2.276967   -3.004502
    114          1           0        5.708013   -0.219572   -0.774954
    115          1           0        6.335384    0.458074   -3.254756
    116          1           0        7.898029    0.199321   -2.577451
    117          1           0        6.685137    1.247543   -1.670632
    118          1           0        8.211744   -1.735708   -1.524947
    119          1           0        7.010249   -2.802325   -1.212280
    120          1           0        6.873379   -1.862490    0.984633
    121          1           0        7.593690   -0.333214    0.534901
    122          1           0        9.503682   -2.546061   -0.078115
    123          1           0        8.892534   -2.815793    1.526190
    124          1           0        9.837162    0.070738    1.179742
    125          1           0        9.533695   -1.959027    3.219372
    126          1           0        9.656225   -0.207609    3.247416
    127          1           0       11.132548   -1.032044    3.318536
    128          1           0       11.616678   -2.104080    0.392053
    129          1           0       12.263695   -0.826531    1.417600
    130          1           0       10.741492   -0.287077   -1.214250
    131          1           0       12.492597   -0.489689   -1.121209
    132          1           0       12.624007    1.741639   -0.915903
    133          1           0       11.779249    1.764288    0.655406
    134          1           0        9.607489    1.695354   -1.266941
    135          1           0       10.523293    2.805045   -3.048878
    136          1           0       11.983105    2.959969   -2.346016
    137          1           0       10.653877    4.126784   -1.826319
    138          1           0       10.407887    3.768706    0.729579
    139          1           0        9.486029    2.236031    1.034995
    140          1           0        9.104713    3.542471   -0.205467
 ---------------------------------------------------------------------

 SCF Done:  E(RZINDO/S) =  -474.374372144     A.U. after   20 cycles

 Excitation energies and oscillator strengths:

 Excited State   1:      Singlet-A      1.2441 eV  996.57 nm  f=0.6364  <S**2>=0.000
     175 ->178         0.18215
     176 ->177         0.66596
 This state for optimization and/or second-order correction.
 Total Energy, E(CIS/TDA) =  -474.328651772
 Copying the excited state density for this state as the 1-particle RhoCI density.

 Excited State   2:      Singlet-A      1.9500 eV  635.82 nm  f=0.0426  <S**2>=0.000
     175 ->177         0.54747
     176 ->178        -0.41856

 Excited State   3:      Singlet-A      2.8175 eV  440.05 nm  f=0.0133  <S**2>=0.000
     168 ->177         0.34181
     168 ->178        -0.14562
     168 ->179        -0.37422
     168 ->180         0.13923
     168 ->185         0.13634
     169 ->177         0.12042
     169 ->179        -0.12037
     171 ->177         0.17267
     171 ->179        -0.12083
     176 ->178        -0.10638

 Excited State   4:      Singlet-A      2.9707 eV  417.36 nm  f=0.5817  <S**2>=0.000
     168 ->177         0.10994
     168 ->179        -0.11380
     175 ->177         0.29844
     176 ->178         0.45483
     176 ->179         0.36739

 Excited State   5:      Singlet-A      3.0667 eV  404.29 nm  f=0.0121  <S**2>=0.000
     170 ->177         0.22594
     170 ->178        -0.11514
     170 ->179         0.25052
     170 ->180         0.44801
     170 ->184        -0.10615
     170 ->185        -0.23277
     170 ->187         0.11798
     170 ->188        -0.13046
     170 ->197        -0.10940

 The electronic state is 1-A.
 Alpha  occ. eigenvalues --   -1.85014  -1.80864  -1.79819  -1.72722  -1.71718
 Alpha  occ. eigenvalues --   -1.70568  -1.66583  -1.61610  -1.60990  -1.58709
 Alpha  occ. eigenvalues --   -1.54266  -1.51331  -1.48828  -1.47670  -1.47427
 Alpha  occ. eigenvalues --   -1.46526  -1.43055  -1.41260  -1.39090  -1.38174
 Alpha  occ. eigenvalues --   -1.36294  -1.32891  -1.32274  -1.30978  -1.28629
 Alpha  occ. eigenvalues --   -1.28321  -1.27797  -1.24125  -1.20452  -1.19329
 Alpha  occ. eigenvalues --   -1.16485  -1.16377  -1.14909  -1.13330  -1.12842
 Alpha  occ. eigenvalues --   -1.12697  -1.10572  -1.10206  -1.06979  -1.05677
 Alpha  occ. eigenvalues --   -1.03777  -1.02294  -1.00522  -0.99383  -0.98452
 Alpha  occ. eigenvalues --   -0.96464  -0.95561  -0.93353  -0.92296  -0.91302
 Alpha  occ. eigenvalues --   -0.91121  -0.90414  -0.89571  -0.88467  -0.86854
 Alpha  occ. eigenvalues --   -0.86154  -0.85152  -0.83629  -0.83094  -0.81061
 Alpha  occ. eigenvalues --   -0.80022  -0.79129  -0.78734  -0.77253  -0.76804
 Alpha  occ. eigenvalues --   -0.75775  -0.74472  -0.74146  -0.73779  -0.73183
 Alpha  occ. eigenvalues --   -0.72915  -0.72212  -0.71656  -0.71473  -0.71139
 Alpha  occ. eigenvalues --   -0.70213  -0.69872  -0.69351  -0.68033  -0.67819
 Alpha  occ. eigenvalues --   -0.67372  -0.67127  -0.66673  -0.66072  -0.65799
 Alpha  occ. eigenvalues --   -0.65328  -0.65180  -0.64416  -0.64231  -0.63843
 Alpha  occ. eigenvalues --   -0.63748  -0.63173  -0.62994  -0.62408  -0.62050
 Alpha  occ. eigenvalues --   -0.61687  -0.61430  -0.60809  -0.60745  -0.60431
 Alpha  occ. eigenvalues --   -0.59619  -0.59431  -0.59013  -0.58574  -0.58163
 Alpha  occ. eigenvalues --   -0.58071  -0.57198  -0.56709  -0.56647  -0.56468
 Alpha  occ. eigenvalues --   -0.56217  -0.55468  -0.55351  -0.55250  -0.54795
 Alpha  occ. eigenvalues --   -0.54554  -0.54407  -0.53671  -0.53417  -0.53129
 Alpha  occ. eigenvalues --   -0.53046  -0.52362  -0.52158  -0.52013  -0.51540
 Alpha  occ. eigenvalues --   -0.51424  -0.51235  -0.51202  -0.50914  -0.50363
 Alpha  occ. eigenvalues --   -0.50136  -0.49575  -0.49430  -0.49352  -0.49005
 Alpha  occ. eigenvalues --   -0.48706  -0.48536  -0.48162  -0.47920  -0.47423
 Alpha  occ. eigenvalues --   -0.47370  -0.47152  -0.46985  -0.46771  -0.46104
 Alpha  occ. eigenvalues --   -0.45750  -0.45686  -0.45548  -0.45152  -0.45095
 Alpha  occ. eigenvalues --   -0.45063  -0.44831  -0.44754  -0.44604  -0.43680
 Alpha  occ. eigenvalues --   -0.43353  -0.43081  -0.42480  -0.42431  -0.42038
 Alpha  occ. eigenvalues --   -0.41841  -0.41424  -0.41215  -0.39551  -0.38937
 Alpha  occ. eigenvalues --   -0.38907  -0.37414  -0.36011  -0.35177  -0.34887
 Alpha  occ. eigenvalues --   -0.34225  -0.33334  -0.32421  -0.32234  -0.27482
 Alpha  occ. eigenvalues --   -0.22198
 Alpha virt. eigenvalues --   -0.09210  -0.02392  -0.01026   0.01165   0.01477
 Alpha virt. eigenvalues --    0.01629   0.02004   0.02449   0.04749   0.04894
 Alpha virt. eigenvalues --    0.06076   0.06314   0.06945   0.07379   0.07579

 Mulliken charges:
               1
     1  Mg   0.432225
     2  C   -0.051335
     3  C   -0.061387
     4  C   -0.082973
     5  C   -0.073091
     6  N   -0.279588
     7  C    0.152758
     8  C    0.001400
     9  C   -0.010908
    10  C    0.102118
    11  C   -0.049295
    12  C   -0.021439
    13  C    0.005065
    14  C    0.474908
    15  O   -0.511112
    16  O   -0.280454
    17  N   -0.305647
    18  C    0.076608
    19  C    0.033082
    20  C   -0.067865
    21  C    0.106275
    22  C   -0.036090
    23  C    0.338224
    24  O   -0.527593
    25  C   -0.029704
    26  N   -0.309968
    27  C    0.121941
    28  C   -0.001816
    29  C    0.022319
    30  C    0.151012
    31  C   -0.049766
    32  C   -0.020747
    33  C   -0.060654
    34  N   -0.317882
    35  C    0.131827
    36  C    0.044661
    37  C   -0.037994
    38  C    0.104358
    39  C   -0.036694
    40  C    0.340776
    41  O   -0.523396
    42  C    0.062578
    43  C    0.496094
    44  O   -0.525681
    45  O   -0.278300
    46  C    0.079139
    47  C    0.111029
    48  C   -0.093471
    49  C   -0.000522
    50  C   -0.045165
    51  C   -0.029067
    52  C   -0.026492
    53  C   -0.027597
    54  C   -0.012470
    55  C   -0.066920
    56  C   -0.040314
    57  C   -0.040651
    58  C   -0.030425
    59  C   -0.020385
    60  C   -0.064517
    61  C   -0.040087
    62  C   -0.032774
    63  C   -0.030765
    64  C   -0.021648
    65  C   -0.062476
    66  C   -0.064267
    67  H    0.033715
    68  H    0.017836
    69  H    0.019589
    70  H    0.044407
    71  H    0.030925
    72  H    0.018604
    73  H    0.027779
    74  H    0.028879
    75  H    0.029158
    76  H    0.025825
    77  H    0.050022
    78  H    0.020933
    79  H    0.034209
    80  H    0.027137
    81  H    0.046365
    82  H    0.036599
    83  H    0.041200
    84  H    0.029248
    85  H    0.020198
    86  H    0.026494
    87  H    0.023139
    88  H    0.020131
    89  H    0.031798
    90  H    0.019016
    91  H    0.016912
    92  H    0.031996
    93  H    0.016653
    94  H    0.013079
    95  H    0.030965
    96  H    0.035035
    97  H    0.029326
    98  H    0.060629
    99  H    0.040740
   100  H    0.039516
   101  H    0.046953
   102  H    0.037530
   103  H    0.052881
   104  H    0.025866
   105  H    0.029503
   106  H    0.030315
   107  H    0.024123
   108  H    0.014368
   109  H    0.025305
   110  H    0.030418
   111  H    0.028691
   112  H    0.001817
   113  H    0.016956
   114  H    0.019078
   115  H    0.013436
   116  H    0.022417
   117  H    0.023635
   118  H    0.006907
   119  H    0.019875
   120  H    0.015786
   121  H    0.029598
   122  H    0.021392
   123  H    0.021177
   124  H    0.023833
   125  H    0.028277
   126  H    0.007450
   127  H    0.021594
   128  H    0.017059
   129  H    0.018711
   130  H    0.021488
   131  H    0.012130
   132  H    0.021101
   133  H    0.028511
   134  H    0.026845
   135  H    0.013616
   136  H    0.019443
   137  H    0.024782
   138  H    0.018776
   139  H    0.029282
   140  H    0.004014
 Sum of Mulliken charges =  -0.00000

 Dipole moment (field-independent basis, Debye):
    X=             -1.3491    Y=              6.4078    Z=             -5.4313  Tot=              8.5076
 N-N= 4.503503843984D+03 E-N= 0.000000000000D+00  KE=-9.680843539960D+03
 Leave Link  601 at Fri Apr 29 15:58:48 2022, MaxMem=  6710886400 cpu:               0.8 elap:               0.1
 (Enter /sw/apps/gaussian-16.0/g16/l9999.exe)
 1\1\GINC-BP1-COMPUTE082\SP\RZINDO CIS\STO-3G\C55H74Mg1N4O6\OF15641\29-
 Apr-2022\0\\#p ZINDO=(nstates=5)\\step_351_chromophore_26 ZINDO\\0,1\M
 g,0,-9.802,18.929,42.519\C,0,-6.351,18.125,42.646\C,0,-8.931,22.128,41
 .702\C,0,-13.003,19.411,42.141\C,0,-10.417,15.368,42.701\N,0,-7.855,19
 .961,42.182\C,0,-6.631,19.452,42.36\C,0,-5.574,20.548,42.234\C,0,-6.44
 4,21.89,42.024\C,0,-7.841,21.312,41.921\C,0,-6.071,23.132,42.945\C,0,-
 4.593,20.345,41.02\C,0,-5.243,19.949,39.664\C,0,-4.512,19.951,38.365\O

 Normal termination of Gaussian 16 at Fri Apr 29 15:58:49 2022.
