 Gaussian 16, Revision A.03,
 Gaussian 16:  ES64L-G16RevA.03 25-Dec-2016

 ------------------------------
 #p blyp/Def2SVP td=(nstates=5)
 ------------------------------

 --------------------------------------------------
 step_851_chromophore_15 TDDFT with blyp functional
 --------------------------------------------------
 Symbolic Z-matrix:
 Charge =  0 Multiplicity = 1

                         Standard orientation:
 ---------------------------------------------------------------------
 Center     Atomic      Atomic             Coordinates (Angstroms)
 Number     Number       Type             X           Y           Z
 ---------------------------------------------------------------------
      1         12           0       -4.930803    1.070698    0.159895
      2          6           0       -4.424175   -2.357871    0.680580
      3          6           0       -1.536902    1.373169   -0.305313
      4          6           0       -5.464048    4.311962   -0.163434
      5          6           0       -8.365777    0.521350    0.600117
      6          7           0       -3.125793   -0.346726    0.134799
      7          6           0       -3.220227   -1.692370    0.355917
      8          6           0       -1.872438   -2.292350   -0.005387
      9          6           0       -0.901152   -1.079458    0.246763
     10          6           0       -1.878772    0.074523    0.061909
     11          6           0       -0.075877   -0.989816    1.580718
     12          6           0       -1.874888   -2.931813   -1.487062
     13          6           0       -0.497808   -3.386440   -1.964760
     14          6           0        0.579731   -3.831669   -0.903395
     15          8           0        0.431322   -4.705466   -0.044098
     16          8           0        1.776334   -3.226640   -1.165279
     17          7           0       -3.723890    2.574498   -0.308754
     18          6           0       -2.333141    2.538604   -0.495026
     19          6           0       -1.926221    3.855404   -0.737404
     20          6           0       -2.980178    4.719722   -0.703351
     21          6           0       -4.116864    3.919774   -0.338867
     22          6           0       -0.460189    4.124043   -1.131189
     23          6           0       -3.079940    6.270786   -0.910653
     24          8           0       -4.125898    6.938426   -0.930256
     25          6           0       -1.788009    7.012597   -1.110517
     26          7           0       -6.639946    2.230035    0.128307
     27          6           0       -6.604356    3.531272   -0.003444
     28          6           0       -8.026033    4.133669    0.091267
     29          6           0       -8.909876    2.904397    0.168010
     30          6           0       -7.895882    1.748526    0.316212
     31          6           0       -8.264585    5.180437    1.167360
     32          6           0       -9.988704    2.680529   -0.961569
     33          6           0      -11.417809    2.131747   -0.544614
     34          7           0       -6.194413   -0.595878    0.571714
     35          6           0       -7.576731   -0.659683    0.698589
     36          6           0       -7.972862   -2.014785    1.074786
     37          6           0       -6.757611   -2.721783    1.085909
     38          6           0       -5.706240   -1.798756    0.835889
     39          6           0       -9.231020   -2.572547    1.406917
     40          6           0       -6.151186   -4.064616    1.280690
     41          8           0       -6.691936   -5.141749    1.404396
     42          6           0       -4.621944   -3.798804    1.182182
     43          6           0       -3.968044   -4.952473    0.475965
     44          8           0       -4.367527   -5.496259   -0.498489
     45          8           0       -2.910082   -5.388763    1.200896
     46          6           0       -2.161304   -6.475813    0.676641
     47          6           0        2.999273   -3.711288   -0.458896
     48          6           0        4.100589   -3.122032   -1.269266
     49          6           0        5.390230   -3.426088   -1.273644
     50          6           0        6.033379   -4.306404   -0.187036
     51          6           0        6.215646   -3.064034   -2.540754
     52          6           0        6.674939   -1.649219   -2.622543
     53          6           0        8.226057   -1.711124   -2.737594
     54          6           0        8.745058   -0.252618   -2.948809
     55          6           0        8.968475    0.081218   -4.463238
     56          6           0        9.932062    0.139684   -2.080969
     57          6           0        9.720285    1.543238   -1.382643
     58          6           0       11.119068    2.358794   -1.288680
     59          6           0       11.612595    2.651790    0.131927
     60          6           0       12.239225    4.093432    0.402698
     61          6           0       12.515769    1.588568    0.648186
     62          6           0       11.730337    0.765656    1.728725
     63          6           0       12.225868    1.016476    3.221048
     64          6           0       11.122102    1.175498    4.258900
     65          6           0       10.389918    2.522938    4.059480
     66          6           0       11.641947    0.961764    5.690893
     67          1           0       -0.476236    1.622890   -0.224610
     68          1           0       -5.829454    5.339859   -0.219189
     69          1           0       -9.436271    0.557906    0.812299
     70          1           0       -1.697918   -3.055279    0.753121
     71          1           0       -0.171969   -0.933447   -0.551106
     72          1           0       -0.210522   -1.898758    2.167345
     73          1           0       -0.301247   -0.171230    2.263857
     74          1           0        1.006019   -0.999274    1.444809
     75          1           0       -2.297694   -2.140230   -2.105447
     76          1           0       -2.541676   -3.791711   -1.432732
     77          1           0       -0.001512   -2.702803   -2.654377
     78          1           0       -0.633046   -4.315389   -2.517901
     79          1           0       -0.161828    3.282838   -1.756659
     80          1           0        0.201967    4.243632   -0.273684
     81          1           0       -0.359521    4.993545   -1.781125
     82          1           0       -0.937807    6.736021   -0.486800
     83          1           0       -1.968286    8.085739   -1.054452
     84          1           0       -1.541431    6.889096   -2.165076
     85          1           0       -8.083264    4.581127   -0.901223
     86          1           0       -9.437978    3.013377    1.115462
     87          1           0       -7.511747    5.293265    1.947632
     88          1           0       -9.268220    5.021119    1.562666
     89          1           0       -8.292003    6.154189    0.678483
     90          1           0       -9.533922    2.149377   -1.797421
     91          1           0      -10.159269    3.662381   -1.402976
     92          1           0      -11.494048    2.044653    0.539293
     93          1           0      -11.555024    1.167311   -1.034780
     94          1           0      -12.188331    2.835359   -0.860577
     95          1           0       -9.019471   -3.287838    2.201819
     96          1           0       -9.623077   -2.978605    0.475297
     97          1           0       -9.969407   -1.879264    1.810541
     98          1           0       -4.391076   -3.795449    2.248050
     99          1           0       -2.809265   -7.308344    0.402125
    100          1           0       -1.610808   -6.916421    1.507068
    101          1           0       -1.531630   -6.220616   -0.175297
    102          1           0        3.063383   -4.793553   -0.573817
    103          1           0        2.964908   -3.291255    0.546389
    104          1           0        3.825183   -2.556715   -2.159073
    105          1           0        5.404879   -4.322504    0.703021
    106          1           0        6.990831   -3.969586    0.209290
    107          1           0        6.250123   -5.276510   -0.634651
    108          1           0        5.570586   -3.298618   -3.387400
    109          1           0        7.030894   -3.785366   -2.598430
    110          1           0        6.253162   -1.018838   -1.839400
    111          1           0        6.282417   -1.143566   -3.505346
    112          1           0        8.686375   -2.421181   -3.424798
    113          1           0        8.589881   -2.080667   -1.779131
    114          1           0        8.006096    0.517820   -2.728056
    115          1           0        9.990053    0.316072   -4.762724
    116          1           0        8.367373    0.974620   -4.629960
    117          1           0        8.652653   -0.732814   -5.116307
    118          1           0       10.785262    0.198848   -2.755817
    119          1           0       10.188474   -0.607880   -1.330382
    120          1           0        9.203693    1.371658   -0.438396
    121          1           0        9.168217    2.216429   -2.038221
    122          1           0       10.937673    3.314545   -1.780578
    123          1           0       11.886116    1.832191   -1.857295
    124          1           0       10.771737    2.752842    0.817560
    125          1           0       13.252015    4.047676    0.003063
    126          1           0       12.288035    4.342903    1.462346
    127          1           0       11.626087    4.834905   -0.108557
    128          1           0       13.441389    2.082921    0.942735
    129          1           0       12.839769    0.980638   -0.196452
    130          1           0       11.883828   -0.293600    1.522531
    131          1           0       10.661343    0.974872    1.705926
    132          1           0       12.930272    1.837677    3.351273
    133          1           0       12.701693    0.084271    3.527229
    134          1           0       10.494568    0.299672    4.087347
    135          1           0       11.122343    3.195770    3.613241
    136          1           0        9.936236    2.786223    5.014668
    137          1           0        9.523496    2.376629    3.414555
    138          1           0       11.028911    1.426069    6.463144
    139          1           0       12.603871    1.473762    5.734082
    140          1           0       11.902791   -0.049942    6.004071
 ---------------------------------------------------------------------

 SCF Done:  E(RB-LYP) =  -3007.38076801     A.U. after   20 cycles

 Excitation energies and oscillator strengths:

 Excited State   1:      Singlet-A      1.8425 eV  672.90 nm  f=0.2072  <S**2>=0.000
     244 -> 247        0.25224
     245 -> 247       -0.26419
     245 -> 248       -0.16706
     246 -> 247        0.58747
     246 <- 247       -0.12236
 This state for optimization and/or second-order correction.
 Total Energy, E(TD-HF/TD-DFT) =  -3007.31305642
 Copying the excited state density for this state as the 1-particle RhoCI density.

 Excited State   2:      Singlet-A      1.8907 eV  655.75 nm  f=0.1375  <S**2>=0.000
     244 -> 247        0.42404
     245 -> 247       -0.41474
     246 -> 247       -0.35870
     246 -> 248       -0.10427

 Excited State   3:      Singlet-A      2.0918 eV  592.73 nm  f=0.0513  <S**2>=0.000
     243 -> 247       -0.11223
     244 -> 247        0.49199
     245 -> 247        0.43338
     246 -> 248        0.20513

 Excited State   4:      Singlet-A      2.1666 eV  572.26 nm  f=0.0023  <S**2>=0.000
     243 -> 247        0.69716

 Excited State   5:      Singlet-A      2.4700 eV  501.97 nm  f=0.0050  <S**2>=0.000
     242 -> 247        0.69038

 The electronic state is 1-A.
 Alpha  occ. eigenvalues --  -46.25870 -18.82938 -18.81086 -18.77561 -18.76277
 Alpha  occ. eigenvalues --  -18.75980 -18.75407 -14.02582 -14.02360 -14.00554
 Alpha  occ. eigenvalues --  -14.00401 -10.05106 -10.02863 -10.00746  -9.99291
 Alpha  occ. eigenvalues --   -9.99044  -9.96234  -9.95952  -9.95727  -9.95661
 Alpha  occ. eigenvalues --   -9.95565  -9.95230  -9.95227  -9.95178  -9.94327
 Alpha  occ. eigenvalues --   -9.94129  -9.93905  -9.93903  -9.93794  -9.93745
 Alpha  occ. eigenvalues --   -9.93369  -9.93133  -9.93099  -9.93017  -9.92847
 Alpha  occ. eigenvalues --   -9.92785  -9.92772  -9.92771  -9.92760  -9.92673
 Alpha  occ. eigenvalues --   -9.92552  -9.92458  -9.92371  -9.92108  -9.92058
 Alpha  occ. eigenvalues --   -9.92047  -9.91996  -9.91980  -9.91949  -9.91923
 Alpha  occ. eigenvalues --   -9.91803  -9.91727  -9.91673  -9.91639  -9.91560
 Alpha  occ. eigenvalues --   -9.91502  -9.91375  -9.91205  -9.91046  -9.91044
 Alpha  occ. eigenvalues --   -9.91037  -9.90997  -9.90906  -9.90823  -9.90622
 Alpha  occ. eigenvalues --   -9.90180  -2.90666  -1.71107  -1.70538  -1.70378
 Alpha  occ. eigenvalues --   -0.98583  -0.98074  -0.91463  -0.91048  -0.90459
 Alpha  occ. eigenvalues --   -0.90041  -0.87050  -0.86722  -0.85490  -0.84528
 Alpha  occ. eigenvalues --   -0.75008  -0.74275  -0.73132  -0.72412  -0.72274
 Alpha  occ. eigenvalues --   -0.71930  -0.71643  -0.71251  -0.70977  -0.70546
 Alpha  occ. eigenvalues --   -0.70084  -0.69387  -0.68405  -0.67238  -0.66974
 Alpha  occ. eigenvalues --   -0.66203  -0.65677  -0.65299  -0.65167  -0.64515
 Alpha  occ. eigenvalues --   -0.63883  -0.62529  -0.62220  -0.61592  -0.60993
 Alpha  occ. eigenvalues --   -0.60499  -0.60278  -0.59951  -0.59543  -0.59211
 Alpha  occ. eigenvalues --   -0.58429  -0.57639  -0.56906  -0.55986  -0.54740
 Alpha  occ. eigenvalues --   -0.54106  -0.53449  -0.53165  -0.52467  -0.51763
 Alpha  occ. eigenvalues --   -0.51762  -0.51392  -0.50619  -0.50083  -0.49899
 Alpha  occ. eigenvalues --   -0.49792  -0.49272  -0.48398  -0.48310  -0.46240
 Alpha  occ. eigenvalues --   -0.46105  -0.45918  -0.45529  -0.44858  -0.44410
 Alpha  occ. eigenvalues --   -0.44013  -0.43745  -0.43079  -0.42759  -0.42298
 Alpha  occ. eigenvalues --   -0.42048  -0.41901  -0.41550  -0.41497  -0.41208
 Alpha  occ. eigenvalues --   -0.40989  -0.40741  -0.40576  -0.39961  -0.39842
 Alpha  occ. eigenvalues --   -0.39667  -0.39434  -0.39416  -0.39235  -0.39128
 Alpha  occ. eigenvalues --   -0.38786  -0.38693  -0.38582  -0.38488  -0.38128
 Alpha  occ. eigenvalues --   -0.38038  -0.37921  -0.37784  -0.37677  -0.37535
 Alpha  occ. eigenvalues --   -0.36848  -0.36796  -0.36635  -0.36556  -0.36455
 Alpha  occ. eigenvalues --   -0.36343  -0.35967  -0.35668  -0.35434  -0.35341
 Alpha  occ. eigenvalues --   -0.35201  -0.35092  -0.35006  -0.34923  -0.34854
 Alpha  occ. eigenvalues --   -0.34701  -0.34585  -0.34227  -0.34174  -0.34066
 Alpha  occ. eigenvalues --   -0.33735  -0.33705  -0.33688  -0.33464  -0.33227
 Alpha  occ. eigenvalues --   -0.33000  -0.32956  -0.32719  -0.32676  -0.32538
 Alpha  occ. eigenvalues --   -0.32196  -0.31957  -0.31778  -0.31696  -0.31561
 Alpha  occ. eigenvalues --   -0.31404  -0.31183  -0.31070  -0.31000  -0.30766
 Alpha  occ. eigenvalues --   -0.30287  -0.30263  -0.30115  -0.29996  -0.29784
 Alpha  occ. eigenvalues --   -0.29680  -0.29519  -0.29204  -0.29165  -0.29076
 Alpha  occ. eigenvalues --   -0.28844  -0.28547  -0.28343  -0.28263  -0.27860
 Alpha  occ. eigenvalues --   -0.27590  -0.27554  -0.26940  -0.26589  -0.26320
 Alpha  occ. eigenvalues --   -0.26258  -0.26214  -0.25882  -0.25859  -0.25127
 Alpha  occ. eigenvalues --   -0.24859  -0.24539  -0.24243  -0.23658  -0.23269
 Alpha  occ. eigenvalues --   -0.23098  -0.22363  -0.22102  -0.21420  -0.20847
 Alpha  occ. eigenvalues --   -0.20615  -0.19856  -0.19172  -0.18412  -0.16942
 Alpha  occ. eigenvalues --   -0.15746
 Alpha virt. eigenvalues --   -0.11309  -0.06424  -0.05871  -0.04034  -0.03607
 Alpha virt. eigenvalues --   -0.01986  -0.01472  -0.00984  -0.00657   0.00233
 Alpha virt. eigenvalues --    0.01124   0.01808   0.02225   0.02593   0.02767

 Mulliken charges:
               1
     1  Mg   0.689092
     2  C    0.051169
     3  C   -0.057598
     4  C   -0.015718
     5  C   -0.083531
     6  N   -0.169721
     7  C   -0.092560
     8  C    0.015557
     9  C    0.003141
    10  C    0.009173
    11  C    0.121329
    12  C    0.151226
    13  C    0.125083
    14  C    0.074807
    15  O   -0.203337
    16  O   -0.282307
    17  N   -0.365399
    18  C    0.127505
    19  C   -0.137066
    20  C    0.049875
    21  C    0.133811
    22  C    0.160060
    23  C   -0.043353
    24  O   -0.165087
    25  C    0.127313
    26  N   -0.201913
    27  C   -0.075090
    28  C    0.026001
    29  C    0.021124
    30  C    0.024985
    31  C    0.150277
    32  C    0.084774
    33  C    0.068928
    34  N   -0.238461
    35  C    0.133412
    36  C   -0.167815
    37  C    0.021171
    38  C    0.043933
    39  C    0.182968
    40  C   -0.050559
    41  O   -0.108794
    42  C    0.051427
    43  C    0.085040
    44  O   -0.139343
    45  O   -0.248440
    46  C    0.231793
    47  C    0.354025
    48  C   -0.130708
    49  C   -0.175529
    50  C    0.126624
    51  C    0.164656
    52  C    0.089140
    53  C    0.090376
    54  C   -0.073452
    55  C    0.093448
    56  C    0.102348
    57  C    0.053088
    58  C    0.121313
    59  C   -0.116153
    60  C    0.072129
    61  C    0.148766
    62  C    0.085068
    63  C    0.067690
    64  C   -0.101152
    65  C    0.124031
    66  C    0.095737
    67  H   -0.060921
    68  H   -0.058142
    69  H   -0.072752
    70  H   -0.025905
    71  H   -0.026469
    72  H   -0.011408
    73  H   -0.003984
    74  H   -0.012954
    75  H   -0.011968
    76  H    0.005922
    77  H   -0.006940
    78  H    0.004518
    79  H   -0.003974
    80  H    0.006108
    81  H   -0.021186
    82  H    0.012653
    83  H   -0.015482
    84  H    0.013934
    85  H   -0.023201
    86  H   -0.041916
    87  H    0.002351
    88  H   -0.012685
    89  H   -0.009896
    90  H   -0.021795
    91  H   -0.031125
    92  H   -0.001447
    93  H    0.006250
    94  H   -0.005555
    95  H    0.014824
    96  H    0.015539
    97  H   -0.022889
    98  H    0.008570
    99  H   -0.007679
   100  H   -0.001936
   101  H    0.013694
   102  H    0.020994
   103  H    0.018251
   104  H   -0.031511
   105  H   -0.010541
   106  H   -0.009398
   107  H    0.006991
   108  H   -0.027904
   109  H   -0.037788
   110  H   -0.022478
   111  H   -0.038459
   112  H   -0.021360
   113  H   -0.041762
   114  H   -0.032564
   115  H   -0.019081
   116  H   -0.016937
   117  H   -0.017789
   118  H   -0.042308
   119  H   -0.032338
   120  H   -0.011750
   121  H   -0.025409
   122  H   -0.048644
   123  H   -0.030585
   124  H   -0.035510
   125  H   -0.016721
   126  H   -0.009527
   127  H   -0.017591
   128  H   -0.041598
   129  H   -0.049935
   130  H   -0.034121
   131  H   -0.015200
   132  H   -0.024542
   133  H   -0.040790
   134  H   -0.043065
   135  H    0.001620
   136  H   -0.020663
   137  H   -0.012730
   138  H   -0.020124
   139  H   -0.033467
   140  H   -0.016154
 Sum of Mulliken charges =  -0.00000

 Dipole moment (field-independent basis, Debye):
    X=              5.0677    Y=              2.6259    Z=             -0.5009  Tot=              5.7295
 Quadrupole moment (field-independent basis, Debye-Ang):
   XX=           -389.4137   YY=           -444.3844   ZZ=           -400.4711
   XY=            -42.0850   XZ=             -7.1426   YZ=              5.9459

 Normal termination of Gaussian 16 at Thu May  5 11:59:04 2022.
