 Gaussian 16, Revision A.03,
 Gaussian 16:  ES64L-G16RevA.03 25-Dec-2016

 -----------------------------------
 #p cam-b3lyp/Def2SVP td=(nstates=5)
 -----------------------------------

 -------------------------------------------------------
 step_851_chromophore_15 TDDFT with cam-b3lyp functional
 -------------------------------------------------------
 Symbolic Z-matrix:
 Charge =  0 Multiplicity = 1

                         Standard orientation:
 ---------------------------------------------------------------------
 Center     Atomic      Atomic             Coordinates (Angstroms)
 Number     Number       Type             X           Y           Z
 ---------------------------------------------------------------------
      1         12           0       -4.930803    1.070698    0.159895
      2          6           0       -4.424175   -2.357871    0.680580
      3          6           0       -1.536902    1.373169   -0.305313
      4          6           0       -5.464048    4.311962   -0.163434
      5          6           0       -8.365777    0.521350    0.600117
      6          7           0       -3.125793   -0.346726    0.134799
      7          6           0       -3.220227   -1.692370    0.355917
      8          6           0       -1.872438   -2.292350   -0.005387
      9          6           0       -0.901152   -1.079458    0.246763
     10          6           0       -1.878772    0.074523    0.061909
     11          6           0       -0.075877   -0.989816    1.580718
     12          6           0       -1.874888   -2.931813   -1.487062
     13          6           0       -0.497808   -3.386440   -1.964760
     14          6           0        0.579731   -3.831669   -0.903395
     15          8           0        0.431322   -4.705466   -0.044098
     16          8           0        1.776334   -3.226640   -1.165279
     17          7           0       -3.723890    2.574498   -0.308754
     18          6           0       -2.333141    2.538604   -0.495026
     19          6           0       -1.926221    3.855404   -0.737404
     20          6           0       -2.980178    4.719722   -0.703351
     21          6           0       -4.116864    3.919774   -0.338867
     22          6           0       -0.460189    4.124043   -1.131189
     23          6           0       -3.079940    6.270786   -0.910653
     24          8           0       -4.125898    6.938426   -0.930256
     25          6           0       -1.788009    7.012597   -1.110517
     26          7           0       -6.639946    2.230035    0.128307
     27          6           0       -6.604356    3.531272   -0.003444
     28          6           0       -8.026033    4.133669    0.091267
     29          6           0       -8.909876    2.904397    0.168010
     30          6           0       -7.895882    1.748526    0.316212
     31          6           0       -8.264585    5.180437    1.167360
     32          6           0       -9.988704    2.680529   -0.961569
     33          6           0      -11.417809    2.131747   -0.544614
     34          7           0       -6.194413   -0.595878    0.571714
     35          6           0       -7.576731   -0.659683    0.698589
     36          6           0       -7.972862   -2.014785    1.074786
     37          6           0       -6.757611   -2.721783    1.085909
     38          6           0       -5.706240   -1.798756    0.835889
     39          6           0       -9.231020   -2.572547    1.406917
     40          6           0       -6.151186   -4.064616    1.280690
     41          8           0       -6.691936   -5.141749    1.404396
     42          6           0       -4.621944   -3.798804    1.182182
     43          6           0       -3.968044   -4.952473    0.475965
     44          8           0       -4.367527   -5.496259   -0.498489
     45          8           0       -2.910082   -5.388763    1.200896
     46          6           0       -2.161304   -6.475813    0.676641
     47          6           0        2.999273   -3.711288   -0.458896
     48          6           0        4.100589   -3.122032   -1.269266
     49          6           0        5.390230   -3.426088   -1.273644
     50          6           0        6.033379   -4.306404   -0.187036
     51          6           0        6.215646   -3.064034   -2.540754
     52          6           0        6.674939   -1.649219   -2.622543
     53          6           0        8.226057   -1.711124   -2.737594
     54          6           0        8.745058   -0.252618   -2.948809
     55          6           0        8.968475    0.081218   -4.463238
     56          6           0        9.932062    0.139684   -2.080969
     57          6           0        9.720285    1.543238   -1.382643
     58          6           0       11.119068    2.358794   -1.288680
     59          6           0       11.612595    2.651790    0.131927
     60          6           0       12.239225    4.093432    0.402698
     61          6           0       12.515769    1.588568    0.648186
     62          6           0       11.730337    0.765656    1.728725
     63          6           0       12.225868    1.016476    3.221048
     64          6           0       11.122102    1.175498    4.258900
     65          6           0       10.389918    2.522938    4.059480
     66          6           0       11.641947    0.961764    5.690893
     67          1           0       -0.476236    1.622890   -0.224610
     68          1           0       -5.829454    5.339859   -0.219189
     69          1           0       -9.436271    0.557906    0.812299
     70          1           0       -1.697918   -3.055279    0.753121
     71          1           0       -0.171969   -0.933447   -0.551106
     72          1           0       -0.210522   -1.898758    2.167345
     73          1           0       -0.301247   -0.171230    2.263857
     74          1           0        1.006019   -0.999274    1.444809
     75          1           0       -2.297694   -2.140230   -2.105447
     76          1           0       -2.541676   -3.791711   -1.432732
     77          1           0       -0.001512   -2.702803   -2.654377
     78          1           0       -0.633046   -4.315389   -2.517901
     79          1           0       -0.161828    3.282838   -1.756659
     80          1           0        0.201967    4.243632   -0.273684
     81          1           0       -0.359521    4.993545   -1.781125
     82          1           0       -0.937807    6.736021   -0.486800
     83          1           0       -1.968286    8.085739   -1.054452
     84          1           0       -1.541431    6.889096   -2.165076
     85          1           0       -8.083264    4.581127   -0.901223
     86          1           0       -9.437978    3.013377    1.115462
     87          1           0       -7.511747    5.293265    1.947632
     88          1           0       -9.268220    5.021119    1.562666
     89          1           0       -8.292003    6.154189    0.678483
     90          1           0       -9.533922    2.149377   -1.797421
     91          1           0      -10.159269    3.662381   -1.402976
     92          1           0      -11.494048    2.044653    0.539293
     93          1           0      -11.555024    1.167311   -1.034780
     94          1           0      -12.188331    2.835359   -0.860577
     95          1           0       -9.019471   -3.287838    2.201819
     96          1           0       -9.623077   -2.978605    0.475297
     97          1           0       -9.969407   -1.879264    1.810541
     98          1           0       -4.391076   -3.795449    2.248050
     99          1           0       -2.809265   -7.308344    0.402125
    100          1           0       -1.610808   -6.916421    1.507068
    101          1           0       -1.531630   -6.220616   -0.175297
    102          1           0        3.063383   -4.793553   -0.573817
    103          1           0        2.964908   -3.291255    0.546389
    104          1           0        3.825183   -2.556715   -2.159073
    105          1           0        5.404879   -4.322504    0.703021
    106          1           0        6.990831   -3.969586    0.209290
    107          1           0        6.250123   -5.276510   -0.634651
    108          1           0        5.570586   -3.298618   -3.387400
    109          1           0        7.030894   -3.785366   -2.598430
    110          1           0        6.253162   -1.018838   -1.839400
    111          1           0        6.282417   -1.143566   -3.505346
    112          1           0        8.686375   -2.421181   -3.424798
    113          1           0        8.589881   -2.080667   -1.779131
    114          1           0        8.006096    0.517820   -2.728056
    115          1           0        9.990053    0.316072   -4.762724
    116          1           0        8.367373    0.974620   -4.629960
    117          1           0        8.652653   -0.732814   -5.116307
    118          1           0       10.785262    0.198848   -2.755817
    119          1           0       10.188474   -0.607880   -1.330382
    120          1           0        9.203693    1.371658   -0.438396
    121          1           0        9.168217    2.216429   -2.038221
    122          1           0       10.937673    3.314545   -1.780578
    123          1           0       11.886116    1.832191   -1.857295
    124          1           0       10.771737    2.752842    0.817560
    125          1           0       13.252015    4.047676    0.003063
    126          1           0       12.288035    4.342903    1.462346
    127          1           0       11.626087    4.834905   -0.108557
    128          1           0       13.441389    2.082921    0.942735
    129          1           0       12.839769    0.980638   -0.196452
    130          1           0       11.883828   -0.293600    1.522531
    131          1           0       10.661343    0.974872    1.705926
    132          1           0       12.930272    1.837677    3.351273
    133          1           0       12.701693    0.084271    3.527229
    134          1           0       10.494568    0.299672    4.087347
    135          1           0       11.122343    3.195770    3.613241
    136          1           0        9.936236    2.786223    5.014668
    137          1           0        9.523496    2.376629    3.414555
    138          1           0       11.028911    1.426069    6.463144
    139          1           0       12.603871    1.473762    5.734082
    140          1           0       11.902791   -0.049942    6.004071
 ---------------------------------------------------------------------

 SCF Done:  E(RCAM-B3LYP) =  -3007.18722626     A.U. after   18 cycles

 Excitation energies and oscillator strengths:

 Excited State   1:      Singlet-A      1.7605 eV  704.27 nm  f=0.3826  <S**2>=0.000
     245 -> 248        0.18541
     246 -> 247        0.68475
     245 <- 248        0.10757
 This state for optimization and/or second-order correction.
 Total Energy, E(TD-HF/TD-DFT) =  -3007.12253016
 Copying the excited state density for this state as the 1-particle RhoCI density.

 Excited State   2:      Singlet-A      2.2508 eV  550.83 nm  f=0.1286  <S**2>=0.000
     245 -> 247        0.64646
     246 -> 248       -0.27459

 Excited State   3:      Singlet-A      3.3636 eV  368.61 nm  f=0.0017  <S**2>=0.000
     241 -> 247       -0.14514
     243 -> 247        0.17239
     244 -> 247        0.65395

 Excited State   4:      Singlet-A      3.5366 eV  350.57 nm  f=0.2856  <S**2>=0.000
     240 -> 247        0.13203
     241 -> 247        0.40958
     245 -> 247        0.16919
     246 -> 248        0.50122

 Excited State   5:      Singlet-A      3.5630 eV  347.97 nm  f=0.0117  <S**2>=0.000
     240 -> 247       -0.13967
     241 -> 249       -0.11216
     241 -> 250       -0.12346
     243 -> 247        0.57447
     243 -> 249       -0.16701
     243 -> 250       -0.16939
     244 -> 247       -0.18277

 The electronic state is 1-A.
 Alpha  occ. eigenvalues --  -46.87383 -19.25771 -19.23889 -19.20467 -19.19785
 Alpha  occ. eigenvalues --  -19.19002 -19.18409 -14.41525 -14.41109 -14.39145
 Alpha  occ. eigenvalues --  -14.38721 -10.40419 -10.38111 -10.36307 -10.34168
 Alpha  occ. eigenvalues --  -10.33362 -10.30574 -10.30557 -10.30421 -10.30169
 Alpha  occ. eigenvalues --  -10.29894 -10.29534 -10.29282 -10.29162 -10.28291
 Alpha  occ. eigenvalues --  -10.28252 -10.28200 -10.28028 -10.27788 -10.27786
 Alpha  occ. eigenvalues --  -10.27784 -10.27636 -10.27230 -10.27204 -10.26990
 Alpha  occ. eigenvalues --  -10.26980 -10.26807 -10.26752 -10.26690 -10.26603
 Alpha  occ. eigenvalues --  -10.26445 -10.26314 -10.26236 -10.25988 -10.25957
 Alpha  occ. eigenvalues --  -10.25832 -10.25768 -10.25763 -10.25672 -10.25635
 Alpha  occ. eigenvalues --  -10.25593 -10.25501 -10.25473 -10.25426 -10.25394
 Alpha  occ. eigenvalues --  -10.25136 -10.24943 -10.24831 -10.24754 -10.24744
 Alpha  occ. eigenvalues --  -10.24723 -10.24666 -10.24596 -10.24452 -10.24279
 Alpha  occ. eigenvalues --  -10.24052  -3.16092  -1.91007  -1.90538  -1.90406
 Alpha  occ. eigenvalues --   -1.17115  -1.16441  -1.09690  -1.09688  -1.08374
 Alpha  occ. eigenvalues --   -1.07825  -1.04816  -1.04498  -1.02922  -1.02314
 Alpha  occ. eigenvalues --   -0.92036  -0.91166  -0.89979  -0.89126  -0.88979
 Alpha  occ. eigenvalues --   -0.88644  -0.88329  -0.87884  -0.87488  -0.87175
 Alpha  occ. eigenvalues --   -0.86847  -0.85685  -0.84751  -0.83398  -0.83069
 Alpha  occ. eigenvalues --   -0.82187  -0.81935  -0.81283  -0.80955  -0.80460
 Alpha  occ. eigenvalues --   -0.79714  -0.78314  -0.77845  -0.77054  -0.76364
 Alpha  occ. eigenvalues --   -0.75890  -0.75642  -0.75278  -0.74865  -0.74490
 Alpha  occ. eigenvalues --   -0.73497  -0.72637  -0.71842  -0.70797  -0.69319
 Alpha  occ. eigenvalues --   -0.68706  -0.68052  -0.67587  -0.66939  -0.66067
 Alpha  occ. eigenvalues --   -0.65796  -0.65564  -0.64838  -0.63974  -0.63895
 Alpha  occ. eigenvalues --   -0.63704  -0.63263  -0.62307  -0.61983  -0.60030
 Alpha  occ. eigenvalues --   -0.59648  -0.59463  -0.58981  -0.58281  -0.57840
 Alpha  occ. eigenvalues --   -0.57481  -0.56883  -0.56392  -0.55882  -0.55521
 Alpha  occ. eigenvalues --   -0.55271  -0.55124  -0.54600  -0.54289  -0.53974
 Alpha  occ. eigenvalues --   -0.53744  -0.53610  -0.53370  -0.52823  -0.52583
 Alpha  occ. eigenvalues --   -0.52481  -0.52366  -0.52083  -0.52054  -0.51740
 Alpha  occ. eigenvalues --   -0.51212  -0.51109  -0.50921  -0.50870  -0.50482
 Alpha  occ. eigenvalues --   -0.50404  -0.50231  -0.50117  -0.50055  -0.49994
 Alpha  occ. eigenvalues --   -0.49595  -0.49416  -0.49004  -0.48918  -0.48690
 Alpha  occ. eigenvalues --   -0.48654  -0.48353  -0.48272  -0.47721  -0.47634
 Alpha  occ. eigenvalues --   -0.47270  -0.47024  -0.46934  -0.46852  -0.46799
 Alpha  occ. eigenvalues --   -0.46660  -0.46417  -0.46129  -0.45898  -0.45756
 Alpha  occ. eigenvalues --   -0.45742  -0.45543  -0.45380  -0.45337  -0.44861
 Alpha  occ. eigenvalues --   -0.44775  -0.44576  -0.44350  -0.44223  -0.44116
 Alpha  occ. eigenvalues --   -0.43839  -0.43763  -0.43543  -0.43330  -0.43264
 Alpha  occ. eigenvalues --   -0.42836  -0.42761  -0.42634  -0.42418  -0.42025
 Alpha  occ. eigenvalues --   -0.41820  -0.41640  -0.41463  -0.41278  -0.41163
 Alpha  occ. eigenvalues --   -0.40830  -0.40680  -0.40532  -0.40434  -0.40263
 Alpha  occ. eigenvalues --   -0.40175  -0.39818  -0.39469  -0.39457  -0.38766
 Alpha  occ. eigenvalues --   -0.38577  -0.38452  -0.37748  -0.37690  -0.37407
 Alpha  occ. eigenvalues --   -0.37290  -0.36901  -0.36812  -0.36607  -0.35969
 Alpha  occ. eigenvalues --   -0.35894  -0.35757  -0.34737  -0.34185  -0.34111
 Alpha  occ. eigenvalues --   -0.33847  -0.33640  -0.32875  -0.31821  -0.31436
 Alpha  occ. eigenvalues --   -0.30559  -0.30358  -0.29869  -0.28957  -0.23830
 Alpha  occ. eigenvalues --   -0.21127
 Alpha virt. eigenvalues --   -0.08443  -0.01261   0.00754   0.03054   0.03818
 Alpha virt. eigenvalues --    0.04283   0.05431   0.05652   0.06402   0.06859
 Alpha virt. eigenvalues --    0.08292   0.08380   0.08643   0.08910   0.09330

 Mulliken charges:
               1
     1  Mg   0.825885
     2  C    0.027244
     3  C   -0.069871
     4  C   -0.040870
     5  C   -0.084250
     6  N   -0.236771
     7  C   -0.047931
     8  C   -0.045666
     9  C   -0.053888
    10  C    0.030393
    11  C    0.066356
    12  C    0.108109
    13  C    0.053530
    14  C    0.152660
    15  O   -0.245278
    16  O   -0.348185
    17  N   -0.456450
    18  C    0.137883
    19  C   -0.143462
    20  C   -0.018215
    21  C    0.160209
    22  C    0.099873
    23  C    0.041270
    24  O   -0.203558
    25  C    0.038825
    26  N   -0.282938
    27  C   -0.038513
    28  C   -0.032151
    29  C   -0.037082
    30  C    0.042424
    31  C    0.085452
    32  C    0.029492
    33  C    0.005178
    34  N   -0.326418
    35  C    0.134448
    36  C   -0.166958
    37  C   -0.050307
    38  C    0.076289
    39  C    0.124744
    40  C    0.054312
    41  O   -0.148454
    42  C   -0.030294
    43  C    0.167289
    44  O   -0.175252
    45  O   -0.310636
    46  C    0.190524
    47  C    0.322133
    48  C   -0.150427
    49  C   -0.196807
    50  C    0.066739
    51  C    0.100651
    52  C    0.035174
    53  C    0.035804
    54  C   -0.131944
    55  C    0.037982
    56  C    0.054066
    57  C   -0.000025
    58  C    0.067679
    59  C   -0.171589
    60  C    0.025193
    61  C    0.089751
    62  C    0.031478
    63  C    0.016269
    64  C   -0.159582
    65  C    0.064008
    66  C    0.037257
    67  H   -0.025173
    68  H   -0.017053
    69  H   -0.036518
    70  H    0.010798
    71  H    0.009804
    72  H    0.014823
    73  H    0.022294
    74  H    0.010764
    75  H    0.018857
    76  H    0.032726
    77  H    0.027076
    78  H    0.036681
    79  H    0.025182
    80  H    0.034708
    81  H    0.007914
    82  H    0.041552
    83  H    0.021898
    84  H    0.041985
    85  H    0.012903
    86  H   -0.006524
    87  H    0.028812
    88  H    0.012880
    89  H    0.014964
    90  H    0.008216
    91  H   -0.002363
    92  H    0.019209
    93  H    0.029251
    94  H    0.019002
    95  H    0.039385
    96  H    0.041320
    97  H    0.002559
    98  H    0.051909
    99  H    0.017950
   100  H    0.022343
   101  H    0.034111
   102  H    0.049647
   103  H    0.043661
   104  H    0.002443
   105  H    0.013189
   106  H    0.015113
   107  H    0.030185
   108  H    0.004498
   109  H   -0.007248
   110  H    0.007791
   111  H   -0.009668
   112  H    0.007555
   113  H   -0.013747
   114  H   -0.000679
   115  H    0.005042
   116  H    0.005573
   117  H    0.006308
   118  H   -0.014460
   119  H   -0.005187
   120  H    0.013731
   121  H    0.002193
   122  H   -0.017958
   123  H   -0.003284
   124  H   -0.006398
   125  H    0.005097
   126  H    0.011505
   127  H    0.005905
   128  H   -0.010798
   129  H   -0.019159
   130  H   -0.004266
   131  H    0.008271
   132  H    0.000493
   133  H   -0.010440
   134  H   -0.011717
   135  H    0.020163
   136  H    0.004742
   137  H    0.010577
   138  H    0.004936
   139  H   -0.009843
   140  H    0.009191
 Sum of Mulliken charges =  -0.00000

 Dipole moment (field-independent basis, Debye):
    X=              5.8773    Y=              3.5678    Z=             -0.6486  Tot=              6.9060
 Quadrupole moment (field-independent basis, Debye-Ang):
   XX=           -392.5032   YY=           -440.7513   ZZ=           -399.9084
   XY=            -45.0973   XZ=             -7.1183   YZ=              5.2888

 Normal termination of Gaussian 16 at Thu May  5 10:41:50 2022.
