 Gaussian 16, Revision A.03,
 Gaussian 16:  ES64L-G16RevA.03 25-Dec-2016

 ---------------------------------
 #p PBE1PBE/Def2SVP td=(nstates=5)
 ---------------------------------

 -----------------------------------------------------
 step_851_chromophore_15 TDDFT with PBE1PBE functional
 -----------------------------------------------------
 Symbolic Z-matrix:
 Charge =  0 Multiplicity = 1

                         Standard orientation:
 ---------------------------------------------------------------------
 Center     Atomic      Atomic             Coordinates (Angstroms)
 Number     Number       Type             X           Y           Z
 ---------------------------------------------------------------------
      1         12           0       -4.930803    1.070698    0.159895
      2          6           0       -4.424175   -2.357871    0.680580
      3          6           0       -1.536902    1.373169   -0.305313
      4          6           0       -5.464048    4.311962   -0.163434
      5          6           0       -8.365777    0.521350    0.600117
      6          7           0       -3.125793   -0.346726    0.134799
      7          6           0       -3.220227   -1.692370    0.355917
      8          6           0       -1.872438   -2.292350   -0.005387
      9          6           0       -0.901152   -1.079458    0.246763
     10          6           0       -1.878772    0.074523    0.061909
     11          6           0       -0.075877   -0.989816    1.580718
     12          6           0       -1.874888   -2.931813   -1.487062
     13          6           0       -0.497808   -3.386440   -1.964760
     14          6           0        0.579731   -3.831669   -0.903395
     15          8           0        0.431322   -4.705466   -0.044098
     16          8           0        1.776334   -3.226640   -1.165279
     17          7           0       -3.723890    2.574498   -0.308754
     18          6           0       -2.333141    2.538604   -0.495026
     19          6           0       -1.926221    3.855404   -0.737404
     20          6           0       -2.980178    4.719722   -0.703351
     21          6           0       -4.116864    3.919774   -0.338867
     22          6           0       -0.460189    4.124043   -1.131189
     23          6           0       -3.079940    6.270786   -0.910653
     24          8           0       -4.125898    6.938426   -0.930256
     25          6           0       -1.788009    7.012597   -1.110517
     26          7           0       -6.639946    2.230035    0.128307
     27          6           0       -6.604356    3.531272   -0.003444
     28          6           0       -8.026033    4.133669    0.091267
     29          6           0       -8.909876    2.904397    0.168010
     30          6           0       -7.895882    1.748526    0.316212
     31          6           0       -8.264585    5.180437    1.167360
     32          6           0       -9.988704    2.680529   -0.961569
     33          6           0      -11.417809    2.131747   -0.544614
     34          7           0       -6.194413   -0.595878    0.571714
     35          6           0       -7.576731   -0.659683    0.698589
     36          6           0       -7.972862   -2.014785    1.074786
     37          6           0       -6.757611   -2.721783    1.085909
     38          6           0       -5.706240   -1.798756    0.835889
     39          6           0       -9.231020   -2.572547    1.406917
     40          6           0       -6.151186   -4.064616    1.280690
     41          8           0       -6.691936   -5.141749    1.404396
     42          6           0       -4.621944   -3.798804    1.182182
     43          6           0       -3.968044   -4.952473    0.475965
     44          8           0       -4.367527   -5.496259   -0.498489
     45          8           0       -2.910082   -5.388763    1.200896
     46          6           0       -2.161304   -6.475813    0.676641
     47          6           0        2.999273   -3.711288   -0.458896
     48          6           0        4.100589   -3.122032   -1.269266
     49          6           0        5.390230   -3.426088   -1.273644
     50          6           0        6.033379   -4.306404   -0.187036
     51          6           0        6.215646   -3.064034   -2.540754
     52          6           0        6.674939   -1.649219   -2.622543
     53          6           0        8.226057   -1.711124   -2.737594
     54          6           0        8.745058   -0.252618   -2.948809
     55          6           0        8.968475    0.081218   -4.463238
     56          6           0        9.932062    0.139684   -2.080969
     57          6           0        9.720285    1.543238   -1.382643
     58          6           0       11.119068    2.358794   -1.288680
     59          6           0       11.612595    2.651790    0.131927
     60          6           0       12.239225    4.093432    0.402698
     61          6           0       12.515769    1.588568    0.648186
     62          6           0       11.730337    0.765656    1.728725
     63          6           0       12.225868    1.016476    3.221048
     64          6           0       11.122102    1.175498    4.258900
     65          6           0       10.389918    2.522938    4.059480
     66          6           0       11.641947    0.961764    5.690893
     67          1           0       -0.476236    1.622890   -0.224610
     68          1           0       -5.829454    5.339859   -0.219189
     69          1           0       -9.436271    0.557906    0.812299
     70          1           0       -1.697918   -3.055279    0.753121
     71          1           0       -0.171969   -0.933447   -0.551106
     72          1           0       -0.210522   -1.898758    2.167345
     73          1           0       -0.301247   -0.171230    2.263857
     74          1           0        1.006019   -0.999274    1.444809
     75          1           0       -2.297694   -2.140230   -2.105447
     76          1           0       -2.541676   -3.791711   -1.432732
     77          1           0       -0.001512   -2.702803   -2.654377
     78          1           0       -0.633046   -4.315389   -2.517901
     79          1           0       -0.161828    3.282838   -1.756659
     80          1           0        0.201967    4.243632   -0.273684
     81          1           0       -0.359521    4.993545   -1.781125
     82          1           0       -0.937807    6.736021   -0.486800
     83          1           0       -1.968286    8.085739   -1.054452
     84          1           0       -1.541431    6.889096   -2.165076
     85          1           0       -8.083264    4.581127   -0.901223
     86          1           0       -9.437978    3.013377    1.115462
     87          1           0       -7.511747    5.293265    1.947632
     88          1           0       -9.268220    5.021119    1.562666
     89          1           0       -8.292003    6.154189    0.678483
     90          1           0       -9.533922    2.149377   -1.797421
     91          1           0      -10.159269    3.662381   -1.402976
     92          1           0      -11.494048    2.044653    0.539293
     93          1           0      -11.555024    1.167311   -1.034780
     94          1           0      -12.188331    2.835359   -0.860577
     95          1           0       -9.019471   -3.287838    2.201819
     96          1           0       -9.623077   -2.978605    0.475297
     97          1           0       -9.969407   -1.879264    1.810541
     98          1           0       -4.391076   -3.795449    2.248050
     99          1           0       -2.809265   -7.308344    0.402125
    100          1           0       -1.610808   -6.916421    1.507068
    101          1           0       -1.531630   -6.220616   -0.175297
    102          1           0        3.063383   -4.793553   -0.573817
    103          1           0        2.964908   -3.291255    0.546389
    104          1           0        3.825183   -2.556715   -2.159073
    105          1           0        5.404879   -4.322504    0.703021
    106          1           0        6.990831   -3.969586    0.209290
    107          1           0        6.250123   -5.276510   -0.634651
    108          1           0        5.570586   -3.298618   -3.387400
    109          1           0        7.030894   -3.785366   -2.598430
    110          1           0        6.253162   -1.018838   -1.839400
    111          1           0        6.282417   -1.143566   -3.505346
    112          1           0        8.686375   -2.421181   -3.424798
    113          1           0        8.589881   -2.080667   -1.779131
    114          1           0        8.006096    0.517820   -2.728056
    115          1           0        9.990053    0.316072   -4.762724
    116          1           0        8.367373    0.974620   -4.629960
    117          1           0        8.652653   -0.732814   -5.116307
    118          1           0       10.785262    0.198848   -2.755817
    119          1           0       10.188474   -0.607880   -1.330382
    120          1           0        9.203693    1.371658   -0.438396
    121          1           0        9.168217    2.216429   -2.038221
    122          1           0       10.937673    3.314545   -1.780578
    123          1           0       11.886116    1.832191   -1.857295
    124          1           0       10.771737    2.752842    0.817560
    125          1           0       13.252015    4.047676    0.003063
    126          1           0       12.288035    4.342903    1.462346
    127          1           0       11.626087    4.834905   -0.108557
    128          1           0       13.441389    2.082921    0.942735
    129          1           0       12.839769    0.980638   -0.196452
    130          1           0       11.883828   -0.293600    1.522531
    131          1           0       10.661343    0.974872    1.705926
    132          1           0       12.930272    1.837677    3.351273
    133          1           0       12.701693    0.084271    3.527229
    134          1           0       10.494568    0.299672    4.087347
    135          1           0       11.122343    3.195770    3.613241
    136          1           0        9.936236    2.786223    5.014668
    137          1           0        9.523496    2.376629    3.414555
    138          1           0       11.028911    1.426069    6.463144
    139          1           0       12.603871    1.473762    5.734082
    140          1           0       11.902791   -0.049942    6.004071
 ---------------------------------------------------------------------

 SCF Done:  E(RPBE1PBE) =  -3005.37297327     A.U. after   15 cycles

 Excitation energies and oscillator strengths:

 Excited State   1:      Singlet-A      1.9062 eV  650.42 nm  f=0.3690  <S**2>=0.000
     245 -> 248        0.18047
     246 -> 247        0.69081
     246 <- 247       -0.10346
 This state for optimization and/or second-order correction.
 Total Energy, E(TD-HF/TD-DFT) =  -3005.30292117
 Copying the excited state density for this state as the 1-particle RhoCI density.

 Excited State   2:      Singlet-A      2.2450 eV  552.27 nm  f=0.1236  <S**2>=0.000
     245 -> 247        0.65675
     246 -> 248       -0.24784

 Excited State   3:      Singlet-A      2.9732 eV  417.00 nm  f=0.0016  <S**2>=0.000
     243 -> 247       -0.38043
     244 -> 247        0.57094

 Excited State   4:      Singlet-A      3.0352 eV  408.48 nm  f=0.0062  <S**2>=0.000
     241 -> 247       -0.12153
     243 -> 247        0.55206
     244 -> 247        0.39790

 Excited State   5:      Singlet-A      3.2542 eV  381.00 nm  f=0.0008  <S**2>=0.000
     240 -> 247        0.65556
     240 -> 249        0.18768
     241 -> 247        0.13312

 The electronic state is 1-A.
 Alpha  occ. eigenvalues --  -46.90755 -19.26476 -19.24585 -19.20743 -19.19830
 Alpha  occ. eigenvalues --  -19.19261 -19.18777 -14.40947 -14.40615 -14.38763
 Alpha  occ. eigenvalues --  -14.38446 -10.37495 -10.35163 -10.33289 -10.31462
 Alpha  occ. eigenvalues --  -10.30740 -10.28422 -10.28083 -10.27877 -10.27708
 Alpha  occ. eigenvalues --  -10.27342 -10.27141 -10.27132 -10.26804 -10.26048
 Alpha  occ. eigenvalues --  -10.25943 -10.25814 -10.25651 -10.25641 -10.25429
 Alpha  occ. eigenvalues --  -10.25391 -10.25327 -10.24913 -10.24703 -10.24642
 Alpha  occ. eigenvalues --  -10.24515 -10.24491 -10.24490 -10.24232 -10.24148
 Alpha  occ. eigenvalues --  -10.24068 -10.23722 -10.23691 -10.23454 -10.23397
 Alpha  occ. eigenvalues --  -10.23390 -10.23380 -10.23310 -10.23212 -10.23135
 Alpha  occ. eigenvalues --  -10.23122 -10.23118 -10.23104 -10.23022 -10.22960
 Alpha  occ. eigenvalues --  -10.22709 -10.22498 -10.22404 -10.22298 -10.22297
 Alpha  occ. eigenvalues --  -10.22197 -10.22068 -10.22002 -10.21997 -10.21830
 Alpha  occ. eigenvalues --  -10.21816  -3.13042  -1.85899  -1.85406  -1.85280
 Alpha  occ. eigenvalues --   -1.11958  -1.11249  -1.04573  -1.04240  -1.03284
 Alpha  occ. eigenvalues --   -1.02681  -0.99426  -0.99090  -0.97730  -0.96822
 Alpha  occ. eigenvalues --   -0.86458  -0.85311  -0.84048  -0.83293  -0.83256
 Alpha  occ. eigenvalues --   -0.82814  -0.82613  -0.81995  -0.81899  -0.81446
 Alpha  occ. eigenvalues --   -0.81082  -0.79881  -0.78947  -0.77716  -0.77329
 Alpha  occ. eigenvalues --   -0.76370  -0.76034  -0.75488  -0.75240  -0.74756
 Alpha  occ. eigenvalues --   -0.73819  -0.72599  -0.72086  -0.71388  -0.70534
 Alpha  occ. eigenvalues --   -0.70011  -0.69953  -0.69608  -0.68988  -0.68636
 Alpha  occ. eigenvalues --   -0.67791  -0.67110  -0.66228  -0.65147  -0.63684
 Alpha  occ. eigenvalues --   -0.62922  -0.62490  -0.61793  -0.61354  -0.60276
 Alpha  occ. eigenvalues --   -0.60253  -0.60023  -0.59353  -0.58508  -0.58250
 Alpha  occ. eigenvalues --   -0.57999  -0.57410  -0.56587  -0.56461  -0.54453
 Alpha  occ. eigenvalues --   -0.54164  -0.53994  -0.53458  -0.52798  -0.52455
 Alpha  occ. eigenvalues --   -0.52039  -0.51284  -0.50879  -0.50477  -0.49985
 Alpha  occ. eigenvalues --   -0.49779  -0.49627  -0.49208  -0.48663  -0.48494
 Alpha  occ. eigenvalues --   -0.48208  -0.48151  -0.47788  -0.47431  -0.47142
 Alpha  occ. eigenvalues --   -0.46976  -0.46693  -0.46571  -0.46523  -0.46334
 Alpha  occ. eigenvalues --   -0.45849  -0.45679  -0.45511  -0.45360  -0.45069
 Alpha  occ. eigenvalues --   -0.44992  -0.44926  -0.44595  -0.44499  -0.44470
 Alpha  occ. eigenvalues --   -0.44163  -0.43935  -0.43622  -0.43529  -0.43275
 Alpha  occ. eigenvalues --   -0.43169  -0.42931  -0.42900  -0.42397  -0.42276
 Alpha  occ. eigenvalues --   -0.41911  -0.41695  -0.41530  -0.41469  -0.41395
 Alpha  occ. eigenvalues --   -0.41360  -0.41093  -0.40893  -0.40510  -0.40450
 Alpha  occ. eigenvalues --   -0.40409  -0.40250  -0.40123  -0.39953  -0.39603
 Alpha  occ. eigenvalues --   -0.39447  -0.39398  -0.39202  -0.38897  -0.38822
 Alpha  occ. eigenvalues --   -0.38678  -0.38480  -0.38326  -0.38117  -0.37949
 Alpha  occ. eigenvalues --   -0.37640  -0.37563  -0.37448  -0.37103  -0.36758
 Alpha  occ. eigenvalues --   -0.36571  -0.36397  -0.36192  -0.36140  -0.36096
 Alpha  occ. eigenvalues --   -0.35754  -0.35443  -0.35368  -0.35254  -0.35061
 Alpha  occ. eigenvalues --   -0.35030  -0.34654  -0.34447  -0.34375  -0.33552
 Alpha  occ. eigenvalues --   -0.33498  -0.33250  -0.32678  -0.32500  -0.32418
 Alpha  occ. eigenvalues --   -0.32109  -0.31855  -0.31729  -0.31369  -0.30961
 Alpha  occ. eigenvalues --   -0.30887  -0.30634  -0.29674  -0.29174  -0.29134
 Alpha  occ. eigenvalues --   -0.28972  -0.28587  -0.28297  -0.27095  -0.26225
 Alpha  occ. eigenvalues --   -0.25990  -0.25587  -0.25043  -0.24740  -0.20713
 Alpha  occ. eigenvalues --   -0.18720
 Alpha virt. eigenvalues --   -0.10908  -0.04765  -0.03494  -0.01408  -0.00364
 Alpha virt. eigenvalues --    0.01119   0.01373   0.01580   0.02017   0.02906
 Alpha virt. eigenvalues --    0.04039   0.04799   0.05262   0.05593   0.05846

 Mulliken charges:
               1
     1  Mg   0.979974
     2  C    0.012129
     3  C   -0.066203
     4  C   -0.035840
     5  C   -0.067488
     6  N   -0.338243
     7  C    0.027926
     8  C   -0.126258
     9  C   -0.132169
    10  C    0.072659
    11  C    0.013930
    12  C    0.057803
    13  C   -0.025598
    14  C    0.220910
    15  O   -0.278780
    16  O   -0.380640
    17  N   -0.570639
    18  C    0.163514
    19  C   -0.179792
    20  C   -0.064169
    21  C    0.191377
    22  C    0.039900
    23  C    0.091838
    24  O   -0.242505
    25  C   -0.035095
    26  N   -0.402025
    27  C    0.007387
    28  C   -0.110212
    29  C   -0.116454
    30  C    0.077516
    31  C    0.024565
    32  C   -0.028915
    33  C   -0.069499
    34  N   -0.452602
    35  C    0.162554
    36  C   -0.197674
    37  C   -0.091805
    38  C    0.135222
    39  C    0.068260
    40  C    0.157725
    41  O   -0.194741
    42  C   -0.138411
    43  C    0.256019
    44  O   -0.213717
    45  O   -0.345323
    46  C    0.134015
    47  C    0.280639
    48  C   -0.157075
    49  C   -0.240367
    50  C    0.003775
    51  C    0.033065
    52  C   -0.023198
    53  C   -0.025404
    54  C   -0.217183
    55  C   -0.016320
    56  C    0.003385
    57  C   -0.064654
    58  C    0.013223
    59  C   -0.257333
    60  C   -0.039715
    61  C    0.042887
    62  C   -0.037170
    63  C   -0.037138
    64  C   -0.253571
    65  C   -0.000466
    66  C   -0.022784
    67  H    0.006640
    68  H    0.016013
    69  H   -0.000742
    70  H    0.051907
    71  H    0.048127
    72  H    0.041333
    73  H    0.048756
    74  H    0.037980
    75  H    0.052330
    76  H    0.069902
    77  H    0.057997
    78  H    0.069950
    79  H    0.051786
    80  H    0.061504
    81  H    0.035867
    82  H    0.067550
    83  H    0.049520
    84  H    0.068884
    85  H    0.051199
    86  H    0.032563
    87  H    0.055894
    88  H    0.040229
    89  H    0.042366
    90  H    0.040733
    91  H    0.032281
    92  H    0.044819
    93  H    0.056523
    94  H    0.047239
    95  H    0.066995
    96  H    0.070410
    97  H    0.031334
    98  H    0.090581
    99  H    0.040661
   100  H    0.044903
   101  H    0.058545
   102  H    0.075662
   103  H    0.069265
   104  H    0.032559
   105  H    0.040162
   106  H    0.042953
   107  H    0.057506
   108  H    0.037477
   109  H    0.025419
   110  H    0.038819
   111  H    0.024171
   112  H    0.038003
   113  H    0.021855
   114  H    0.037801
   115  H    0.031139
   116  H    0.032261
   117  H    0.033222
   118  H    0.018056
   119  H    0.027147
   120  H    0.044807
   121  H    0.035310
   122  H    0.014813
   123  H    0.027597
   124  H    0.035348
   125  H    0.033457
   126  H    0.040446
   127  H    0.033893
   128  H    0.020474
   129  H    0.013500
   130  H    0.028425
   131  H    0.040707
   132  H    0.031094
   133  H    0.024200
   134  H    0.027708
   135  H    0.049690
   136  H    0.032723
   137  H    0.037407
   138  H    0.032294
   139  H    0.018557
   140  H    0.036469
 Sum of Mulliken charges =  -0.00000

 Dipole moment (field-independent basis, Debye):
    X=              5.5555    Y=              3.1924    Z=             -0.5858  Tot=              6.4341
 Quadrupole moment (field-independent basis, Debye-Ang):
   XX=           -383.8335   YY=           -438.3158   ZZ=           -397.2962
   XY=            -44.5896   XZ=             -7.6735   YZ=              5.2331

 Normal termination of Gaussian 16 at Thu May  5 11:06:18 2022.
