 Gaussian 16, Revision A.03,
 Gaussian 16:  ES64L-G16RevA.03 25-Dec-2016

 --------------------------------
 #p wB97XD/Def2SVP td=(nstates=5)
 --------------------------------

 ----------------------------------------------------
 step_851_chromophore_15 TDDFT with wB97XD functional
 ----------------------------------------------------
 Symbolic Z-matrix:
 Charge =  0 Multiplicity = 1

                         Standard orientation:
 ---------------------------------------------------------------------
 Center     Atomic      Atomic             Coordinates (Angstroms)
 Number     Number       Type             X           Y           Z
 ---------------------------------------------------------------------
      1         12           0       -4.930803    1.070698    0.159895
      2          6           0       -4.424175   -2.357871    0.680580
      3          6           0       -1.536902    1.373169   -0.305313
      4          6           0       -5.464048    4.311962   -0.163434
      5          6           0       -8.365777    0.521350    0.600117
      6          7           0       -3.125793   -0.346726    0.134799
      7          6           0       -3.220227   -1.692370    0.355917
      8          6           0       -1.872438   -2.292350   -0.005387
      9          6           0       -0.901152   -1.079458    0.246763
     10          6           0       -1.878772    0.074523    0.061909
     11          6           0       -0.075877   -0.989816    1.580718
     12          6           0       -1.874888   -2.931813   -1.487062
     13          6           0       -0.497808   -3.386440   -1.964760
     14          6           0        0.579731   -3.831669   -0.903395
     15          8           0        0.431322   -4.705466   -0.044098
     16          8           0        1.776334   -3.226640   -1.165279
     17          7           0       -3.723890    2.574498   -0.308754
     18          6           0       -2.333141    2.538604   -0.495026
     19          6           0       -1.926221    3.855404   -0.737404
     20          6           0       -2.980178    4.719722   -0.703351
     21          6           0       -4.116864    3.919774   -0.338867
     22          6           0       -0.460189    4.124043   -1.131189
     23          6           0       -3.079940    6.270786   -0.910653
     24          8           0       -4.125898    6.938426   -0.930256
     25          6           0       -1.788009    7.012597   -1.110517
     26          7           0       -6.639946    2.230035    0.128307
     27          6           0       -6.604356    3.531272   -0.003444
     28          6           0       -8.026033    4.133669    0.091267
     29          6           0       -8.909876    2.904397    0.168010
     30          6           0       -7.895882    1.748526    0.316212
     31          6           0       -8.264585    5.180437    1.167360
     32          6           0       -9.988704    2.680529   -0.961569
     33          6           0      -11.417809    2.131747   -0.544614
     34          7           0       -6.194413   -0.595878    0.571714
     35          6           0       -7.576731   -0.659683    0.698589
     36          6           0       -7.972862   -2.014785    1.074786
     37          6           0       -6.757611   -2.721783    1.085909
     38          6           0       -5.706240   -1.798756    0.835889
     39          6           0       -9.231020   -2.572547    1.406917
     40          6           0       -6.151186   -4.064616    1.280690
     41          8           0       -6.691936   -5.141749    1.404396
     42          6           0       -4.621944   -3.798804    1.182182
     43          6           0       -3.968044   -4.952473    0.475965
     44          8           0       -4.367527   -5.496259   -0.498489
     45          8           0       -2.910082   -5.388763    1.200896
     46          6           0       -2.161304   -6.475813    0.676641
     47          6           0        2.999273   -3.711288   -0.458896
     48          6           0        4.100589   -3.122032   -1.269266
     49          6           0        5.390230   -3.426088   -1.273644
     50          6           0        6.033379   -4.306404   -0.187036
     51          6           0        6.215646   -3.064034   -2.540754
     52          6           0        6.674939   -1.649219   -2.622543
     53          6           0        8.226057   -1.711124   -2.737594
     54          6           0        8.745058   -0.252618   -2.948809
     55          6           0        8.968475    0.081218   -4.463238
     56          6           0        9.932062    0.139684   -2.080969
     57          6           0        9.720285    1.543238   -1.382643
     58          6           0       11.119068    2.358794   -1.288680
     59          6           0       11.612595    2.651790    0.131927
     60          6           0       12.239225    4.093432    0.402698
     61          6           0       12.515769    1.588568    0.648186
     62          6           0       11.730337    0.765656    1.728725
     63          6           0       12.225868    1.016476    3.221048
     64          6           0       11.122102    1.175498    4.258900
     65          6           0       10.389918    2.522938    4.059480
     66          6           0       11.641947    0.961764    5.690893
     67          1           0       -0.476236    1.622890   -0.224610
     68          1           0       -5.829454    5.339859   -0.219189
     69          1           0       -9.436271    0.557906    0.812299
     70          1           0       -1.697918   -3.055279    0.753121
     71          1           0       -0.171969   -0.933447   -0.551106
     72          1           0       -0.210522   -1.898758    2.167345
     73          1           0       -0.301247   -0.171230    2.263857
     74          1           0        1.006019   -0.999274    1.444809
     75          1           0       -2.297694   -2.140230   -2.105447
     76          1           0       -2.541676   -3.791711   -1.432732
     77          1           0       -0.001512   -2.702803   -2.654377
     78          1           0       -0.633046   -4.315389   -2.517901
     79          1           0       -0.161828    3.282838   -1.756659
     80          1           0        0.201967    4.243632   -0.273684
     81          1           0       -0.359521    4.993545   -1.781125
     82          1           0       -0.937807    6.736021   -0.486800
     83          1           0       -1.968286    8.085739   -1.054452
     84          1           0       -1.541431    6.889096   -2.165076
     85          1           0       -8.083264    4.581127   -0.901223
     86          1           0       -9.437978    3.013377    1.115462
     87          1           0       -7.511747    5.293265    1.947632
     88          1           0       -9.268220    5.021119    1.562666
     89          1           0       -8.292003    6.154189    0.678483
     90          1           0       -9.533922    2.149377   -1.797421
     91          1           0      -10.159269    3.662381   -1.402976
     92          1           0      -11.494048    2.044653    0.539293
     93          1           0      -11.555024    1.167311   -1.034780
     94          1           0      -12.188331    2.835359   -0.860577
     95          1           0       -9.019471   -3.287838    2.201819
     96          1           0       -9.623077   -2.978605    0.475297
     97          1           0       -9.969407   -1.879264    1.810541
     98          1           0       -4.391076   -3.795449    2.248050
     99          1           0       -2.809265   -7.308344    0.402125
    100          1           0       -1.610808   -6.916421    1.507068
    101          1           0       -1.531630   -6.220616   -0.175297
    102          1           0        3.063383   -4.793553   -0.573817
    103          1           0        2.964908   -3.291255    0.546389
    104          1           0        3.825183   -2.556715   -2.159073
    105          1           0        5.404879   -4.322504    0.703021
    106          1           0        6.990831   -3.969586    0.209290
    107          1           0        6.250123   -5.276510   -0.634651
    108          1           0        5.570586   -3.298618   -3.387400
    109          1           0        7.030894   -3.785366   -2.598430
    110          1           0        6.253162   -1.018838   -1.839400
    111          1           0        6.282417   -1.143566   -3.505346
    112          1           0        8.686375   -2.421181   -3.424798
    113          1           0        8.589881   -2.080667   -1.779131
    114          1           0        8.006096    0.517820   -2.728056
    115          1           0        9.990053    0.316072   -4.762724
    116          1           0        8.367373    0.974620   -4.629960
    117          1           0        8.652653   -0.732814   -5.116307
    118          1           0       10.785262    0.198848   -2.755817
    119          1           0       10.188474   -0.607880   -1.330382
    120          1           0        9.203693    1.371658   -0.438396
    121          1           0        9.168217    2.216429   -2.038221
    122          1           0       10.937673    3.314545   -1.780578
    123          1           0       11.886116    1.832191   -1.857295
    124          1           0       10.771737    2.752842    0.817560
    125          1           0       13.252015    4.047676    0.003063
    126          1           0       12.288035    4.342903    1.462346
    127          1           0       11.626087    4.834905   -0.108557
    128          1           0       13.441389    2.082921    0.942735
    129          1           0       12.839769    0.980638   -0.196452
    130          1           0       11.883828   -0.293600    1.522531
    131          1           0       10.661343    0.974872    1.705926
    132          1           0       12.930272    1.837677    3.351273
    133          1           0       12.701693    0.084271    3.527229
    134          1           0       10.494568    0.299672    4.087347
    135          1           0       11.122343    3.195770    3.613241
    136          1           0        9.936236    2.786223    5.014668
    137          1           0        9.523496    2.376629    3.414555
    138          1           0       11.028911    1.426069    6.463144
    139          1           0       12.603871    1.473762    5.734082
    140          1           0       11.902791   -0.049942    6.004071
 ---------------------------------------------------------------------

 SCF Done:  E(RwB97XD) =  -3007.88498313     A.U. after   19 cycles

 Excitation energies and oscillator strengths:

 Excited State   1:      Singlet-A      1.7089 eV  725.51 nm  f=0.3815  <S**2>=0.000
     245 -> 248        0.19002
     246 -> 247        0.68273
     245 <- 248        0.11594
 This state for optimization and/or second-order correction.
 Total Energy, E(TD-HF/TD-DFT) =  -3007.82218147
 Copying the excited state density for this state as the 1-particle RhoCI density.

 Excited State   2:      Singlet-A      2.1961 eV  564.57 nm  f=0.1251  <S**2>=0.000
     245 -> 247        0.64441
     246 -> 248       -0.27645

 Excited State   3:      Singlet-A      3.3999 eV  364.67 nm  f=0.0029  <S**2>=0.000
     241 -> 247       -0.23549
     243 -> 247       -0.16947
     244 -> 247        0.62062

 Excited State   4:      Singlet-A      3.5389 eV  350.34 nm  f=0.2738  <S**2>=0.000
     239 -> 247       -0.14527
     240 -> 247        0.12737
     241 -> 247        0.37600
     244 -> 247        0.16219
     245 -> 247        0.15958
     246 -> 248        0.50269

 Excited State   5:      Singlet-A      3.6102 eV  343.43 nm  f=0.0409  <S**2>=0.000
     240 -> 247        0.10466
     241 -> 250        0.10411
     243 -> 247        0.54292
     243 -> 249       -0.20835
     243 -> 250       -0.21157
     244 -> 247        0.18809

 The electronic state is 1-A.
 Alpha  occ. eigenvalues --  -46.93729 -19.30997 -19.29104 -19.25392 -19.24856
 Alpha  occ. eigenvalues --  -19.23920 -19.23420 -14.46118 -14.45680 -14.43815
 Alpha  occ. eigenvalues --  -14.43290 -10.44250 -10.41942 -10.40335 -10.38153
 Alpha  occ. eigenvalues --  -10.37244 -10.34590 -10.34580 -10.34534 -10.34195
 Alpha  occ. eigenvalues --  -10.33997 -10.33277 -10.33237 -10.33131 -10.32389
 Alpha  occ. eigenvalues --  -10.32265 -10.32207 -10.32199 -10.31869 -10.31762
 Alpha  occ. eigenvalues --  -10.31727 -10.31664 -10.31323 -10.31239 -10.31076
 Alpha  occ. eigenvalues --  -10.30969 -10.30837 -10.30774 -10.30636 -10.30520
 Alpha  occ. eigenvalues --  -10.30380 -10.30160 -10.30137 -10.29957 -10.29832
 Alpha  occ. eigenvalues --  -10.29785 -10.29773 -10.29702 -10.29591 -10.29532
 Alpha  occ. eigenvalues --  -10.29519 -10.29429 -10.29405 -10.29391 -10.29344
 Alpha  occ. eigenvalues --  -10.29086 -10.28735 -10.28692 -10.28677 -10.28674
 Alpha  occ. eigenvalues --  -10.28649 -10.28502 -10.28446 -10.28272 -10.28197
 Alpha  occ. eigenvalues --  -10.28071  -3.19851  -1.93461  -1.92972  -1.92837
 Alpha  occ. eigenvalues --   -1.19279  -1.18607  -1.11941  -1.11890  -1.10571
 Alpha  occ. eigenvalues --   -1.10003  -1.06810  -1.06501  -1.04936  -1.04403
 Alpha  occ. eigenvalues --   -0.93985  -0.92983  -0.91733  -0.90925  -0.90878
 Alpha  occ. eigenvalues --   -0.90471  -0.90227  -0.89663  -0.89409  -0.89133
 Alpha  occ. eigenvalues --   -0.88797  -0.87539  -0.86627  -0.85336  -0.84927
 Alpha  occ. eigenvalues --   -0.84037  -0.83869  -0.83166  -0.82856  -0.82423
 Alpha  occ. eigenvalues --   -0.81521  -0.80297  -0.79734  -0.78959  -0.78210
 Alpha  occ. eigenvalues --   -0.77672  -0.77582  -0.77210  -0.76691  -0.76321
 Alpha  occ. eigenvalues --   -0.75405  -0.74612  -0.73796  -0.72741  -0.71226
 Alpha  occ. eigenvalues --   -0.70577  -0.70033  -0.69446  -0.68946  -0.67931
 Alpha  occ. eigenvalues --   -0.67708  -0.67531  -0.66863  -0.65938  -0.65777
 Alpha  occ. eigenvalues --   -0.65618  -0.65080  -0.64128  -0.63948  -0.62055
 Alpha  occ. eigenvalues --   -0.61612  -0.61418  -0.60923  -0.60224  -0.59785
 Alpha  occ. eigenvalues --   -0.59464  -0.58747  -0.58343  -0.57871  -0.57445
 Alpha  occ. eigenvalues --   -0.57199  -0.57036  -0.56544  -0.56135  -0.55894
 Alpha  occ. eigenvalues --   -0.55625  -0.55551  -0.55236  -0.54784  -0.54504
 Alpha  occ. eigenvalues --   -0.54442  -0.54301  -0.53991  -0.53948  -0.53653
 Alpha  occ. eigenvalues --   -0.53125  -0.53005  -0.52785  -0.52739  -0.52371
 Alpha  occ. eigenvalues --   -0.52319  -0.52136  -0.52084  -0.51945  -0.51866
 Alpha  occ. eigenvalues --   -0.51546  -0.51355  -0.50951  -0.50838  -0.50594
 Alpha  occ. eigenvalues --   -0.50585  -0.50227  -0.50194  -0.49646  -0.49526
 Alpha  occ. eigenvalues --   -0.49218  -0.48919  -0.48794  -0.48784  -0.48672
 Alpha  occ. eigenvalues --   -0.48593  -0.48280  -0.48057  -0.47761  -0.47663
 Alpha  occ. eigenvalues --   -0.47635  -0.47479  -0.47258  -0.47202  -0.46750
 Alpha  occ. eigenvalues --   -0.46653  -0.46505  -0.46294  -0.46073  -0.46004
 Alpha  occ. eigenvalues --   -0.45746  -0.45688  -0.45431  -0.45245  -0.45177
 Alpha  occ. eigenvalues --   -0.44724  -0.44692  -0.44569  -0.44269  -0.43899
 Alpha  occ. eigenvalues --   -0.43820  -0.43545  -0.43321  -0.43234  -0.43137
 Alpha  occ. eigenvalues --   -0.42765  -0.42542  -0.42434  -0.42336  -0.42142
 Alpha  occ. eigenvalues --   -0.42085  -0.41667  -0.41359  -0.41354  -0.40605
 Alpha  occ. eigenvalues --   -0.40470  -0.40295  -0.39722  -0.39572  -0.39345
 Alpha  occ. eigenvalues --   -0.39144  -0.38897  -0.38744  -0.38430  -0.37934
 Alpha  occ. eigenvalues --   -0.37855  -0.37632  -0.36582  -0.36156  -0.36088
 Alpha  occ. eigenvalues --   -0.35819  -0.35486  -0.35073  -0.33917  -0.33498
 Alpha  occ. eigenvalues --   -0.32708  -0.32371  -0.31892  -0.31094  -0.25756
 Alpha  occ. eigenvalues --   -0.22944
 Alpha virt. eigenvalues --   -0.06792   0.00652   0.02794   0.05145   0.06444
 Alpha virt. eigenvalues --    0.07011   0.07943   0.08221   0.08668   0.09340
 Alpha virt. eigenvalues --    0.10747   0.11618   0.12022   0.12298   0.12680

 Mulliken charges:
               1
     1  Mg   0.967954
     2  C    0.011485
     3  C   -0.081737
     4  C   -0.055552
     5  C   -0.085108
     6  N   -0.303226
     7  C   -0.008953
     8  C   -0.087732
     9  C   -0.107003
    10  C    0.057033
    11  C    0.020741
    12  C    0.067679
    13  C   -0.006468
    14  C    0.202851
    15  O   -0.273457
    16  O   -0.377843
    17  N   -0.543080
    18  C    0.157874
    19  C   -0.164659
    20  C   -0.059535
    21  C    0.186261
    22  C    0.051762
    23  C    0.089223
    24  O   -0.234703
    25  C   -0.026426
    26  N   -0.364088
    27  C   -0.006721
    28  C   -0.084847
    29  C   -0.083226
    30  C    0.064167
    31  C    0.034308
    32  C   -0.017432
    33  C   -0.053057
    34  N   -0.413108
    35  C    0.147337
    36  C   -0.186459
    37  C   -0.090142
    38  C    0.113177
    39  C    0.078009
    40  C    0.135714
    41  O   -0.185760
    42  C   -0.098914
    43  C    0.229483
    44  O   -0.205774
    45  O   -0.341172
    46  C    0.150837
    47  C    0.290668
    48  C   -0.167245
    49  C   -0.226394
    50  C    0.017230
    51  C    0.053816
    52  C   -0.010746
    53  C   -0.006540
    54  C   -0.184561
    55  C   -0.008078
    56  C    0.019224
    57  C   -0.049345
    58  C    0.029768
    59  C   -0.223943
    60  C   -0.021504
    61  C    0.049717
    62  C   -0.012185
    63  C   -0.023096
    64  C   -0.221713
    65  C    0.013679
    66  C   -0.010944
    67  H    0.000733
    68  H    0.010870
    69  H   -0.009949
    70  H    0.033449
    71  H    0.036781
    72  H    0.036490
    73  H    0.044002
    74  H    0.033215
    75  H    0.045112
    76  H    0.058773
    77  H    0.053393
    78  H    0.064385
    79  H    0.047403
    80  H    0.059153
    81  H    0.030495
    82  H    0.063617
    83  H    0.048956
    84  H    0.064177
    85  H    0.040019
    86  H    0.017189
    87  H    0.051072
    88  H    0.034688
    89  H    0.037021
    90  H    0.033405
    91  H    0.022568
    92  H    0.038406
    93  H    0.051050
    94  H    0.042305
    95  H    0.061618
    96  H    0.064827
    97  H    0.025285
    98  H    0.082799
    99  H    0.036438
   100  H    0.041863
   101  H    0.050477
   102  H    0.071392
   103  H    0.065927
   104  H    0.028325
   105  H    0.034823
   106  H    0.037559
   107  H    0.052004
   108  H    0.030462
   109  H    0.016080
   110  H    0.031177
   111  H    0.015217
   112  H    0.030938
   113  H    0.009282
   114  H    0.021133
   115  H    0.025765
   116  H    0.026846
   117  H    0.027349
   118  H    0.005604
   119  H    0.018540
   120  H    0.037470
   121  H    0.026101
   122  H    0.007122
   123  H    0.017158
   124  H    0.015320
   125  H    0.025792
   126  H    0.033131
   127  H    0.027794
   128  H    0.011941
   129  H    0.005087
   130  H    0.022229
   131  H    0.024546
   132  H    0.020102
   133  H    0.015200
   134  H    0.015770
   135  H    0.039709
   136  H    0.027020
   137  H    0.031724
   138  H    0.026742
   139  H    0.010347
   140  H    0.031666
 Sum of Mulliken charges =  -0.00000

 Dipole moment (field-independent basis, Debye):
    X=              6.0325    Y=              3.7152    Z=             -0.6761  Tot=              7.1170
 Quadrupole moment (field-independent basis, Debye-Ang):
   XX=           -388.1793   YY=           -436.3229   ZZ=           -396.8430
   XY=            -45.7008   XZ=             -7.2620   YZ=              4.9619

 Normal termination of Gaussian 16 at Thu May  5 11:44:10 2022.
