 Gaussian 16, Revision A.03,
 Gaussian 16:  ES64L-G16RevA.03 25-Dec-2016

 --------------------
 #p ZINDO=(nstates=5)
 --------------------

 -----------------------------
 step_851_chromophore_15 ZINDO
 -----------------------------
 Symbolic Z-matrix:
 Charge =  0 Multiplicity = 1

                         Standard orientation:
 ---------------------------------------------------------------------
 Center     Atomic      Atomic             Coordinates (Angstroms)
 Number     Number       Type             X           Y           Z
 ---------------------------------------------------------------------
      1         12           0       -4.930803    1.070698    0.159895
      2          6           0       -4.424175   -2.357871    0.680580
      3          6           0       -1.536902    1.373169   -0.305313
      4          6           0       -5.464048    4.311962   -0.163434
      5          6           0       -8.365777    0.521350    0.600117
      6          7           0       -3.125793   -0.346726    0.134799
      7          6           0       -3.220227   -1.692370    0.355917
      8          6           0       -1.872438   -2.292350   -0.005387
      9          6           0       -0.901152   -1.079458    0.246763
     10          6           0       -1.878772    0.074523    0.061909
     11          6           0       -0.075877   -0.989816    1.580718
     12          6           0       -1.874888   -2.931813   -1.487062
     13          6           0       -0.497808   -3.386440   -1.964760
     14          6           0        0.579731   -3.831669   -0.903395
     15          8           0        0.431322   -4.705466   -0.044098
     16          8           0        1.776334   -3.226640   -1.165279
     17          7           0       -3.723890    2.574498   -0.308754
     18          6           0       -2.333141    2.538604   -0.495026
     19          6           0       -1.926221    3.855404   -0.737404
     20          6           0       -2.980178    4.719722   -0.703351
     21          6           0       -4.116864    3.919774   -0.338867
     22          6           0       -0.460189    4.124043   -1.131189
     23          6           0       -3.079940    6.270786   -0.910653
     24          8           0       -4.125898    6.938426   -0.930256
     25          6           0       -1.788009    7.012597   -1.110517
     26          7           0       -6.639946    2.230035    0.128307
     27          6           0       -6.604356    3.531272   -0.003444
     28          6           0       -8.026033    4.133669    0.091267
     29          6           0       -8.909876    2.904397    0.168010
     30          6           0       -7.895882    1.748526    0.316212
     31          6           0       -8.264585    5.180437    1.167360
     32          6           0       -9.988704    2.680529   -0.961569
     33          6           0      -11.417809    2.131747   -0.544614
     34          7           0       -6.194413   -0.595878    0.571714
     35          6           0       -7.576731   -0.659683    0.698589
     36          6           0       -7.972862   -2.014785    1.074786
     37          6           0       -6.757611   -2.721783    1.085909
     38          6           0       -5.706240   -1.798756    0.835889
     39          6           0       -9.231020   -2.572547    1.406917
     40          6           0       -6.151186   -4.064616    1.280690
     41          8           0       -6.691936   -5.141749    1.404396
     42          6           0       -4.621944   -3.798804    1.182182
     43          6           0       -3.968044   -4.952473    0.475965
     44          8           0       -4.367527   -5.496259   -0.498489
     45          8           0       -2.910082   -5.388763    1.200896
     46          6           0       -2.161304   -6.475813    0.676641
     47          6           0        2.999273   -3.711288   -0.458896
     48          6           0        4.100589   -3.122032   -1.269266
     49          6           0        5.390230   -3.426088   -1.273644
     50          6           0        6.033379   -4.306404   -0.187036
     51          6           0        6.215646   -3.064034   -2.540754
     52          6           0        6.674939   -1.649219   -2.622543
     53          6           0        8.226057   -1.711124   -2.737594
     54          6           0        8.745058   -0.252618   -2.948809
     55          6           0        8.968475    0.081218   -4.463238
     56          6           0        9.932062    0.139684   -2.080969
     57          6           0        9.720285    1.543238   -1.382643
     58          6           0       11.119068    2.358794   -1.288680
     59          6           0       11.612595    2.651790    0.131927
     60          6           0       12.239225    4.093432    0.402698
     61          6           0       12.515769    1.588568    0.648186
     62          6           0       11.730337    0.765656    1.728725
     63          6           0       12.225868    1.016476    3.221048
     64          6           0       11.122102    1.175498    4.258900
     65          6           0       10.389918    2.522938    4.059480
     66          6           0       11.641947    0.961764    5.690893
     67          1           0       -0.476236    1.622890   -0.224610
     68          1           0       -5.829454    5.339859   -0.219189
     69          1           0       -9.436271    0.557906    0.812299
     70          1           0       -1.697918   -3.055279    0.753121
     71          1           0       -0.171969   -0.933447   -0.551106
     72          1           0       -0.210522   -1.898758    2.167345
     73          1           0       -0.301247   -0.171230    2.263857
     74          1           0        1.006019   -0.999274    1.444809
     75          1           0       -2.297694   -2.140230   -2.105447
     76          1           0       -2.541676   -3.791711   -1.432732
     77          1           0       -0.001512   -2.702803   -2.654377
     78          1           0       -0.633046   -4.315389   -2.517901
     79          1           0       -0.161828    3.282838   -1.756659
     80          1           0        0.201967    4.243632   -0.273684
     81          1           0       -0.359521    4.993545   -1.781125
     82          1           0       -0.937807    6.736021   -0.486800
     83          1           0       -1.968286    8.085739   -1.054452
     84          1           0       -1.541431    6.889096   -2.165076
     85          1           0       -8.083264    4.581127   -0.901223
     86          1           0       -9.437978    3.013377    1.115462
     87          1           0       -7.511747    5.293265    1.947632
     88          1           0       -9.268220    5.021119    1.562666
     89          1           0       -8.292003    6.154189    0.678483
     90          1           0       -9.533922    2.149377   -1.797421
     91          1           0      -10.159269    3.662381   -1.402976
     92          1           0      -11.494048    2.044653    0.539293
     93          1           0      -11.555024    1.167311   -1.034780
     94          1           0      -12.188331    2.835359   -0.860577
     95          1           0       -9.019471   -3.287838    2.201819
     96          1           0       -9.623077   -2.978605    0.475297
     97          1           0       -9.969407   -1.879264    1.810541
     98          1           0       -4.391076   -3.795449    2.248050
     99          1           0       -2.809265   -7.308344    0.402125
    100          1           0       -1.610808   -6.916421    1.507068
    101          1           0       -1.531630   -6.220616   -0.175297
    102          1           0        3.063383   -4.793553   -0.573817
    103          1           0        2.964908   -3.291255    0.546389
    104          1           0        3.825183   -2.556715   -2.159073
    105          1           0        5.404879   -4.322504    0.703021
    106          1           0        6.990831   -3.969586    0.209290
    107          1           0        6.250123   -5.276510   -0.634651
    108          1           0        5.570586   -3.298618   -3.387400
    109          1           0        7.030894   -3.785366   -2.598430
    110          1           0        6.253162   -1.018838   -1.839400
    111          1           0        6.282417   -1.143566   -3.505346
    112          1           0        8.686375   -2.421181   -3.424798
    113          1           0        8.589881   -2.080667   -1.779131
    114          1           0        8.006096    0.517820   -2.728056
    115          1           0        9.990053    0.316072   -4.762724
    116          1           0        8.367373    0.974620   -4.629960
    117          1           0        8.652653   -0.732814   -5.116307
    118          1           0       10.785262    0.198848   -2.755817
    119          1           0       10.188474   -0.607880   -1.330382
    120          1           0        9.203693    1.371658   -0.438396
    121          1           0        9.168217    2.216429   -2.038221
    122          1           0       10.937673    3.314545   -1.780578
    123          1           0       11.886116    1.832191   -1.857295
    124          1           0       10.771737    2.752842    0.817560
    125          1           0       13.252015    4.047676    0.003063
    126          1           0       12.288035    4.342903    1.462346
    127          1           0       11.626087    4.834905   -0.108557
    128          1           0       13.441389    2.082921    0.942735
    129          1           0       12.839769    0.980638   -0.196452
    130          1           0       11.883828   -0.293600    1.522531
    131          1           0       10.661343    0.974872    1.705926
    132          1           0       12.930272    1.837677    3.351273
    133          1           0       12.701693    0.084271    3.527229
    134          1           0       10.494568    0.299672    4.087347
    135          1           0       11.122343    3.195770    3.613241
    136          1           0        9.936236    2.786223    5.014668
    137          1           0        9.523496    2.376629    3.414555
    138          1           0       11.028911    1.426069    6.463144
    139          1           0       12.603871    1.473762    5.734082
    140          1           0       11.902791   -0.049942    6.004071
 ---------------------------------------------------------------------

 SCF Done:  E(RZINDO/S) =  -474.541435573     A.U. after   19 cycles

 Excitation energies and oscillator strengths:

 Excited State   1:      Singlet-A      1.3046 eV  950.34 nm  f=0.5953  <S**2>=0.000
     175 ->178        -0.19469
     176 ->177         0.66334
 This state for optimization and/or second-order correction.
 Total Energy, E(CIS/TDA) =  -474.493491203
 Copying the excited state density for this state as the 1-particle RhoCI density.

 Excited State   2:      Singlet-A      1.9711 eV  629.01 nm  f=0.0545  <S**2>=0.000
     175 ->177         0.55243
     176 ->178         0.41702

 Excited State   3:      Singlet-A      3.0469 eV  406.92 nm  f=0.0348  <S**2>=0.000
     167 ->177        -0.19641
     167 ->179         0.34943
     167 ->181        -0.20636
     167 ->186         0.13450
     168 ->177        -0.20639
     168 ->179         0.32789
     168 ->181        -0.17893
     168 ->186         0.12819

 Excited State   4:      Singlet-A      3.0706 eV  403.78 nm  f=0.5571  <S**2>=0.000
     171 ->177         0.20965
     171 ->179         0.18852
     171 ->181         0.27782
     171 ->186         0.15373
     175 ->177        -0.26113
     176 ->178         0.36510

 Excited State   5:      Singlet-A      3.1031 eV  399.55 nm  f=0.6166  <S**2>=0.000
     171 ->177        -0.20010
     171 ->179        -0.16885
     171 ->181        -0.27238
     171 ->186        -0.15792
     175 ->177        -0.26724
     176 ->178         0.36869
     176 ->179         0.11731
     176 ->181         0.10531

 The electronic state is 1-A.
 Alpha  occ. eigenvalues --   -1.84584  -1.83100  -1.82087  -1.74609  -1.73376
 Alpha  occ. eigenvalues --   -1.71195  -1.65587  -1.61919  -1.58778  -1.57797
 Alpha  occ. eigenvalues --   -1.55751  -1.52439  -1.48209  -1.46834  -1.46677
 Alpha  occ. eigenvalues --   -1.45870  -1.41836  -1.41407  -1.39058  -1.38277
 Alpha  occ. eigenvalues --   -1.36380  -1.34728  -1.32792  -1.31397  -1.29191
 Alpha  occ. eigenvalues --   -1.27272  -1.25521  -1.22786  -1.20735  -1.18514
 Alpha  occ. eigenvalues --   -1.17306  -1.16345  -1.15942  -1.14438  -1.13167
 Alpha  occ. eigenvalues --   -1.12504  -1.11766  -1.10896  -1.05277  -1.03938
 Alpha  occ. eigenvalues --   -1.02977  -1.01498  -0.99987  -0.97760  -0.97459
 Alpha  occ. eigenvalues --   -0.96778  -0.96352  -0.94119  -0.92697  -0.91859
 Alpha  occ. eigenvalues --   -0.91488  -0.91061  -0.88589  -0.87921  -0.87166
 Alpha  occ. eigenvalues --   -0.86071  -0.84891  -0.82779  -0.82167  -0.80368
 Alpha  occ. eigenvalues --   -0.79555  -0.78557  -0.76758  -0.76319  -0.76040
 Alpha  occ. eigenvalues --   -0.75584  -0.74364  -0.74103  -0.73723  -0.73269
 Alpha  occ. eigenvalues --   -0.73005  -0.72393  -0.71632  -0.71340  -0.70720
 Alpha  occ. eigenvalues --   -0.70305  -0.69504  -0.69399  -0.68574  -0.67282
 Alpha  occ. eigenvalues --   -0.66944  -0.66733  -0.66232  -0.65970  -0.65738
 Alpha  occ. eigenvalues --   -0.65257  -0.64962  -0.64729  -0.64543  -0.63998
 Alpha  occ. eigenvalues --   -0.63172  -0.62963  -0.62383  -0.61980  -0.61600
 Alpha  occ. eigenvalues --   -0.61318  -0.61193  -0.60929  -0.60625  -0.60206
 Alpha  occ. eigenvalues --   -0.60075  -0.59501  -0.59093  -0.58318  -0.58018
 Alpha  occ. eigenvalues --   -0.57993  -0.57585  -0.57153  -0.56918  -0.56448
 Alpha  occ. eigenvalues --   -0.56260  -0.56007  -0.55787  -0.55280  -0.55027
 Alpha  occ. eigenvalues --   -0.54784  -0.54240  -0.53927  -0.53104  -0.52953
 Alpha  occ. eigenvalues --   -0.52670  -0.52303  -0.52137  -0.51630  -0.51483
 Alpha  occ. eigenvalues --   -0.51456  -0.51203  -0.51179  -0.50573  -0.49925
 Alpha  occ. eigenvalues --   -0.49753  -0.49592  -0.49376  -0.49137  -0.48989
 Alpha  occ. eigenvalues --   -0.48850  -0.48693  -0.48554  -0.48192  -0.47684
 Alpha  occ. eigenvalues --   -0.47505  -0.47452  -0.47150  -0.46863  -0.46640
 Alpha  occ. eigenvalues --   -0.46415  -0.45944  -0.45812  -0.45602  -0.45053
 Alpha  occ. eigenvalues --   -0.45029  -0.44628  -0.44553  -0.44443  -0.44172
 Alpha  occ. eigenvalues --   -0.42997  -0.42775  -0.42495  -0.42335  -0.41890
 Alpha  occ. eigenvalues --   -0.41661  -0.41079  -0.40981  -0.39165  -0.38933
 Alpha  occ. eigenvalues --   -0.37543  -0.36683  -0.36101  -0.34930  -0.34338
 Alpha  occ. eigenvalues --   -0.34094  -0.32551  -0.32502  -0.31629  -0.26614
 Alpha  occ. eigenvalues --   -0.21871
 Alpha virt. eigenvalues --   -0.08328  -0.01789  -0.00042   0.01437   0.01934
 Alpha virt. eigenvalues --    0.03314   0.03506   0.03882   0.04324   0.04935
 Alpha virt. eigenvalues --    0.06434   0.06772   0.06910   0.07847   0.08264

 Mulliken charges:
               1
     1  Mg   0.416663
     2  C   -0.035756
     3  C   -0.088201
     4  C   -0.074004
     5  C   -0.057149
     6  N   -0.280097
     7  C    0.098492
     8  C    0.006083
     9  C    0.008260
    10  C    0.155574
    11  C   -0.049935
    12  C   -0.012073
    13  C    0.009682
    14  C    0.461305
    15  O   -0.527438
    16  O   -0.281066
    17  N   -0.348568
    18  C    0.116053
    19  C    0.027618
    20  C   -0.027097
    21  C    0.140282
    22  C   -0.054592
    23  C    0.331727
    24  O   -0.515258
    25  C   -0.031258
    26  N   -0.252283
    27  C    0.159462
    28  C    0.007695
    29  C   -0.006153
    30  C    0.100989
    31  C   -0.046922
    32  C   -0.035499
    33  C   -0.055658
    34  N   -0.316828
    35  C    0.066334
    36  C    0.037692
    37  C   -0.078619
    38  C    0.103135
    39  C   -0.029599
    40  C    0.331130
    41  O   -0.508858
    42  C    0.051737
    43  C    0.492723
    44  O   -0.501026
    45  O   -0.270313
    46  C    0.076662
    47  C    0.114628
    48  C   -0.087816
    49  C   -0.020470
    50  C   -0.046897
    51  C   -0.017345
    52  C   -0.021333
    53  C   -0.030916
    54  C   -0.022723
    55  C   -0.062643
    56  C   -0.036594
    57  C   -0.046426
    58  C   -0.036781
    59  C   -0.016396
    60  C   -0.065271
    61  C   -0.031856
    62  C   -0.037441
    63  C   -0.038094
    64  C   -0.009690
    65  C   -0.058094
    66  C   -0.060003
    67  H    0.016523
    68  H    0.043470
    69  H    0.031222
    70  H    0.033018
    71  H    0.024464
    72  H    0.019846
    73  H    0.027328
    74  H    0.019979
    75  H    0.033510
    76  H    0.044872
    77  H    0.034657
    78  H    0.041884
    79  H    0.023774
    80  H    0.035668
    81  H    0.020766
    82  H    0.036922
    83  H    0.033632
    84  H    0.040483
    85  H    0.030532
    86  H    0.022151
    87  H    0.031808
    88  H    0.021156
    89  H    0.015583
    90  H    0.026206
    91  H    0.008715
    92  H    0.023280
    93  H    0.025094
    94  H    0.022141
    95  H    0.037590
    96  H    0.043865
    97  H    0.016288
    98  H    0.055108
    99  H    0.037130
   100  H    0.028238
   101  H    0.051903
   102  H    0.064039
   103  H    0.058312
   104  H    0.026613
   105  H    0.022650
   106  H    0.021762
   107  H    0.033096
   108  H    0.017914
   109  H    0.019542
   110  H    0.029749
   111  H    0.013605
   112  H    0.034415
   113  H    0.009454
   114  H    0.019421
   115  H    0.020001
   116  H    0.015311
   117  H    0.017180
   118  H    0.016707
   119  H    0.018993
   120  H    0.030844
   121  H    0.021234
   122  H    0.011259
   123  H    0.025431
   124  H    0.013273
   125  H    0.017536
   126  H    0.021626
   127  H    0.015819
   128  H    0.022394
   129  H    0.014425
   130  H    0.014785
   131  H    0.028279
   132  H    0.025706
   133  H    0.007880
   134  H    0.013058
   135  H    0.033806
   136  H    0.020990
   137  H    0.015443
   138  H    0.017638
   139  H    0.007474
   140  H    0.020647
 Sum of Mulliken charges =  -0.00000

 Dipole moment (field-independent basis, Debye):
    X=              8.3493    Y=              6.0056    Z=             -0.5388  Tot=             10.2989
 N-N= 4.327964477669D+03 E-N= 0.000000000000D+00  KE=-9.330402864839D+03
 Leave Link  601 at Thu May  5 11:59:13 2022, MaxMem=  6710886400 cpu:               1.0 elap:               0.1
 (Enter /sw/apps/gaussian-16.0/g16/l9999.exe)
 1\1\GINC-BP1-COMPUTE216\SP\RZINDO CIS\STO-3G\C55H74Mg1N4O6\OF15641\05-
 May-2022\0\\#p ZINDO=(nstates=5)\\step_851_chromophore_15 ZINDO\\0,1\M
 g,0,45.937,34.785,27.81\C,0,44.701,32.666,30.313\C,0,46.415,37.17,30.2
 41\C,0,46.941,36.778,25.378\C,0,45.432,32.187,25.51\N,0,45.642,34.922,
 30.082\C,0,45.144,33.9,30.841\C,0,45.355,34.289,32.294\C,0,45.352,35.8
 61,32.211\C,0,45.787,36.042,30.762\C,0,44.057,36.671,32.579\C,0,46.669
 ,33.592,32.92\C,0,47.024,34.09,34.319\C,0,45.88,34.63,35.26\O,0,44.858

 Normal termination of Gaussian 16 at Thu May  5 11:59:13 2022.
