 Gaussian 16, Revision A.03,
 Gaussian 16:  ES64L-G16RevA.03 25-Dec-2016

 ------------------------------
 #p blyp/Def2SVP td=(nstates=5)
 ------------------------------

 ---------------------------------------------------
 step_1151_chromophore_14 TDDFT with blyp functional
 ---------------------------------------------------
 Symbolic Z-matrix:
 Charge =  0 Multiplicity = 1

                         Standard orientation:
 ---------------------------------------------------------------------
 Center     Atomic      Atomic             Coordinates (Angstroms)
 Number     Number       Type             X           Y           Z
 ---------------------------------------------------------------------
      1         12           0        5.326812    0.882953   -0.301903
      2          6           0        4.831357   -2.360803    0.501887
      3          6           0        3.933906    0.223090   -3.410714
      4          6           0        5.092847    4.211104   -0.664800
      5          6           0        6.244018    1.476716    3.111342
      6          7           0        4.305130   -0.785341   -1.234466
      7          6           0        4.310005   -2.061479   -0.755333
      8          6           0        3.773608   -3.152111   -1.754644
      9          6           0        3.625703   -2.235449   -2.999258
     10          6           0        4.154225   -0.894357   -2.552811
     11          6           0        4.351571   -2.768168   -4.251941
     12          6           0        2.523279   -3.927077   -1.375448
     13          6           0        1.494273   -3.272602   -0.383348
     14          6           0        0.016034   -3.395404   -0.796745
     15          8           0       -0.473093   -3.403376   -1.939776
     16          8           0       -0.798316   -3.397857    0.332299
     17          7           0        4.676186    2.128715   -1.839683
     18          6           0        4.123248    1.669731   -3.074836
     19          6           0        3.774288    2.849460   -3.787805
     20          6           0        3.941253    3.985146   -2.949044
     21          6           0        4.609394    3.476382   -1.723967
     22          6           0        3.244255    2.749641   -5.270730
     23          6           0        3.432276    5.396969   -3.293947
     24          8           0        3.027460    5.568751   -4.421853
     25          6           0        3.569921    6.593733   -2.368793
     26          7           0        5.594793    2.564605    1.036480
     27          6           0        5.477846    3.833867    0.599852
     28          6           0        5.949918    4.822353    1.737703
     29          6           0        6.229934    4.007526    2.924609
     30          6           0        6.001545    2.610277    2.331597
     31          6           0        7.062093    5.761422    1.463066
     32          6           0        5.378149    4.471521    4.087294
     33          6           0        6.033950    5.085261    5.355060
     34          7           0        5.558980   -0.183773    1.434882
     35          6           0        6.078673    0.139580    2.658547
     36          6           0        6.330648   -1.027826    3.421287
     37          6           0        5.752623   -2.066618    2.656893
     38          6           0        5.305804   -1.463668    1.413600
     39          6           0        6.936742   -1.076814    4.793613
     40          6           0        5.436694   -3.424066    2.571425
     41          8           0        5.624100   -4.309460    3.349547
     42          6           0        4.794796   -3.703194    1.245853
     43          6           0        5.501144   -4.873916    0.619910
     44          8           0        4.977928   -5.977932    0.634870
     45          8           0        6.755574   -4.538740    0.113632
     46          6           0        7.273006   -5.483789   -0.873551
     47          6           0       -2.220061   -3.690368    0.067131
     48          6           0       -3.067405   -2.563027   -0.471339
     49          6           0       -3.825828   -2.507809   -1.569833
     50          6           0       -4.016781   -3.627258   -2.602498
     51          6           0       -4.546260   -1.175890   -1.804175
     52          6           0       -5.959871   -0.993734   -1.243912
     53          6           0       -5.991050    0.019902   -0.069787
     54          6           0       -7.287717    0.888364    0.102240
     55          6           0       -6.878102    2.417416    0.168428
     56          6           0       -8.166852    0.409824    1.267319
     57          6           0       -9.719123    0.537958    1.026131
     58          6           0      -10.623692   -0.593510    1.510082
     59          6           0      -12.060712   -0.200290    1.984727
     60          6           0      -12.478372   -1.011549    3.269240
     61          6           0      -13.131972   -0.408001    0.856326
     62          6           0      -13.936616    0.915556    0.705945
     63          6           0      -15.168920    0.732769   -0.265674
     64          6           0      -16.331975    1.736137    0.132372
     65          6           0      -17.368371    1.157425    1.088761
     66          6           0      -17.064056    2.245664   -1.074674
     67          1           0        3.559552    0.044787   -4.421111
     68          1           0        5.055359    5.290378   -0.830030
     69          1           0        6.669094    1.621606    4.106912
     70          1           0        4.573601   -3.855367   -1.987588
     71          1           0        2.550965   -2.164362   -3.163803
     72          1           0        4.540925   -3.835641   -4.136774
     73          1           0        5.330947   -2.288949   -4.245080
     74          1           0        3.731044   -2.372685   -5.056184
     75          1           0        2.857705   -4.833285   -0.871563
     76          1           0        1.990459   -4.237563   -2.275114
     77          1           0        1.706405   -2.221691   -0.186232
     78          1           0        1.626070   -3.737394    0.594186
     79          1           0        3.368513    1.807685   -5.805454
     80          1           0        3.682935    3.546065   -5.870948
     81          1           0        2.177841    2.925978   -5.128799
     82          1           0        4.593435    6.930231   -2.203756
     83          1           0        3.091142    6.401513   -1.407848
     84          1           0        3.016081    7.444437   -2.766025
     85          1           0        5.040051    5.421821    1.732708
     86          1           0        7.299312    3.958355    3.128398
     87          1           0        6.754689    6.806985    1.442271
     88          1           0        7.403222    5.547199    0.449689
     89          1           0        7.932476    5.701517    2.116558
     90          1           0        4.845789    3.549405    4.324629
     91          1           0        4.724383    5.284563    3.773280
     92          1           0        5.509258    4.654100    6.207560
     93          1           0        5.864001    6.161798    5.330901
     94          1           0        7.088466    4.816290    5.299700
     95          1           0        6.995355   -2.094450    5.181391
     96          1           0        6.242337   -0.528060    5.430981
     97          1           0        7.931992   -0.658962    4.646279
     98          1           0        3.744101   -3.961643    1.377783
     99          1           0        8.311135   -5.207609   -1.059553
    100          1           0        6.748288   -5.361950   -1.821454
    101          1           0        7.212759   -6.497090   -0.474079
    102          1           0       -2.651254   -3.975600    1.027501
    103          1           0       -2.241115   -4.539293   -0.616628
    104          1           0       -2.981896   -1.677999    0.158939
    105          1           0       -5.018316   -4.057546   -2.584466
    106          1           0       -3.318213   -4.448026   -2.447126
    107          1           0       -3.808377   -3.238176   -3.599434
    108          1           0       -4.669487   -1.099986   -2.884112
    109          1           0       -3.828350   -0.380266   -1.602283
    110          1           0       -6.245708   -2.003642   -0.953134
    111          1           0       -6.653924   -0.790937   -2.060040
    112          1           0       -5.190841    0.748709   -0.202875
    113          1           0       -5.887137   -0.608542    0.815066
    114          1           0       -7.781690    0.831341   -0.867665
    115          1           0       -5.925534    2.580026    0.673131
    116          1           0       -7.601123    3.032687    0.704171
    117          1           0       -6.959898    2.880942   -0.813927
    118          1           0       -7.887053    0.977595    2.155097
    119          1           0       -7.954701   -0.636611    1.486840
    120          1           0       -9.770671    0.481702   -0.061796
    121          1           0      -10.091140    1.533104    1.270392
    122          1           0      -10.191947   -1.141831    2.346321
    123          1           0      -10.764977   -1.348504    0.735966
    124          1           0      -12.042595    0.818858    2.372454
    125          1           0      -12.162802   -0.484299    4.169447
    126          1           0      -12.112252   -2.037639    3.229106
    127          1           0      -13.559054   -1.096994    3.379686
    128          1           0      -13.777154   -1.173037    1.289566
    129          1           0      -12.605515   -0.601909   -0.078054
    130          1           0      -13.277226    1.692422    0.317372
    131          1           0      -14.331221    1.196767    1.682255
    132          1           0      -15.441458   -0.318602   -0.358023
    133          1           0      -14.729387    1.034351   -1.215407
    134          1           0      -15.850379    2.541383    0.688202
    135          1           0      -17.524527    1.791457    1.961537
    136          1           0      -17.055964    0.188027    1.477359
    137          1           0      -18.349786    1.039981    0.629763
    138          1           0      -18.135789    2.047890   -1.061731
    139          1           0      -16.683370    1.866786   -2.023443
    140          1           0      -16.956197    3.325303   -0.975066
 ---------------------------------------------------------------------

 SCF Done:  E(RB-LYP) =  -3007.36264823     A.U. after   22 cycles

 Excitation energies and oscillator strengths:

 Excited State   1:      Singlet-A      1.7286 eV  717.27 nm  f=0.0248  <S**2>=0.000
     244 -> 247        0.62479
     245 -> 247        0.23240
     246 -> 247        0.23069
 This state for optimization and/or second-order correction.
 Total Energy, E(TD-HF/TD-DFT) =  -3007.29912499
 Copying the excited state density for this state as the 1-particle RhoCI density.

 Excited State   2:      Singlet-A      1.8117 eV  684.34 nm  f=0.2214  <S**2>=0.000
     243 -> 247        0.30490
     244 -> 247       -0.20307
     245 -> 248        0.16327
     246 -> 247        0.58835
     246 <- 247       -0.12979

 Excited State   3:      Singlet-A      1.8529 eV  669.12 nm  f=0.0557  <S**2>=0.000
     243 -> 247        0.63116
     244 -> 247        0.11008
     246 -> 247       -0.28299

 Excited State   4:      Singlet-A      2.0689 eV  599.26 nm  f=0.0830  <S**2>=0.000
     242 -> 247        0.10038
     244 -> 247       -0.22075
     245 -> 247        0.59802
     246 -> 248       -0.26285

 Excited State   5:      Singlet-A      2.2529 eV  550.34 nm  f=0.0010  <S**2>=0.000
     241 -> 247        0.70392

 The electronic state is 1-A.
 Alpha  occ. eigenvalues --  -46.27345 -18.82400 -18.81604 -18.77120 -18.77119
 Alpha  occ. eigenvalues --  -18.75432 -18.74579 -14.03993 -14.03357 -14.01059
 Alpha  occ. eigenvalues --  -14.00856 -10.04443 -10.04163 -10.00026  -9.98210
 Alpha  occ. eigenvalues --   -9.98144  -9.97345  -9.96760  -9.96594  -9.96477
 Alpha  occ. eigenvalues --   -9.96405  -9.96149  -9.95900  -9.95394  -9.94143
 Alpha  occ. eigenvalues --   -9.94129  -9.94118  -9.94036  -9.93704  -9.93523
 Alpha  occ. eigenvalues --   -9.93381  -9.93291  -9.93269  -9.93238  -9.93135
 Alpha  occ. eigenvalues --   -9.93083  -9.92865  -9.92698  -9.92685  -9.92671
 Alpha  occ. eigenvalues --   -9.92584  -9.92565  -9.92503  -9.92497  -9.92393
 Alpha  occ. eigenvalues --   -9.92289  -9.91882  -9.91805  -9.91772  -9.91524
 Alpha  occ. eigenvalues --   -9.91450  -9.91386  -9.91202  -9.91111  -9.91068
 Alpha  occ. eigenvalues --   -9.91029  -9.91007  -9.90996  -9.90880  -9.90871
 Alpha  occ. eigenvalues --   -9.90782  -9.90762  -9.90666  -9.90551  -9.90301
 Alpha  occ. eigenvalues --   -9.90041  -2.92073  -1.72476  -1.71993  -1.71757
 Alpha  occ. eigenvalues --   -0.97326  -0.96654  -0.92433  -0.92204  -0.90226
 Alpha  occ. eigenvalues --   -0.88685  -0.88055  -0.87330  -0.86745  -0.84275
 Alpha  occ. eigenvalues --   -0.76344  -0.74450  -0.73352  -0.72892  -0.72293
 Alpha  occ. eigenvalues --   -0.72263  -0.71457  -0.71109  -0.70705  -0.70514
 Alpha  occ. eigenvalues --   -0.69220  -0.68383  -0.67973  -0.67775  -0.67306
 Alpha  occ. eigenvalues --   -0.66230  -0.65894  -0.65163  -0.64767  -0.64539
 Alpha  occ. eigenvalues --   -0.63830  -0.63029  -0.62525  -0.61589  -0.61196
 Alpha  occ. eigenvalues --   -0.60118  -0.59943  -0.59643  -0.59371  -0.58652
 Alpha  occ. eigenvalues --   -0.58489  -0.57968  -0.56969  -0.56153  -0.54880
 Alpha  occ. eigenvalues --   -0.54302  -0.53437  -0.52440  -0.52384  -0.51915
 Alpha  occ. eigenvalues --   -0.51298  -0.50772  -0.50653  -0.50519  -0.49578
 Alpha  occ. eigenvalues --   -0.49459  -0.49144  -0.48426  -0.48310  -0.46555
 Alpha  occ. eigenvalues --   -0.46158  -0.46029  -0.45659  -0.45618  -0.44573
 Alpha  occ. eigenvalues --   -0.44340  -0.43620  -0.43295  -0.42997  -0.42552
 Alpha  occ. eigenvalues --   -0.42008  -0.41867  -0.41572  -0.41218  -0.41137
 Alpha  occ. eigenvalues --   -0.40968  -0.40800  -0.40424  -0.40079  -0.40028
 Alpha  occ. eigenvalues --   -0.39785  -0.39698  -0.39491  -0.39317  -0.39205
 Alpha  occ. eigenvalues --   -0.39073  -0.38906  -0.38754  -0.38525  -0.38335
 Alpha  occ. eigenvalues --   -0.38139  -0.38002  -0.37824  -0.37605  -0.37243
 Alpha  occ. eigenvalues --   -0.37122  -0.36805  -0.36788  -0.36612  -0.36417
 Alpha  occ. eigenvalues --   -0.36198  -0.35991  -0.35984  -0.35931  -0.35659
 Alpha  occ. eigenvalues --   -0.35615  -0.35495  -0.35238  -0.34976  -0.34639
 Alpha  occ. eigenvalues --   -0.34515  -0.34436  -0.34239  -0.34091  -0.33864
 Alpha  occ. eigenvalues --   -0.33623  -0.33538  -0.33447  -0.33235  -0.33211
 Alpha  occ. eigenvalues --   -0.33194  -0.32890  -0.32717  -0.32624  -0.32408
 Alpha  occ. eigenvalues --   -0.32192  -0.32036  -0.31853  -0.31701  -0.31417
 Alpha  occ. eigenvalues --   -0.31180  -0.31109  -0.31020  -0.30953  -0.30758
 Alpha  occ. eigenvalues --   -0.30546  -0.30505  -0.30037  -0.29809  -0.29615
 Alpha  occ. eigenvalues --   -0.29477  -0.29320  -0.29198  -0.29036  -0.28848
 Alpha  occ. eigenvalues --   -0.28469  -0.28277  -0.27877  -0.27757  -0.27600
 Alpha  occ. eigenvalues --   -0.27349  -0.26964  -0.26810  -0.26623  -0.26374
 Alpha  occ. eigenvalues --   -0.26157  -0.25836  -0.25815  -0.25776  -0.25408
 Alpha  occ. eigenvalues --   -0.25227  -0.24722  -0.24213  -0.23954  -0.23227
 Alpha  occ. eigenvalues --   -0.23023  -0.22522  -0.22356  -0.21697  -0.20986
 Alpha  occ. eigenvalues --   -0.20173  -0.20046  -0.18583  -0.18217  -0.17672
 Alpha  occ. eigenvalues --   -0.16148
 Alpha virt. eigenvalues --   -0.11897  -0.06948  -0.06022  -0.04583  -0.03619
 Alpha virt. eigenvalues --   -0.03240  -0.02965  -0.02287  -0.01541   0.00227
 Alpha virt. eigenvalues --    0.00920   0.01618   0.01946   0.02865   0.03122

 Mulliken charges:
               1
     1  Mg   0.697139
     2  C    0.019406
     3  C   -0.042898
     4  C   -0.068433
     5  C   -0.101563
     6  N   -0.203520
     7  C   -0.131601
     8  C    0.061276
     9  C   -0.062619
    10  C    0.062388
    11  C    0.147733
    12  C    0.119851
    13  C    0.089183
    14  C    0.091400
    15  O   -0.205285
    16  O   -0.278411
    17  N   -0.324835
    18  C    0.105250
    19  C   -0.140122
    20  C    0.014834
    21  C    0.143255
    22  C    0.170029
    23  C   -0.070783
    24  O   -0.154271
    25  C    0.122500
    26  N   -0.187327
    27  C    0.018604
    28  C   -0.004252
    29  C    0.089015
    30  C   -0.019083
    31  C    0.145030
    32  C    0.085601
    33  C    0.078180
    34  N   -0.228054
    35  C    0.112631
    36  C   -0.226136
    37  C    0.151607
    38  C    0.044378
    39  C    0.194081
    40  C   -0.142894
    41  O   -0.099497
    42  C    0.105420
    43  C    0.110672
    44  O   -0.165088
    45  O   -0.291669
    46  C    0.216566
    47  C    0.345759
    48  C   -0.119238
    49  C   -0.125946
    50  C    0.150123
    51  C    0.110997
    52  C    0.107233
    53  C    0.108459
    54  C   -0.077447
    55  C    0.087597
    56  C    0.125113
    57  C    0.083357
    58  C    0.115356
    59  C   -0.105834
    60  C    0.084145
    61  C    0.147729
    62  C   -0.014527
    63  C    0.117651
    64  C   -0.096778
    65  C    0.105705
    66  C    0.124408
    67  H   -0.055370
    68  H   -0.096906
    69  H   -0.064616
    70  H   -0.036277
    71  H   -0.004822
    72  H   -0.004188
    73  H   -0.016104
    74  H    0.013272
    75  H   -0.007577
    76  H   -0.003591
    77  H    0.026733
    78  H    0.005106
    79  H   -0.015021
    80  H    0.011346
    81  H    0.006358
    82  H    0.032857
    83  H   -0.001445
    84  H   -0.014416
    85  H   -0.024462
    86  H   -0.025911
    87  H   -0.019460
    88  H   -0.019192
    89  H   -0.009690
    90  H   -0.020042
    91  H   -0.017185
    92  H    0.001444
    93  H   -0.003354
    94  H   -0.009768
    95  H    0.004844
    96  H    0.011916
    97  H    0.005679
    98  H   -0.004638
    99  H    0.011472
   100  H    0.007553
   101  H    0.029746
   102  H   -0.008597
   103  H   -0.020255
   104  H   -0.040720
   105  H   -0.001698
   106  H   -0.015059
   107  H   -0.001108
   108  H   -0.055193
   109  H   -0.020119
   110  H   -0.039659
   111  H   -0.036201
   112  H   -0.030577
   113  H   -0.022625
   114  H   -0.037770
   115  H   -0.005582
   116  H   -0.032935
   117  H   -0.017057
   118  H   -0.030987
   119  H   -0.035908
   120  H   -0.045803
   121  H   -0.026645
   122  H   -0.043824
   123  H   -0.036621
   124  H   -0.037819
   125  H   -0.015199
   126  H   -0.013221
   127  H   -0.027334
   128  H   -0.031592
   129  H   -0.027203
   130  H   -0.017542
   131  H   -0.021972
   132  H   -0.027471
   133  H   -0.041769
   134  H   -0.029127
   135  H   -0.020275
   136  H   -0.022924
   137  H   -0.019104
   138  H   -0.024283
   139  H   -0.014244
   140  H   -0.019825
 Sum of Mulliken charges =  -0.00000

 Dipole moment (field-independent basis, Debye):
    X=              1.9127    Y=              3.7368    Z=              0.4388  Tot=              4.2208
 Quadrupole moment (field-independent basis, Debye-Ang):
   XX=           -368.2427   YY=           -419.9987   ZZ=           -416.4991
   XY=             23.8413   XZ=             -5.9567   YZ=             46.7032

 Normal termination of Gaussian 16 at Wed May  4 00:43:42 2022.
