 Gaussian 16, Revision A.03,
 Gaussian 16:  ES64L-G16RevA.03 25-Dec-2016

 -----------------------------------
 #p cam-b3lyp/Def2SVP td=(nstates=5)
 -----------------------------------

 --------------------------------------------------------
 step_1151_chromophore_14 TDDFT with cam-b3lyp functional
 --------------------------------------------------------
 Symbolic Z-matrix:
 Charge =  0 Multiplicity = 1

                         Standard orientation:
 ---------------------------------------------------------------------
 Center     Atomic      Atomic             Coordinates (Angstroms)
 Number     Number       Type             X           Y           Z
 ---------------------------------------------------------------------
      1         12           0        5.326812    0.882953   -0.301903
      2          6           0        4.831357   -2.360803    0.501887
      3          6           0        3.933906    0.223090   -3.410714
      4          6           0        5.092847    4.211104   -0.664800
      5          6           0        6.244018    1.476716    3.111342
      6          7           0        4.305130   -0.785341   -1.234466
      7          6           0        4.310005   -2.061479   -0.755333
      8          6           0        3.773608   -3.152111   -1.754644
      9          6           0        3.625703   -2.235449   -2.999258
     10          6           0        4.154225   -0.894357   -2.552811
     11          6           0        4.351571   -2.768168   -4.251941
     12          6           0        2.523279   -3.927077   -1.375448
     13          6           0        1.494273   -3.272602   -0.383348
     14          6           0        0.016034   -3.395404   -0.796745
     15          8           0       -0.473093   -3.403376   -1.939776
     16          8           0       -0.798316   -3.397857    0.332299
     17          7           0        4.676186    2.128715   -1.839683
     18          6           0        4.123248    1.669731   -3.074836
     19          6           0        3.774288    2.849460   -3.787805
     20          6           0        3.941253    3.985146   -2.949044
     21          6           0        4.609394    3.476382   -1.723967
     22          6           0        3.244255    2.749641   -5.270730
     23          6           0        3.432276    5.396969   -3.293947
     24          8           0        3.027460    5.568751   -4.421853
     25          6           0        3.569921    6.593733   -2.368793
     26          7           0        5.594793    2.564605    1.036480
     27          6           0        5.477846    3.833867    0.599852
     28          6           0        5.949918    4.822353    1.737703
     29          6           0        6.229934    4.007526    2.924609
     30          6           0        6.001545    2.610277    2.331597
     31          6           0        7.062093    5.761422    1.463066
     32          6           0        5.378149    4.471521    4.087294
     33          6           0        6.033950    5.085261    5.355060
     34          7           0        5.558980   -0.183773    1.434882
     35          6           0        6.078673    0.139580    2.658547
     36          6           0        6.330648   -1.027826    3.421287
     37          6           0        5.752623   -2.066618    2.656893
     38          6           0        5.305804   -1.463668    1.413600
     39          6           0        6.936742   -1.076814    4.793613
     40          6           0        5.436694   -3.424066    2.571425
     41          8           0        5.624100   -4.309460    3.349547
     42          6           0        4.794796   -3.703194    1.245853
     43          6           0        5.501144   -4.873916    0.619910
     44          8           0        4.977928   -5.977932    0.634870
     45          8           0        6.755574   -4.538740    0.113632
     46          6           0        7.273006   -5.483789   -0.873551
     47          6           0       -2.220061   -3.690368    0.067131
     48          6           0       -3.067405   -2.563027   -0.471339
     49          6           0       -3.825828   -2.507809   -1.569833
     50          6           0       -4.016781   -3.627258   -2.602498
     51          6           0       -4.546260   -1.175890   -1.804175
     52          6           0       -5.959871   -0.993734   -1.243912
     53          6           0       -5.991050    0.019902   -0.069787
     54          6           0       -7.287717    0.888364    0.102240
     55          6           0       -6.878102    2.417416    0.168428
     56          6           0       -8.166852    0.409824    1.267319
     57          6           0       -9.719123    0.537958    1.026131
     58          6           0      -10.623692   -0.593510    1.510082
     59          6           0      -12.060712   -0.200290    1.984727
     60          6           0      -12.478372   -1.011549    3.269240
     61          6           0      -13.131972   -0.408001    0.856326
     62          6           0      -13.936616    0.915556    0.705945
     63          6           0      -15.168920    0.732769   -0.265674
     64          6           0      -16.331975    1.736137    0.132372
     65          6           0      -17.368371    1.157425    1.088761
     66          6           0      -17.064056    2.245664   -1.074674
     67          1           0        3.559552    0.044787   -4.421111
     68          1           0        5.055359    5.290378   -0.830030
     69          1           0        6.669094    1.621606    4.106912
     70          1           0        4.573601   -3.855367   -1.987588
     71          1           0        2.550965   -2.164362   -3.163803
     72          1           0        4.540925   -3.835641   -4.136774
     73          1           0        5.330947   -2.288949   -4.245080
     74          1           0        3.731044   -2.372685   -5.056184
     75          1           0        2.857705   -4.833285   -0.871563
     76          1           0        1.990459   -4.237563   -2.275114
     77          1           0        1.706405   -2.221691   -0.186232
     78          1           0        1.626070   -3.737394    0.594186
     79          1           0        3.368513    1.807685   -5.805454
     80          1           0        3.682935    3.546065   -5.870948
     81          1           0        2.177841    2.925978   -5.128799
     82          1           0        4.593435    6.930231   -2.203756
     83          1           0        3.091142    6.401513   -1.407848
     84          1           0        3.016081    7.444437   -2.766025
     85          1           0        5.040051    5.421821    1.732708
     86          1           0        7.299312    3.958355    3.128398
     87          1           0        6.754689    6.806985    1.442271
     88          1           0        7.403222    5.547199    0.449689
     89          1           0        7.932476    5.701517    2.116558
     90          1           0        4.845789    3.549405    4.324629
     91          1           0        4.724383    5.284563    3.773280
     92          1           0        5.509258    4.654100    6.207560
     93          1           0        5.864001    6.161798    5.330901
     94          1           0        7.088466    4.816290    5.299700
     95          1           0        6.995355   -2.094450    5.181391
     96          1           0        6.242337   -0.528060    5.430981
     97          1           0        7.931992   -0.658962    4.646279
     98          1           0        3.744101   -3.961643    1.377783
     99          1           0        8.311135   -5.207609   -1.059553
    100          1           0        6.748288   -5.361950   -1.821454
    101          1           0        7.212759   -6.497090   -0.474079
    102          1           0       -2.651254   -3.975600    1.027501
    103          1           0       -2.241115   -4.539293   -0.616628
    104          1           0       -2.981896   -1.677999    0.158939
    105          1           0       -5.018316   -4.057546   -2.584466
    106          1           0       -3.318213   -4.448026   -2.447126
    107          1           0       -3.808377   -3.238176   -3.599434
    108          1           0       -4.669487   -1.099986   -2.884112
    109          1           0       -3.828350   -0.380266   -1.602283
    110          1           0       -6.245708   -2.003642   -0.953134
    111          1           0       -6.653924   -0.790937   -2.060040
    112          1           0       -5.190841    0.748709   -0.202875
    113          1           0       -5.887137   -0.608542    0.815066
    114          1           0       -7.781690    0.831341   -0.867665
    115          1           0       -5.925534    2.580026    0.673131
    116          1           0       -7.601123    3.032687    0.704171
    117          1           0       -6.959898    2.880942   -0.813927
    118          1           0       -7.887053    0.977595    2.155097
    119          1           0       -7.954701   -0.636611    1.486840
    120          1           0       -9.770671    0.481702   -0.061796
    121          1           0      -10.091140    1.533104    1.270392
    122          1           0      -10.191947   -1.141831    2.346321
    123          1           0      -10.764977   -1.348504    0.735966
    124          1           0      -12.042595    0.818858    2.372454
    125          1           0      -12.162802   -0.484299    4.169447
    126          1           0      -12.112252   -2.037639    3.229106
    127          1           0      -13.559054   -1.096994    3.379686
    128          1           0      -13.777154   -1.173037    1.289566
    129          1           0      -12.605515   -0.601909   -0.078054
    130          1           0      -13.277226    1.692422    0.317372
    131          1           0      -14.331221    1.196767    1.682255
    132          1           0      -15.441458   -0.318602   -0.358023
    133          1           0      -14.729387    1.034351   -1.215407
    134          1           0      -15.850379    2.541383    0.688202
    135          1           0      -17.524527    1.791457    1.961537
    136          1           0      -17.055964    0.188027    1.477359
    137          1           0      -18.349786    1.039981    0.629763
    138          1           0      -18.135789    2.047890   -1.061731
    139          1           0      -16.683370    1.866786   -2.023443
    140          1           0      -16.956197    3.325303   -0.975066
 ---------------------------------------------------------------------

 SCF Done:  E(RCAM-B3LYP) =  -3007.16440672     A.U. after   17 cycles

 Excitation energies and oscillator strengths:

 Excited State   1:      Singlet-A      1.6841 eV  736.22 nm  f=0.3590  <S**2>=0.000
     245 -> 248       -0.17801
     246 -> 247        0.68735
     245 <- 248       -0.11053
 This state for optimization and/or second-order correction.
 Total Energy, E(TD-HF/TD-DFT) =  -3007.10251857
 Copying the excited state density for this state as the 1-particle RhoCI density.

 Excited State   2:      Singlet-A      2.2515 eV  550.67 nm  f=0.1179  <S**2>=0.000
     245 -> 247        0.63746
     246 -> 248        0.29315

 Excited State   3:      Singlet-A      3.1851 eV  389.26 nm  f=0.0056  <S**2>=0.000
     244 -> 247        0.68862

 Excited State   4:      Singlet-A      3.3979 eV  364.88 nm  f=0.0053  <S**2>=0.000
     241 -> 247        0.59374
     241 -> 249       -0.27311
     241 -> 251       -0.16746
     242 -> 247        0.11110

 Excited State   5:      Singlet-A      3.5308 eV  351.15 nm  f=0.0627  <S**2>=0.000
     241 -> 247       -0.13005
     242 -> 247        0.60468
     246 -> 248       -0.29408

 The electronic state is 1-A.
 Alpha  occ. eigenvalues --  -46.88940 -19.25349 -19.24435 -19.20279 -19.20067
 Alpha  occ. eigenvalues --  -19.18740 -19.17717 -14.43027 -14.42170 -14.39565
 Alpha  occ. eigenvalues --  -14.39253 -10.39804 -10.39661 -10.35256 -10.33228
 Alpha  occ. eigenvalues --  -10.32218 -10.31382 -10.31279 -10.31125 -10.31069
 Alpha  occ. eigenvalues --  -10.30752 -10.30656 -10.30460 -10.29525 -10.28415
 Alpha  occ. eigenvalues --  -10.28370 -10.28334 -10.28263 -10.28178 -10.27878
 Alpha  occ. eigenvalues --  -10.27597 -10.27406 -10.27313 -10.27202 -10.27138
 Alpha  occ. eigenvalues --  -10.27112 -10.26986 -10.26865 -10.26659 -10.26526
 Alpha  occ. eigenvalues --  -10.26512 -10.26456 -10.26363 -10.26362 -10.26123
 Alpha  occ. eigenvalues --  -10.25969 -10.25695 -10.25606 -10.25388 -10.25209
 Alpha  occ. eigenvalues --  -10.25188 -10.24990 -10.24869 -10.24845 -10.24756
 Alpha  occ. eigenvalues --  -10.24711 -10.24682 -10.24650 -10.24570 -10.24546
 Alpha  occ. eigenvalues --  -10.24478 -10.24468 -10.24409 -10.24277 -10.23857
 Alpha  occ. eigenvalues --  -10.23571  -3.17571  -1.92449  -1.92057  -1.91849
 Alpha  occ. eigenvalues --   -1.15872  -1.15031  -1.10864  -1.10717  -1.08216
 Alpha  occ. eigenvalues --   -1.06443  -1.05883  -1.05059  -1.04373  -1.01862
 Alpha  occ. eigenvalues --   -0.93549  -0.91218  -0.90227  -0.89693  -0.89035
 Alpha  occ. eigenvalues --   -0.89008  -0.88111  -0.87746  -0.87265  -0.87076
 Alpha  occ. eigenvalues --   -0.85646  -0.84849  -0.84244  -0.83989  -0.83509
 Alpha  occ. eigenvalues --   -0.82285  -0.82031  -0.81147  -0.80618  -0.80414
 Alpha  occ. eigenvalues --   -0.79608  -0.78609  -0.78132  -0.77174  -0.76724
 Alpha  occ. eigenvalues --   -0.75482  -0.75247  -0.74969  -0.74634  -0.73863
 Alpha  occ. eigenvalues --   -0.73631  -0.73014  -0.71907  -0.71019  -0.69465
 Alpha  occ. eigenvalues --   -0.68934  -0.67943  -0.66943  -0.66514  -0.66196
 Alpha  occ. eigenvalues --   -0.65438  -0.64909  -0.64863  -0.64556  -0.63488
 Alpha  occ. eigenvalues --   -0.63352  -0.63078  -0.62183  -0.62114  -0.60212
 Alpha  occ. eigenvalues --   -0.59698  -0.59546  -0.59195  -0.59051  -0.58098
 Alpha  occ. eigenvalues --   -0.57869  -0.57103  -0.56574  -0.56382  -0.55681
 Alpha  occ. eigenvalues --   -0.55103  -0.54770  -0.54316  -0.54295  -0.53934
 Alpha  occ. eigenvalues --   -0.53743  -0.53580  -0.53312  -0.53153  -0.52821
 Alpha  occ. eigenvalues --   -0.52473  -0.52353  -0.52055  -0.51947  -0.51839
 Alpha  occ. eigenvalues --   -0.51634  -0.51419  -0.51260  -0.50875  -0.50708
 Alpha  occ. eigenvalues --   -0.50600  -0.50243  -0.50126  -0.49811  -0.49672
 Alpha  occ. eigenvalues --   -0.49614  -0.49443  -0.49298  -0.49066  -0.48797
 Alpha  occ. eigenvalues --   -0.48760  -0.48433  -0.48049  -0.47908  -0.47820
 Alpha  occ. eigenvalues --   -0.47633  -0.47397  -0.47253  -0.47077  -0.46636
 Alpha  occ. eigenvalues --   -0.46501  -0.46380  -0.46098  -0.45995  -0.45794
 Alpha  occ. eigenvalues --   -0.45456  -0.45399  -0.45275  -0.45111  -0.44903
 Alpha  occ. eigenvalues --   -0.44851  -0.44647  -0.44386  -0.44240  -0.44008
 Alpha  occ. eigenvalues --   -0.43772  -0.43609  -0.43390  -0.43250  -0.43022
 Alpha  occ. eigenvalues --   -0.42852  -0.42609  -0.42517  -0.42305  -0.42287
 Alpha  occ. eigenvalues --   -0.42235  -0.41866  -0.41786  -0.41121  -0.40961
 Alpha  occ. eigenvalues --   -0.40741  -0.40621  -0.40363  -0.40232  -0.40017
 Alpha  occ. eigenvalues --   -0.39643  -0.39456  -0.38807  -0.38716  -0.38579
 Alpha  occ. eigenvalues --   -0.38305  -0.37772  -0.37499  -0.37390  -0.37232
 Alpha  occ. eigenvalues --   -0.37130  -0.36946  -0.36939  -0.36540  -0.36436
 Alpha  occ. eigenvalues --   -0.36264  -0.35413  -0.35033  -0.34456  -0.34401
 Alpha  occ. eigenvalues --   -0.33971  -0.33309  -0.33263  -0.31580  -0.30960
 Alpha  occ. eigenvalues --   -0.30380  -0.30291  -0.29898  -0.29409  -0.24497
 Alpha  occ. eigenvalues --   -0.21482
 Alpha virt. eigenvalues --   -0.09052  -0.01861   0.00539   0.01323   0.02528
 Alpha virt. eigenvalues --    0.04614   0.04661   0.04957   0.06050   0.07058
 Alpha virt. eigenvalues --    0.07305   0.07978   0.08686   0.09002   0.09281

 Mulliken charges:
               1
     1  Mg   0.829262
     2  C    0.000289
     3  C   -0.048520
     4  C   -0.093783
     5  C   -0.104283
     6  N   -0.268391
     7  C   -0.094288
     8  C    0.021471
     9  C   -0.120248
    10  C    0.078663
    11  C    0.089223
    12  C    0.062311
    13  C    0.017140
    14  C    0.178376
    15  O   -0.246903
    16  O   -0.344518
    17  N   -0.413063
    18  C    0.109978
    19  C   -0.146893
    20  C   -0.054268
    21  C    0.178442
    22  C    0.118596
    23  C    0.003880
    24  O   -0.193226
    25  C    0.039461
    26  N   -0.261987
    27  C    0.046699
    28  C   -0.057366
    29  C    0.024818
    30  C    0.001667
    31  C    0.080928
    32  C    0.029149
    33  C    0.019534
    34  N   -0.320487
    35  C    0.113781
    36  C   -0.210982
    37  C    0.065977
    38  C    0.076590
    39  C    0.138089
    40  C   -0.042513
    41  O   -0.139492
    42  C    0.024955
    43  C    0.198047
    44  O   -0.202608
    45  O   -0.352582
    46  C    0.177050
    47  C    0.311040
    48  C   -0.141944
    49  C   -0.149552
    50  C    0.092960
    51  C    0.048404
    52  C    0.054523
    53  C    0.054120
    54  C   -0.134713
    55  C    0.030815
    56  C    0.070908
    57  C    0.029618
    58  C    0.060111
    59  C   -0.158720
    60  C    0.027673
    61  C    0.090791
    62  C   -0.059140
    63  C    0.062721
    64  C   -0.157485
    65  C    0.046655
    66  C    0.060903
    67  H   -0.020120
    68  H   -0.060952
    69  H   -0.027922
    70  H   -0.004208
    71  H    0.030836
    72  H    0.020070
    73  H    0.010560
    74  H    0.036375
    75  H    0.022999
    76  H    0.030533
    77  H    0.058276
    78  H    0.038399
    79  H    0.010518
    80  H    0.039020
    81  H    0.032926
    82  H    0.058259
    83  H    0.027572
    84  H    0.022158
    85  H    0.010639
    86  H    0.010483
    87  H    0.006532
    88  H    0.007788
    89  H    0.016230
    90  H    0.010446
    91  H    0.011001
    92  H    0.025127
    93  H    0.018879
    94  H    0.011572
    95  H    0.034083
    96  H    0.036180
    97  H    0.030255
    98  H    0.035332
    99  H    0.035875
   100  H    0.025713
   101  H    0.055190
   102  H    0.021269
   103  H    0.009004
   104  H   -0.007027
   105  H    0.021113
   106  H    0.009795
   107  H    0.022745
   108  H   -0.022601
   109  H    0.010724
   110  H   -0.010829
   111  H   -0.007033
   112  H   -0.002259
   113  H    0.004736
   114  H   -0.006295
   115  H    0.017199
   116  H   -0.008263
   117  H    0.007601
   118  H   -0.002419
   119  H   -0.006864
   120  H   -0.017020
   121  H   -0.000405
   122  H   -0.013741
   123  H   -0.008183
   124  H   -0.005970
   125  H    0.009414
   126  H    0.010061
   127  H   -0.003370
   128  H   -0.003397
   129  H    0.000673
   130  H    0.007929
   131  H    0.001698
   132  H    0.000847
   133  H   -0.011804
   134  H    0.003368
   135  H    0.004186
   136  H    0.000354
   137  H    0.004925
   138  H    0.000541
   139  H    0.010345
   140  H    0.004665
 Sum of Mulliken charges =  -0.00000

 Dipole moment (field-independent basis, Debye):
    X=              2.0066    Y=              4.1059    Z=              0.1340  Tot=              4.5719
 Quadrupole moment (field-independent basis, Debye-Ang):
   XX=           -367.8569   YY=           -415.9717   ZZ=           -415.2784
   XY=             25.5763   XZ=             -7.4355   YZ=             47.9383

 Normal termination of Gaussian 16 at Tue May  3 23:48:01 2022.
