 Gaussian 16, Revision A.03,
 Gaussian 16:  ES64L-G16RevA.03 25-Dec-2016

 ---------------------------------
 #p PBE1PBE/Def2SVP td=(nstates=5)
 ---------------------------------

 ------------------------------------------------------
 step_1151_chromophore_14 TDDFT with PBE1PBE functional
 ------------------------------------------------------
 Symbolic Z-matrix:
 Charge =  0 Multiplicity = 1

                         Standard orientation:
 ---------------------------------------------------------------------
 Center     Atomic      Atomic             Coordinates (Angstroms)
 Number     Number       Type             X           Y           Z
 ---------------------------------------------------------------------
      1         12           0        5.326812    0.882953   -0.301903
      2          6           0        4.831357   -2.360803    0.501887
      3          6           0        3.933906    0.223090   -3.410714
      4          6           0        5.092847    4.211104   -0.664800
      5          6           0        6.244018    1.476716    3.111342
      6          7           0        4.305130   -0.785341   -1.234466
      7          6           0        4.310005   -2.061479   -0.755333
      8          6           0        3.773608   -3.152111   -1.754644
      9          6           0        3.625703   -2.235449   -2.999258
     10          6           0        4.154225   -0.894357   -2.552811
     11          6           0        4.351571   -2.768168   -4.251941
     12          6           0        2.523279   -3.927077   -1.375448
     13          6           0        1.494273   -3.272602   -0.383348
     14          6           0        0.016034   -3.395404   -0.796745
     15          8           0       -0.473093   -3.403376   -1.939776
     16          8           0       -0.798316   -3.397857    0.332299
     17          7           0        4.676186    2.128715   -1.839683
     18          6           0        4.123248    1.669731   -3.074836
     19          6           0        3.774288    2.849460   -3.787805
     20          6           0        3.941253    3.985146   -2.949044
     21          6           0        4.609394    3.476382   -1.723967
     22          6           0        3.244255    2.749641   -5.270730
     23          6           0        3.432276    5.396969   -3.293947
     24          8           0        3.027460    5.568751   -4.421853
     25          6           0        3.569921    6.593733   -2.368793
     26          7           0        5.594793    2.564605    1.036480
     27          6           0        5.477846    3.833867    0.599852
     28          6           0        5.949918    4.822353    1.737703
     29          6           0        6.229934    4.007526    2.924609
     30          6           0        6.001545    2.610277    2.331597
     31          6           0        7.062093    5.761422    1.463066
     32          6           0        5.378149    4.471521    4.087294
     33          6           0        6.033950    5.085261    5.355060
     34          7           0        5.558980   -0.183773    1.434882
     35          6           0        6.078673    0.139580    2.658547
     36          6           0        6.330648   -1.027826    3.421287
     37          6           0        5.752623   -2.066618    2.656893
     38          6           0        5.305804   -1.463668    1.413600
     39          6           0        6.936742   -1.076814    4.793613
     40          6           0        5.436694   -3.424066    2.571425
     41          8           0        5.624100   -4.309460    3.349547
     42          6           0        4.794796   -3.703194    1.245853
     43          6           0        5.501144   -4.873916    0.619910
     44          8           0        4.977928   -5.977932    0.634870
     45          8           0        6.755574   -4.538740    0.113632
     46          6           0        7.273006   -5.483789   -0.873551
     47          6           0       -2.220061   -3.690368    0.067131
     48          6           0       -3.067405   -2.563027   -0.471339
     49          6           0       -3.825828   -2.507809   -1.569833
     50          6           0       -4.016781   -3.627258   -2.602498
     51          6           0       -4.546260   -1.175890   -1.804175
     52          6           0       -5.959871   -0.993734   -1.243912
     53          6           0       -5.991050    0.019902   -0.069787
     54          6           0       -7.287717    0.888364    0.102240
     55          6           0       -6.878102    2.417416    0.168428
     56          6           0       -8.166852    0.409824    1.267319
     57          6           0       -9.719123    0.537958    1.026131
     58          6           0      -10.623692   -0.593510    1.510082
     59          6           0      -12.060712   -0.200290    1.984727
     60          6           0      -12.478372   -1.011549    3.269240
     61          6           0      -13.131972   -0.408001    0.856326
     62          6           0      -13.936616    0.915556    0.705945
     63          6           0      -15.168920    0.732769   -0.265674
     64          6           0      -16.331975    1.736137    0.132372
     65          6           0      -17.368371    1.157425    1.088761
     66          6           0      -17.064056    2.245664   -1.074674
     67          1           0        3.559552    0.044787   -4.421111
     68          1           0        5.055359    5.290378   -0.830030
     69          1           0        6.669094    1.621606    4.106912
     70          1           0        4.573601   -3.855367   -1.987588
     71          1           0        2.550965   -2.164362   -3.163803
     72          1           0        4.540925   -3.835641   -4.136774
     73          1           0        5.330947   -2.288949   -4.245080
     74          1           0        3.731044   -2.372685   -5.056184
     75          1           0        2.857705   -4.833285   -0.871563
     76          1           0        1.990459   -4.237563   -2.275114
     77          1           0        1.706405   -2.221691   -0.186232
     78          1           0        1.626070   -3.737394    0.594186
     79          1           0        3.368513    1.807685   -5.805454
     80          1           0        3.682935    3.546065   -5.870948
     81          1           0        2.177841    2.925978   -5.128799
     82          1           0        4.593435    6.930231   -2.203756
     83          1           0        3.091142    6.401513   -1.407848
     84          1           0        3.016081    7.444437   -2.766025
     85          1           0        5.040051    5.421821    1.732708
     86          1           0        7.299312    3.958355    3.128398
     87          1           0        6.754689    6.806985    1.442271
     88          1           0        7.403222    5.547199    0.449689
     89          1           0        7.932476    5.701517    2.116558
     90          1           0        4.845789    3.549405    4.324629
     91          1           0        4.724383    5.284563    3.773280
     92          1           0        5.509258    4.654100    6.207560
     93          1           0        5.864001    6.161798    5.330901
     94          1           0        7.088466    4.816290    5.299700
     95          1           0        6.995355   -2.094450    5.181391
     96          1           0        6.242337   -0.528060    5.430981
     97          1           0        7.931992   -0.658962    4.646279
     98          1           0        3.744101   -3.961643    1.377783
     99          1           0        8.311135   -5.207609   -1.059553
    100          1           0        6.748288   -5.361950   -1.821454
    101          1           0        7.212759   -6.497090   -0.474079
    102          1           0       -2.651254   -3.975600    1.027501
    103          1           0       -2.241115   -4.539293   -0.616628
    104          1           0       -2.981896   -1.677999    0.158939
    105          1           0       -5.018316   -4.057546   -2.584466
    106          1           0       -3.318213   -4.448026   -2.447126
    107          1           0       -3.808377   -3.238176   -3.599434
    108          1           0       -4.669487   -1.099986   -2.884112
    109          1           0       -3.828350   -0.380266   -1.602283
    110          1           0       -6.245708   -2.003642   -0.953134
    111          1           0       -6.653924   -0.790937   -2.060040
    112          1           0       -5.190841    0.748709   -0.202875
    113          1           0       -5.887137   -0.608542    0.815066
    114          1           0       -7.781690    0.831341   -0.867665
    115          1           0       -5.925534    2.580026    0.673131
    116          1           0       -7.601123    3.032687    0.704171
    117          1           0       -6.959898    2.880942   -0.813927
    118          1           0       -7.887053    0.977595    2.155097
    119          1           0       -7.954701   -0.636611    1.486840
    120          1           0       -9.770671    0.481702   -0.061796
    121          1           0      -10.091140    1.533104    1.270392
    122          1           0      -10.191947   -1.141831    2.346321
    123          1           0      -10.764977   -1.348504    0.735966
    124          1           0      -12.042595    0.818858    2.372454
    125          1           0      -12.162802   -0.484299    4.169447
    126          1           0      -12.112252   -2.037639    3.229106
    127          1           0      -13.559054   -1.096994    3.379686
    128          1           0      -13.777154   -1.173037    1.289566
    129          1           0      -12.605515   -0.601909   -0.078054
    130          1           0      -13.277226    1.692422    0.317372
    131          1           0      -14.331221    1.196767    1.682255
    132          1           0      -15.441458   -0.318602   -0.358023
    133          1           0      -14.729387    1.034351   -1.215407
    134          1           0      -15.850379    2.541383    0.688202
    135          1           0      -17.524527    1.791457    1.961537
    136          1           0      -17.055964    0.188027    1.477359
    137          1           0      -18.349786    1.039981    0.629763
    138          1           0      -18.135789    2.047890   -1.061731
    139          1           0      -16.683370    1.866786   -2.023443
    140          1           0      -16.956197    3.325303   -0.975066
 ---------------------------------------------------------------------

 SCF Done:  E(RPBE1PBE) =  -3005.35245412     A.U. after   15 cycles

 Excitation energies and oscillator strengths:

 Excited State   1:      Singlet-A      1.8473 eV  671.16 nm  f=0.3470  <S**2>=0.000
     245 -> 248       -0.17276
     246 -> 247        0.69434
     246 <- 247       -0.10997
 This state for optimization and/or second-order correction.
 Total Energy, E(TD-HF/TD-DFT) =  -3005.28456618
 Copying the excited state density for this state as the 1-particle RhoCI density.

 Excited State   2:      Singlet-A      2.2686 eV  546.52 nm  f=0.1152  <S**2>=0.000
     245 -> 247        0.64674
     246 -> 248        0.27132

 Excited State   3:      Singlet-A      2.8238 eV  439.06 nm  f=0.0008  <S**2>=0.000
     242 -> 247        0.51296
     242 -> 249       -0.11188
     243 -> 247        0.43894
     244 -> 247       -0.10387

 Excited State   4:      Singlet-A      2.8390 eV  436.72 nm  f=0.0076  <S**2>=0.000
     244 -> 247        0.68947

 Excited State   5:      Singlet-A      3.0239 eV  410.02 nm  f=0.0006  <S**2>=0.000
     241 -> 247        0.68148
     241 -> 249        0.12627

 The electronic state is 1-A.
 Alpha  occ. eigenvalues --  -46.92324 -19.25982 -19.25125 -19.20534 -19.20340
 Alpha  occ. eigenvalues --  -19.18885 -19.17963 -14.42451 -14.41717 -14.39220
 Alpha  occ. eigenvalues --  -14.38894 -10.36843 -10.36718 -10.32363 -10.30347
 Alpha  occ. eigenvalues --  -10.29419 -10.29075 -10.28788 -10.28757 -10.28715
 Alpha  occ. eigenvalues --  -10.28547 -10.28339 -10.28013 -10.27307 -10.26053
 Alpha  occ. eigenvalues --  -10.26039 -10.26028 -10.25985 -10.25669 -10.25615
 Alpha  occ. eigenvalues --  -10.25210 -10.25150 -10.25065 -10.25031 -10.24909
 Alpha  occ. eigenvalues --  -10.24730 -10.24692 -10.24569 -10.24321 -10.24158
 Alpha  occ. eigenvalues --  -10.24008 -10.23916 -10.23832 -10.23787 -10.23567
 Alpha  occ. eigenvalues --  -10.23411 -10.23319 -10.23096 -10.22932 -10.22842
 Alpha  occ. eigenvalues --  -10.22771 -10.22527 -10.22405 -10.22381 -10.22350
 Alpha  occ. eigenvalues --  -10.22317 -10.22285 -10.22220 -10.22169 -10.22109
 Alpha  occ. eigenvalues --  -10.22049 -10.21954 -10.21878 -10.21694 -10.21232
 Alpha  occ. eigenvalues --  -10.20947  -3.14531  -1.87349  -1.86936  -1.86732
 Alpha  occ. eigenvalues --   -1.10624  -1.09813  -1.05654  -1.05413  -1.03060
 Alpha  occ. eigenvalues --   -1.01290  -1.00521  -0.99709  -0.99063  -0.96468
 Alpha  occ. eigenvalues --   -0.87928  -0.85561  -0.84454  -0.83810  -0.83352
 Alpha  occ. eigenvalues --   -0.83108  -0.82221  -0.82068  -0.81574  -0.81195
 Alpha  occ. eigenvalues --   -0.79889  -0.79094  -0.78489  -0.78249  -0.77722
 Alpha  occ. eigenvalues --   -0.76475  -0.76198  -0.75373  -0.74917  -0.74648
 Alpha  occ. eigenvalues --   -0.73771  -0.72920  -0.72383  -0.71456  -0.71017
 Alpha  occ. eigenvalues --   -0.69795  -0.69420  -0.69053  -0.68775  -0.68089
 Alpha  occ. eigenvalues --   -0.67952  -0.67354  -0.66315  -0.65353  -0.63857
 Alpha  occ. eigenvalues --   -0.63422  -0.62203  -0.61389  -0.60932  -0.60513
 Alpha  occ. eigenvalues --   -0.59870  -0.59398  -0.59144  -0.59008  -0.57886
 Alpha  occ. eigenvalues --   -0.57600  -0.57237  -0.56650  -0.56364  -0.54745
 Alpha  occ. eigenvalues --   -0.54312  -0.53948  -0.53724  -0.53582  -0.52511
 Alpha  occ. eigenvalues --   -0.52422  -0.51554  -0.51064  -0.50851  -0.50237
 Alpha  occ. eigenvalues --   -0.49754  -0.49273  -0.48891  -0.48621  -0.48480
 Alpha  occ. eigenvalues --   -0.48260  -0.48149  -0.47851  -0.47737  -0.47383
 Alpha  occ. eigenvalues --   -0.47041  -0.46807  -0.46511  -0.46398  -0.46300
 Alpha  occ. eigenvalues --   -0.46090  -0.45937  -0.45893  -0.45468  -0.45268
 Alpha  occ. eigenvalues --   -0.45185  -0.44846  -0.44663  -0.44319  -0.44255
 Alpha  occ. eigenvalues --   -0.44174  -0.44004  -0.43887  -0.43592  -0.43464
 Alpha  occ. eigenvalues --   -0.43382  -0.43021  -0.42700  -0.42498  -0.42420
 Alpha  occ. eigenvalues --   -0.42353  -0.42000  -0.41928  -0.41843  -0.41314
 Alpha  occ. eigenvalues --   -0.41169  -0.41073  -0.40815  -0.40660  -0.40403
 Alpha  occ. eigenvalues --   -0.40194  -0.40100  -0.39998  -0.39754  -0.39601
 Alpha  occ. eigenvalues --   -0.39453  -0.39386  -0.39128  -0.38996  -0.38741
 Alpha  occ. eigenvalues --   -0.38582  -0.38386  -0.38207  -0.38121  -0.37781
 Alpha  occ. eigenvalues --   -0.37599  -0.37406  -0.37242  -0.37155  -0.37061
 Alpha  occ. eigenvalues --   -0.37056  -0.36748  -0.36652  -0.35893  -0.35717
 Alpha  occ. eigenvalues --   -0.35581  -0.35412  -0.35171  -0.34992  -0.34870
 Alpha  occ. eigenvalues --   -0.34520  -0.34272  -0.33594  -0.33518  -0.33443
 Alpha  occ. eigenvalues --   -0.33281  -0.32577  -0.32518  -0.32162  -0.32118
 Alpha  occ. eigenvalues --   -0.32076  -0.31844  -0.31723  -0.31337  -0.31323
 Alpha  occ. eigenvalues --   -0.31240  -0.30319  -0.30007  -0.29409  -0.29209
 Alpha  occ. eigenvalues --   -0.29063  -0.28781  -0.28327  -0.27189  -0.25982
 Alpha  occ. eigenvalues --   -0.25745  -0.25210  -0.25182  -0.24885  -0.21425
 Alpha  occ. eigenvalues --   -0.19116
 Alpha virt. eigenvalues --   -0.11518  -0.05338  -0.03696  -0.01966  -0.01318
 Alpha virt. eigenvalues --   -0.00016   0.00158   0.00521   0.01550   0.03251
 Alpha virt. eigenvalues --    0.03768   0.04334   0.04843   0.05623   0.06072

 Mulliken charges:
               1
     1  Mg   0.973180
     2  C    0.007998
     3  C   -0.041557
     4  C   -0.090685
     5  C   -0.085049
     6  N   -0.370110
     7  C   -0.020999
     8  C   -0.042033
     9  C   -0.199425
    10  C    0.111717
    11  C    0.029077
    12  C    0.006100
    13  C   -0.059742
    14  C    0.246689
    15  O   -0.277454
    16  O   -0.375397
    17  N   -0.526286
    18  C    0.137967
    19  C   -0.177439
    20  C   -0.103752
    21  C    0.209845
    22  C    0.060616
    23  C    0.053691
    24  O   -0.227003
    25  C   -0.035717
    26  N   -0.367939
    27  C    0.085226
    28  C   -0.129849
    29  C   -0.056616
    30  C    0.040566
    31  C    0.024968
    32  C   -0.027670
    33  C   -0.053539
    34  N   -0.456222
    35  C    0.129835
    36  C   -0.212800
    37  C    0.008012
    38  C    0.120096
    39  C    0.080021
    40  C    0.059833
    41  O   -0.188547
    42  C   -0.101356
    43  C    0.288191
    44  O   -0.238416
    45  O   -0.382811
    46  C    0.121053
    47  C    0.263252
    48  C   -0.150987
    49  C   -0.192206
    50  C    0.031116
    51  C   -0.015144
    52  C   -0.005361
    53  C   -0.002957
    54  C   -0.217777
    55  C   -0.029171
    56  C    0.014770
    57  C   -0.034213
    58  C    0.005359
    59  C   -0.237122
    60  C   -0.034179
    61  C    0.031291
    62  C   -0.123853
    63  C    0.009252
    64  C   -0.251842
    65  C   -0.010520
    66  C    0.000484
    67  H    0.011745
    68  H   -0.023695
    69  H    0.003387
    70  H    0.040180
    71  H    0.068414
    72  H    0.047297
    73  H    0.039974
    74  H    0.063005
    75  H    0.057249
    76  H    0.061723
    77  H    0.091345
    78  H    0.070539
    79  H    0.036361
    80  H    0.066056
    81  H    0.061518
    82  H    0.082377
    83  H    0.054748
    84  H    0.050290
    85  H    0.048048
    86  H    0.047672
    87  H    0.033865
    88  H    0.035976
    89  H    0.042546
    90  H    0.043305
    91  H    0.043295
    92  H    0.052662
    93  H    0.046475
    94  H    0.039064
    95  H    0.062309
    96  H    0.063526
    97  H    0.058128
    98  H    0.077689
    99  H    0.057891
   100  H    0.047609
   101  H    0.076037
   102  H    0.049025
   103  H    0.036835
   104  H    0.023143
   105  H    0.048319
   106  H    0.036999
   107  H    0.049615
   108  H    0.011952
   109  H    0.041926
   110  H    0.023493
   111  H    0.023751
   112  H    0.030227
   113  H    0.037342
   114  H    0.031415
   115  H    0.043627
   116  H    0.020415
   117  H    0.035350
   118  H    0.030816
   119  H    0.026144
   120  H    0.017718
   121  H    0.030146
   122  H    0.019432
   123  H    0.024315
   124  H    0.030989
   125  H    0.037717
   126  H    0.037555
   127  H    0.024476
   128  H    0.029829
   129  H    0.033572
   130  H    0.041012
   131  H    0.035534
   132  H    0.031641
   133  H    0.022482
   134  H    0.040489
   135  H    0.031707
   136  H    0.027770
   137  H    0.031398
   138  H    0.027361
   139  H    0.036904
   140  H    0.032494
 Sum of Mulliken charges =  -0.00000

 Dipole moment (field-independent basis, Debye):
    X=              2.0537    Y=              4.0931    Z=              0.2817  Tot=              4.5881
 Quadrupole moment (field-independent basis, Debye-Ang):
   XX=           -364.4425   YY=           -412.6524   ZZ=           -411.2122
   XY=             25.9047   XZ=             -6.0655   YZ=             49.1040

 Normal termination of Gaussian 16 at Wed May  4 00:03:52 2022.
