 Gaussian 16, Revision A.03,
 Gaussian 16:  ES64L-G16RevA.03 25-Dec-2016

 --------------------------------
 #p wB97XD/Def2SVP td=(nstates=5)
 --------------------------------

 -----------------------------------------------------
 step_1151_chromophore_14 TDDFT with wB97XD functional
 -----------------------------------------------------
 Symbolic Z-matrix:
 Charge =  0 Multiplicity = 1

                         Standard orientation:
 ---------------------------------------------------------------------
 Center     Atomic      Atomic             Coordinates (Angstroms)
 Number     Number       Type             X           Y           Z
 ---------------------------------------------------------------------
      1         12           0        5.326812    0.882953   -0.301903
      2          6           0        4.831357   -2.360803    0.501887
      3          6           0        3.933906    0.223090   -3.410714
      4          6           0        5.092847    4.211104   -0.664800
      5          6           0        6.244018    1.476716    3.111342
      6          7           0        4.305130   -0.785341   -1.234466
      7          6           0        4.310005   -2.061479   -0.755333
      8          6           0        3.773608   -3.152111   -1.754644
      9          6           0        3.625703   -2.235449   -2.999258
     10          6           0        4.154225   -0.894357   -2.552811
     11          6           0        4.351571   -2.768168   -4.251941
     12          6           0        2.523279   -3.927077   -1.375448
     13          6           0        1.494273   -3.272602   -0.383348
     14          6           0        0.016034   -3.395404   -0.796745
     15          8           0       -0.473093   -3.403376   -1.939776
     16          8           0       -0.798316   -3.397857    0.332299
     17          7           0        4.676186    2.128715   -1.839683
     18          6           0        4.123248    1.669731   -3.074836
     19          6           0        3.774288    2.849460   -3.787805
     20          6           0        3.941253    3.985146   -2.949044
     21          6           0        4.609394    3.476382   -1.723967
     22          6           0        3.244255    2.749641   -5.270730
     23          6           0        3.432276    5.396969   -3.293947
     24          8           0        3.027460    5.568751   -4.421853
     25          6           0        3.569921    6.593733   -2.368793
     26          7           0        5.594793    2.564605    1.036480
     27          6           0        5.477846    3.833867    0.599852
     28          6           0        5.949918    4.822353    1.737703
     29          6           0        6.229934    4.007526    2.924609
     30          6           0        6.001545    2.610277    2.331597
     31          6           0        7.062093    5.761422    1.463066
     32          6           0        5.378149    4.471521    4.087294
     33          6           0        6.033950    5.085261    5.355060
     34          7           0        5.558980   -0.183773    1.434882
     35          6           0        6.078673    0.139580    2.658547
     36          6           0        6.330648   -1.027826    3.421287
     37          6           0        5.752623   -2.066618    2.656893
     38          6           0        5.305804   -1.463668    1.413600
     39          6           0        6.936742   -1.076814    4.793613
     40          6           0        5.436694   -3.424066    2.571425
     41          8           0        5.624100   -4.309460    3.349547
     42          6           0        4.794796   -3.703194    1.245853
     43          6           0        5.501144   -4.873916    0.619910
     44          8           0        4.977928   -5.977932    0.634870
     45          8           0        6.755574   -4.538740    0.113632
     46          6           0        7.273006   -5.483789   -0.873551
     47          6           0       -2.220061   -3.690368    0.067131
     48          6           0       -3.067405   -2.563027   -0.471339
     49          6           0       -3.825828   -2.507809   -1.569833
     50          6           0       -4.016781   -3.627258   -2.602498
     51          6           0       -4.546260   -1.175890   -1.804175
     52          6           0       -5.959871   -0.993734   -1.243912
     53          6           0       -5.991050    0.019902   -0.069787
     54          6           0       -7.287717    0.888364    0.102240
     55          6           0       -6.878102    2.417416    0.168428
     56          6           0       -8.166852    0.409824    1.267319
     57          6           0       -9.719123    0.537958    1.026131
     58          6           0      -10.623692   -0.593510    1.510082
     59          6           0      -12.060712   -0.200290    1.984727
     60          6           0      -12.478372   -1.011549    3.269240
     61          6           0      -13.131972   -0.408001    0.856326
     62          6           0      -13.936616    0.915556    0.705945
     63          6           0      -15.168920    0.732769   -0.265674
     64          6           0      -16.331975    1.736137    0.132372
     65          6           0      -17.368371    1.157425    1.088761
     66          6           0      -17.064056    2.245664   -1.074674
     67          1           0        3.559552    0.044787   -4.421111
     68          1           0        5.055359    5.290378   -0.830030
     69          1           0        6.669094    1.621606    4.106912
     70          1           0        4.573601   -3.855367   -1.987588
     71          1           0        2.550965   -2.164362   -3.163803
     72          1           0        4.540925   -3.835641   -4.136774
     73          1           0        5.330947   -2.288949   -4.245080
     74          1           0        3.731044   -2.372685   -5.056184
     75          1           0        2.857705   -4.833285   -0.871563
     76          1           0        1.990459   -4.237563   -2.275114
     77          1           0        1.706405   -2.221691   -0.186232
     78          1           0        1.626070   -3.737394    0.594186
     79          1           0        3.368513    1.807685   -5.805454
     80          1           0        3.682935    3.546065   -5.870948
     81          1           0        2.177841    2.925978   -5.128799
     82          1           0        4.593435    6.930231   -2.203756
     83          1           0        3.091142    6.401513   -1.407848
     84          1           0        3.016081    7.444437   -2.766025
     85          1           0        5.040051    5.421821    1.732708
     86          1           0        7.299312    3.958355    3.128398
     87          1           0        6.754689    6.806985    1.442271
     88          1           0        7.403222    5.547199    0.449689
     89          1           0        7.932476    5.701517    2.116558
     90          1           0        4.845789    3.549405    4.324629
     91          1           0        4.724383    5.284563    3.773280
     92          1           0        5.509258    4.654100    6.207560
     93          1           0        5.864001    6.161798    5.330901
     94          1           0        7.088466    4.816290    5.299700
     95          1           0        6.995355   -2.094450    5.181391
     96          1           0        6.242337   -0.528060    5.430981
     97          1           0        7.931992   -0.658962    4.646279
     98          1           0        3.744101   -3.961643    1.377783
     99          1           0        8.311135   -5.207609   -1.059553
    100          1           0        6.748288   -5.361950   -1.821454
    101          1           0        7.212759   -6.497090   -0.474079
    102          1           0       -2.651254   -3.975600    1.027501
    103          1           0       -2.241115   -4.539293   -0.616628
    104          1           0       -2.981896   -1.677999    0.158939
    105          1           0       -5.018316   -4.057546   -2.584466
    106          1           0       -3.318213   -4.448026   -2.447126
    107          1           0       -3.808377   -3.238176   -3.599434
    108          1           0       -4.669487   -1.099986   -2.884112
    109          1           0       -3.828350   -0.380266   -1.602283
    110          1           0       -6.245708   -2.003642   -0.953134
    111          1           0       -6.653924   -0.790937   -2.060040
    112          1           0       -5.190841    0.748709   -0.202875
    113          1           0       -5.887137   -0.608542    0.815066
    114          1           0       -7.781690    0.831341   -0.867665
    115          1           0       -5.925534    2.580026    0.673131
    116          1           0       -7.601123    3.032687    0.704171
    117          1           0       -6.959898    2.880942   -0.813927
    118          1           0       -7.887053    0.977595    2.155097
    119          1           0       -7.954701   -0.636611    1.486840
    120          1           0       -9.770671    0.481702   -0.061796
    121          1           0      -10.091140    1.533104    1.270392
    122          1           0      -10.191947   -1.141831    2.346321
    123          1           0      -10.764977   -1.348504    0.735966
    124          1           0      -12.042595    0.818858    2.372454
    125          1           0      -12.162802   -0.484299    4.169447
    126          1           0      -12.112252   -2.037639    3.229106
    127          1           0      -13.559054   -1.096994    3.379686
    128          1           0      -13.777154   -1.173037    1.289566
    129          1           0      -12.605515   -0.601909   -0.078054
    130          1           0      -13.277226    1.692422    0.317372
    131          1           0      -14.331221    1.196767    1.682255
    132          1           0      -15.441458   -0.318602   -0.358023
    133          1           0      -14.729387    1.034351   -1.215407
    134          1           0      -15.850379    2.541383    0.688202
    135          1           0      -17.524527    1.791457    1.961537
    136          1           0      -17.055964    0.188027    1.477359
    137          1           0      -18.349786    1.039981    0.629763
    138          1           0      -18.135789    2.047890   -1.061731
    139          1           0      -16.683370    1.866786   -2.023443
    140          1           0      -16.956197    3.325303   -0.975066
 ---------------------------------------------------------------------

 SCF Done:  E(RwB97XD) =  -3007.86008472     A.U. after   18 cycles

 Excitation energies and oscillator strengths:

 Excited State   1:      Singlet-A      1.6281 eV  761.52 nm  f=0.3585  <S**2>=0.000
     245 -> 248       -0.18327
     246 -> 247        0.68526
     245 <- 248       -0.11959
 This state for optimization and/or second-order correction.
 Total Energy, E(TD-HF/TD-DFT) =  -3007.80025273
 Copying the excited state density for this state as the 1-particle RhoCI density.

 Excited State   2:      Singlet-A      2.1963 eV  564.52 nm  f=0.1148  <S**2>=0.000
     245 -> 247        0.63538
     246 -> 248        0.29502

 Excited State   3:      Singlet-A      3.2066 eV  386.65 nm  f=0.0051  <S**2>=0.000
     244 -> 247        0.67963

 Excited State   4:      Singlet-A      3.4311 eV  361.35 nm  f=0.0093  <S**2>=0.000
     242 -> 247        0.58051
     242 -> 249       -0.29376
     242 -> 250        0.10201
     242 -> 251       -0.13973
     246 -> 248       -0.11323

 Excited State   5:      Singlet-A      3.5549 eV  348.77 nm  f=0.1303  <S**2>=0.000
     241 -> 247        0.55645
     242 -> 247       -0.10136
     245 -> 247        0.11876
     246 -> 248       -0.36265

 The electronic state is 1-A.
 Alpha  occ. eigenvalues --  -46.95300 -19.30572 -19.29679 -19.25241 -19.24990
 Alpha  occ. eigenvalues --  -19.23752 -19.22732 -14.47636 -14.46752 -14.44190
 Alpha  occ. eigenvalues --  -14.43814 -10.43614 -10.43553 -10.39231 -10.37176
 Alpha  occ. eigenvalues --  -10.35947 -10.35295 -10.35246 -10.35164 -10.35100
 Alpha  occ. eigenvalues --  -10.34775 -10.34731 -10.34511 -10.33506 -10.32550
 Alpha  occ. eigenvalues --  -10.32540 -10.32329 -10.32282 -10.32097 -10.31959
 Alpha  occ. eigenvalues --  -10.31642 -10.31519 -10.31350 -10.31216 -10.31148
 Alpha  occ. eigenvalues --  -10.31115 -10.31107 -10.30862 -10.30643 -10.30553
 Alpha  occ. eigenvalues --  -10.30388 -10.30345 -10.30278 -10.30223 -10.29929
 Alpha  occ. eigenvalues --  -10.29811 -10.29646 -10.29592 -10.29211 -10.29194
 Alpha  occ. eigenvalues --  -10.29119 -10.28891 -10.28769 -10.28758 -10.28676
 Alpha  occ. eigenvalues --  -10.28641 -10.28595 -10.28590 -10.28555 -10.28472
 Alpha  occ. eigenvalues --  -10.28403 -10.28326 -10.28295 -10.28111 -10.27651
 Alpha  occ. eigenvalues --  -10.27365  -3.21357  -1.94926  -1.94512  -1.94307
 Alpha  occ. eigenvalues --   -1.18043  -1.17190  -1.13075  -1.12935  -1.10432
 Alpha  occ. eigenvalues --   -1.08632  -1.07891  -1.07065  -1.06389  -1.03926
 Alpha  occ. eigenvalues --   -0.95528  -0.93077  -0.92086  -0.91472  -0.90950
 Alpha  occ. eigenvalues --   -0.90778  -0.89879  -0.89660  -0.89182  -0.88853
 Alpha  occ. eigenvalues --   -0.87544  -0.86804  -0.86120  -0.85866  -0.85378
 Alpha  occ. eigenvalues --   -0.84148  -0.83906  -0.83066  -0.82565  -0.82293
 Alpha  occ. eigenvalues --   -0.81434  -0.80511  -0.80022  -0.79118  -0.78663
 Alpha  occ. eigenvalues --   -0.77419  -0.77086  -0.76745  -0.76450  -0.75713
 Alpha  occ. eigenvalues --   -0.75562  -0.74950  -0.73870  -0.72951  -0.71380
 Alpha  occ. eigenvalues --   -0.70921  -0.69819  -0.68945  -0.68416  -0.68090
 Alpha  occ. eigenvalues --   -0.67391  -0.66906  -0.66718  -0.66545  -0.65337
 Alpha  occ. eigenvalues --   -0.65282  -0.64890  -0.64102  -0.63999  -0.62171
 Alpha  occ. eigenvalues --   -0.61711  -0.61442  -0.61152  -0.61018  -0.59994
 Alpha  occ. eigenvalues --   -0.59873  -0.59009  -0.58520  -0.58338  -0.57627
 Alpha  occ. eigenvalues --   -0.57092  -0.56673  -0.56242  -0.56121  -0.55825
 Alpha  occ. eigenvalues --   -0.55633  -0.55495  -0.55214  -0.55098  -0.54719
 Alpha  occ. eigenvalues --   -0.54410  -0.54217  -0.53927  -0.53861  -0.53729
 Alpha  occ. eigenvalues --   -0.53540  -0.53289  -0.53175  -0.52773  -0.52605
 Alpha  occ. eigenvalues --   -0.52518  -0.52151  -0.52014  -0.51666  -0.51635
 Alpha  occ. eigenvalues --   -0.51530  -0.51352  -0.51252  -0.51005  -0.50689
 Alpha  occ. eigenvalues --   -0.50667  -0.50318  -0.49946  -0.49784  -0.49719
 Alpha  occ. eigenvalues --   -0.49592  -0.49262  -0.49177  -0.48992  -0.48546
 Alpha  occ. eigenvalues --   -0.48401  -0.48338  -0.47994  -0.47906  -0.47636
 Alpha  occ. eigenvalues --   -0.47425  -0.47312  -0.47187  -0.46962  -0.46784
 Alpha  occ. eigenvalues --   -0.46694  -0.46589  -0.46292  -0.46131  -0.45908
 Alpha  occ. eigenvalues --   -0.45704  -0.45505  -0.45319  -0.45165  -0.44925
 Alpha  occ. eigenvalues --   -0.44783  -0.44617  -0.44379  -0.44271  -0.44204
 Alpha  occ. eigenvalues --   -0.44166  -0.43772  -0.43710  -0.43010  -0.42832
 Alpha  occ. eigenvalues --   -0.42616  -0.42481  -0.42225  -0.42087  -0.41901
 Alpha  occ. eigenvalues --   -0.41531  -0.41313  -0.40648  -0.40544  -0.40486
 Alpha  occ. eigenvalues --   -0.40221  -0.39641  -0.39594  -0.39209  -0.39123
 Alpha  occ. eigenvalues --   -0.39071  -0.38936  -0.38786  -0.38376  -0.38263
 Alpha  occ. eigenvalues --   -0.38201  -0.37298  -0.36885  -0.36403  -0.36334
 Alpha  occ. eigenvalues --   -0.35942  -0.35507  -0.35133  -0.33795  -0.32909
 Alpha  occ. eigenvalues --   -0.32448  -0.32317  -0.31899  -0.31598  -0.26422
 Alpha  occ. eigenvalues --   -0.23296
 Alpha virt. eigenvalues --   -0.07395   0.00058   0.02622   0.04418   0.04753
 Alpha virt. eigenvalues --    0.06832   0.06938   0.07285   0.08264   0.10007
 Alpha virt. eigenvalues --    0.10243   0.10911   0.11608   0.12290   0.12864

 Mulliken charges:
               1
     1  Mg   0.964492
     2  C   -0.000845
     3  C   -0.056701
     4  C   -0.105889
     5  C   -0.108039
     6  N   -0.335470
     7  C   -0.056529
     8  C   -0.014392
     9  C   -0.174792
    10  C    0.100160
    11  C    0.040307
    12  C    0.019110
    13  C   -0.043602
    14  C    0.237213
    15  O   -0.275034
    16  O   -0.376291
    17  N   -0.495402
    18  C    0.127765
    19  C   -0.165214
    20  C   -0.097801
    21  C    0.206664
    22  C    0.071826
    23  C    0.049120
    24  O   -0.222717
    25  C   -0.024289
    26  N   -0.334769
    27  C    0.073327
    28  C   -0.103041
    29  C   -0.028354
    30  C    0.027896
    31  C    0.033519
    32  C   -0.014579
    33  C   -0.036450
    34  N   -0.413610
    35  C    0.122888
    36  C   -0.212227
    37  C    0.012948
    38  C    0.104413
    39  C    0.089703
    40  C    0.040043
    41  O   -0.178834
    42  C   -0.049680
    43  C    0.262292
    44  O   -0.232152
    45  O   -0.382068
    46  C    0.136880
    47  C    0.286395
    48  C   -0.165773
    49  C   -0.179474
    50  C    0.045379
    51  C    0.003217
    52  C    0.008454
    53  C    0.015819
    54  C   -0.189558
    55  C   -0.017178
    56  C    0.028091
    57  C   -0.015233
    58  C    0.020726
    59  C   -0.211810
    60  C   -0.020276
    61  C    0.047129
    62  C   -0.101518
    63  C    0.019935
    64  C   -0.220746
    65  C   -0.000013
    66  C    0.012722
    67  H    0.004864
    68  H   -0.037022
    69  H   -0.001482
    70  H    0.021775
    71  H    0.058115
    72  H    0.042270
    73  H    0.032901
    74  H    0.058185
    75  H    0.048567
    76  H    0.054683
    77  H    0.083238
    78  H    0.064459
    79  H    0.032674
    80  H    0.062454
    81  H    0.056588
    82  H    0.079027
    83  H    0.049473
    84  H    0.049119
    85  H    0.035472
    86  H    0.034632
    87  H    0.029270
    88  H    0.028650
    89  H    0.037510
    90  H    0.034304
    91  H    0.034763
    92  H    0.047378
    93  H    0.040582
    94  H    0.032152
    95  H    0.059647
    96  H    0.058083
    97  H    0.052527
    98  H    0.064606
    99  H    0.054668
   100  H    0.042946
   101  H    0.072439
   102  H    0.045353
   103  H    0.027789
   104  H    0.019900
   105  H    0.042874
   106  H    0.031251
   107  H    0.044204
   108  H    0.003704
   109  H    0.034004
   110  H    0.013777
   111  H    0.017097
   112  H    0.018482
   113  H    0.027926
   114  H    0.016711
   115  H    0.037634
   116  H    0.013760
   117  H    0.030162
   118  H    0.023041
   119  H    0.016067
   120  H    0.006462
   121  H    0.022432
   122  H    0.009718
   123  H    0.015466
   124  H    0.017649
   125  H    0.032448
   126  H    0.030998
   127  H    0.017384
   128  H    0.019114
   129  H    0.024568
   130  H    0.032052
   131  H    0.022454
   132  H    0.024303
   133  H    0.013144
   134  H    0.029194
   135  H    0.026436
   136  H    0.021073
   137  H    0.024706
   138  H    0.020856
   139  H    0.031316
   140  H    0.026890
 Sum of Mulliken charges =  -0.00000

 Dipole moment (field-independent basis, Debye):
    X=              2.0338    Y=              4.1905    Z=              0.0532  Tot=              4.6583
 Quadrupole moment (field-independent basis, Debye-Ang):
   XX=           -363.9414   YY=           -411.7187   ZZ=           -410.8935
   XY=             25.9620   XZ=             -7.3766   YZ=             48.5017

 Normal termination of Gaussian 16 at Wed May  4 00:30:08 2022.
