 Gaussian 16, Revision A.03,
 Gaussian 16:  ES64L-G16RevA.03 25-Dec-2016

 --------------------
 #p ZINDO=(nstates=5)
 --------------------

 ------------------------------
 step_1151_chromophore_14 ZINDO
 ------------------------------
 Symbolic Z-matrix:
 Charge =  0 Multiplicity = 1

                         Standard orientation:
 ---------------------------------------------------------------------
 Center     Atomic      Atomic             Coordinates (Angstroms)
 Number     Number       Type             X           Y           Z
 ---------------------------------------------------------------------
      1         12           0        5.326812    0.882953   -0.301903
      2          6           0        4.831357   -2.360803    0.501887
      3          6           0        3.933906    0.223090   -3.410714
      4          6           0        5.092847    4.211104   -0.664800
      5          6           0        6.244018    1.476716    3.111342
      6          7           0        4.305130   -0.785341   -1.234466
      7          6           0        4.310005   -2.061479   -0.755333
      8          6           0        3.773608   -3.152111   -1.754644
      9          6           0        3.625703   -2.235449   -2.999258
     10          6           0        4.154225   -0.894357   -2.552811
     11          6           0        4.351571   -2.768168   -4.251941
     12          6           0        2.523279   -3.927077   -1.375448
     13          6           0        1.494273   -3.272602   -0.383348
     14          6           0        0.016034   -3.395404   -0.796745
     15          8           0       -0.473093   -3.403376   -1.939776
     16          8           0       -0.798316   -3.397857    0.332299
     17          7           0        4.676186    2.128715   -1.839683
     18          6           0        4.123248    1.669731   -3.074836
     19          6           0        3.774288    2.849460   -3.787805
     20          6           0        3.941253    3.985146   -2.949044
     21          6           0        4.609394    3.476382   -1.723967
     22          6           0        3.244255    2.749641   -5.270730
     23          6           0        3.432276    5.396969   -3.293947
     24          8           0        3.027460    5.568751   -4.421853
     25          6           0        3.569921    6.593733   -2.368793
     26          7           0        5.594793    2.564605    1.036480
     27          6           0        5.477846    3.833867    0.599852
     28          6           0        5.949918    4.822353    1.737703
     29          6           0        6.229934    4.007526    2.924609
     30          6           0        6.001545    2.610277    2.331597
     31          6           0        7.062093    5.761422    1.463066
     32          6           0        5.378149    4.471521    4.087294
     33          6           0        6.033950    5.085261    5.355060
     34          7           0        5.558980   -0.183773    1.434882
     35          6           0        6.078673    0.139580    2.658547
     36          6           0        6.330648   -1.027826    3.421287
     37          6           0        5.752623   -2.066618    2.656893
     38          6           0        5.305804   -1.463668    1.413600
     39          6           0        6.936742   -1.076814    4.793613
     40          6           0        5.436694   -3.424066    2.571425
     41          8           0        5.624100   -4.309460    3.349547
     42          6           0        4.794796   -3.703194    1.245853
     43          6           0        5.501144   -4.873916    0.619910
     44          8           0        4.977928   -5.977932    0.634870
     45          8           0        6.755574   -4.538740    0.113632
     46          6           0        7.273006   -5.483789   -0.873551
     47          6           0       -2.220061   -3.690368    0.067131
     48          6           0       -3.067405   -2.563027   -0.471339
     49          6           0       -3.825828   -2.507809   -1.569833
     50          6           0       -4.016781   -3.627258   -2.602498
     51          6           0       -4.546260   -1.175890   -1.804175
     52          6           0       -5.959871   -0.993734   -1.243912
     53          6           0       -5.991050    0.019902   -0.069787
     54          6           0       -7.287717    0.888364    0.102240
     55          6           0       -6.878102    2.417416    0.168428
     56          6           0       -8.166852    0.409824    1.267319
     57          6           0       -9.719123    0.537958    1.026131
     58          6           0      -10.623692   -0.593510    1.510082
     59          6           0      -12.060712   -0.200290    1.984727
     60          6           0      -12.478372   -1.011549    3.269240
     61          6           0      -13.131972   -0.408001    0.856326
     62          6           0      -13.936616    0.915556    0.705945
     63          6           0      -15.168920    0.732769   -0.265674
     64          6           0      -16.331975    1.736137    0.132372
     65          6           0      -17.368371    1.157425    1.088761
     66          6           0      -17.064056    2.245664   -1.074674
     67          1           0        3.559552    0.044787   -4.421111
     68          1           0        5.055359    5.290378   -0.830030
     69          1           0        6.669094    1.621606    4.106912
     70          1           0        4.573601   -3.855367   -1.987588
     71          1           0        2.550965   -2.164362   -3.163803
     72          1           0        4.540925   -3.835641   -4.136774
     73          1           0        5.330947   -2.288949   -4.245080
     74          1           0        3.731044   -2.372685   -5.056184
     75          1           0        2.857705   -4.833285   -0.871563
     76          1           0        1.990459   -4.237563   -2.275114
     77          1           0        1.706405   -2.221691   -0.186232
     78          1           0        1.626070   -3.737394    0.594186
     79          1           0        3.368513    1.807685   -5.805454
     80          1           0        3.682935    3.546065   -5.870948
     81          1           0        2.177841    2.925978   -5.128799
     82          1           0        4.593435    6.930231   -2.203756
     83          1           0        3.091142    6.401513   -1.407848
     84          1           0        3.016081    7.444437   -2.766025
     85          1           0        5.040051    5.421821    1.732708
     86          1           0        7.299312    3.958355    3.128398
     87          1           0        6.754689    6.806985    1.442271
     88          1           0        7.403222    5.547199    0.449689
     89          1           0        7.932476    5.701517    2.116558
     90          1           0        4.845789    3.549405    4.324629
     91          1           0        4.724383    5.284563    3.773280
     92          1           0        5.509258    4.654100    6.207560
     93          1           0        5.864001    6.161798    5.330901
     94          1           0        7.088466    4.816290    5.299700
     95          1           0        6.995355   -2.094450    5.181391
     96          1           0        6.242337   -0.528060    5.430981
     97          1           0        7.931992   -0.658962    4.646279
     98          1           0        3.744101   -3.961643    1.377783
     99          1           0        8.311135   -5.207609   -1.059553
    100          1           0        6.748288   -5.361950   -1.821454
    101          1           0        7.212759   -6.497090   -0.474079
    102          1           0       -2.651254   -3.975600    1.027501
    103          1           0       -2.241115   -4.539293   -0.616628
    104          1           0       -2.981896   -1.677999    0.158939
    105          1           0       -5.018316   -4.057546   -2.584466
    106          1           0       -3.318213   -4.448026   -2.447126
    107          1           0       -3.808377   -3.238176   -3.599434
    108          1           0       -4.669487   -1.099986   -2.884112
    109          1           0       -3.828350   -0.380266   -1.602283
    110          1           0       -6.245708   -2.003642   -0.953134
    111          1           0       -6.653924   -0.790937   -2.060040
    112          1           0       -5.190841    0.748709   -0.202875
    113          1           0       -5.887137   -0.608542    0.815066
    114          1           0       -7.781690    0.831341   -0.867665
    115          1           0       -5.925534    2.580026    0.673131
    116          1           0       -7.601123    3.032687    0.704171
    117          1           0       -6.959898    2.880942   -0.813927
    118          1           0       -7.887053    0.977595    2.155097
    119          1           0       -7.954701   -0.636611    1.486840
    120          1           0       -9.770671    0.481702   -0.061796
    121          1           0      -10.091140    1.533104    1.270392
    122          1           0      -10.191947   -1.141831    2.346321
    123          1           0      -10.764977   -1.348504    0.735966
    124          1           0      -12.042595    0.818858    2.372454
    125          1           0      -12.162802   -0.484299    4.169447
    126          1           0      -12.112252   -2.037639    3.229106
    127          1           0      -13.559054   -1.096994    3.379686
    128          1           0      -13.777154   -1.173037    1.289566
    129          1           0      -12.605515   -0.601909   -0.078054
    130          1           0      -13.277226    1.692422    0.317372
    131          1           0      -14.331221    1.196767    1.682255
    132          1           0      -15.441458   -0.318602   -0.358023
    133          1           0      -14.729387    1.034351   -1.215407
    134          1           0      -15.850379    2.541383    0.688202
    135          1           0      -17.524527    1.791457    1.961537
    136          1           0      -17.055964    0.188027    1.477359
    137          1           0      -18.349786    1.039981    0.629763
    138          1           0      -18.135789    2.047890   -1.061731
    139          1           0      -16.683370    1.866786   -2.023443
    140          1           0      -16.956197    3.325303   -0.975066
 ---------------------------------------------------------------------

 SCF Done:  E(RZINDO/S) =  -474.519144710     A.U. after   20 cycles

 Excitation energies and oscillator strengths:

 Excited State   1:      Singlet-A      1.2311 eV 1007.07 nm  f=0.5742  <S**2>=0.000
     175 ->178         0.19544
     176 ->177         0.66235
 This state for optimization and/or second-order correction.
 Total Energy, E(CIS/TDA) =  -474.473901318
 Copying the excited state density for this state as the 1-particle RhoCI density.

 Excited State   2:      Singlet-A      1.9091 eV  649.44 nm  f=0.0415  <S**2>=0.000
     175 ->177         0.54145
     176 ->178        -0.43183

 Excited State   3:      Singlet-A      2.8391 eV  436.71 nm  f=0.0027  <S**2>=0.000
     170 ->177         0.38181
     170 ->178         0.13855
     170 ->179         0.36969
     170 ->181        -0.25666
     170 ->185         0.14889
     170 ->187         0.19467
     170 ->201        -0.12308

 Excited State   4:      Singlet-A      2.9718 eV  417.20 nm  f=0.0368  <S**2>=0.000
     167 ->181        -0.10966
     168 ->177         0.26398
     168 ->179        -0.30995
     168 ->181        -0.32010
     168 ->184        -0.10051
     168 ->185        -0.22845
     173 ->177         0.11352
     176 ->179        -0.14233

 Excited State   5:      Singlet-A      3.0085 eV  412.12 nm  f=0.7159  <S**2>=0.000
     171 ->177        -0.11935
     175 ->177         0.32547
     176 ->178         0.43319
     176 ->179         0.32666

 The electronic state is 1-A.
 Alpha  occ. eigenvalues --   -1.88142  -1.83625  -1.80945  -1.73140  -1.72358
 Alpha  occ. eigenvalues --   -1.70965  -1.62814  -1.61427  -1.59707  -1.59572
 Alpha  occ. eigenvalues --   -1.54800  -1.51445  -1.50336  -1.48726  -1.48375
 Alpha  occ. eigenvalues --   -1.47087  -1.43118  -1.41367  -1.38666  -1.38011
 Alpha  occ. eigenvalues --   -1.36284  -1.35611  -1.32538  -1.30017  -1.28399
 Alpha  occ. eigenvalues --   -1.27555  -1.26416  -1.22950  -1.20509  -1.19100
 Alpha  occ. eigenvalues --   -1.16645  -1.14558  -1.14465  -1.13964  -1.13714
 Alpha  occ. eigenvalues --   -1.12527  -1.10640  -1.09212  -1.06332  -1.04611
 Alpha  occ. eigenvalues --   -1.03677  -1.01969  -1.00501  -0.97793  -0.96614
 Alpha  occ. eigenvalues --   -0.95657  -0.94358  -0.93465  -0.92081  -0.91850
 Alpha  occ. eigenvalues --   -0.90887  -0.90172  -0.88842  -0.88677  -0.87144
 Alpha  occ. eigenvalues --   -0.85671  -0.83962  -0.83239  -0.81988  -0.80493
 Alpha  occ. eigenvalues --   -0.79446  -0.78479  -0.78150  -0.77832  -0.76822
 Alpha  occ. eigenvalues --   -0.76061  -0.74148  -0.73820  -0.73344  -0.73226
 Alpha  occ. eigenvalues --   -0.72653  -0.72137  -0.71593  -0.71406  -0.71065
 Alpha  occ. eigenvalues --   -0.70742  -0.70364  -0.69085  -0.68232  -0.67928
 Alpha  occ. eigenvalues --   -0.67577  -0.66924  -0.66574  -0.66116  -0.65808
 Alpha  occ. eigenvalues --   -0.65304  -0.65005  -0.64509  -0.64072  -0.64060
 Alpha  occ. eigenvalues --   -0.63738  -0.63080  -0.62615  -0.62439  -0.62210
 Alpha  occ. eigenvalues --   -0.61571  -0.61397  -0.60654  -0.60460  -0.60148
 Alpha  occ. eigenvalues --   -0.59786  -0.59229  -0.59074  -0.58350  -0.58247
 Alpha  occ. eigenvalues --   -0.57900  -0.57440  -0.56918  -0.56868  -0.56423
 Alpha  occ. eigenvalues --   -0.56039  -0.55635  -0.55400  -0.55073  -0.54752
 Alpha  occ. eigenvalues --   -0.53917  -0.53688  -0.53537  -0.53407  -0.53344
 Alpha  occ. eigenvalues --   -0.52603  -0.52362  -0.52040  -0.51633  -0.51272
 Alpha  occ. eigenvalues --   -0.51098  -0.50842  -0.50635  -0.50582  -0.50534
 Alpha  occ. eigenvalues --   -0.50138  -0.50031  -0.49784  -0.49629  -0.49126
 Alpha  occ. eigenvalues --   -0.48898  -0.48548  -0.48289  -0.47762  -0.47659
 Alpha  occ. eigenvalues --   -0.47584  -0.47457  -0.46903  -0.46651  -0.46534
 Alpha  occ. eigenvalues --   -0.46425  -0.45958  -0.45712  -0.45657  -0.45050
 Alpha  occ. eigenvalues --   -0.45021  -0.44859  -0.44551  -0.44390  -0.43864
 Alpha  occ. eigenvalues --   -0.43349  -0.42723  -0.42373  -0.42257  -0.41531
 Alpha  occ. eigenvalues --   -0.41501  -0.41255  -0.41170  -0.39344  -0.39235
 Alpha  occ. eigenvalues --   -0.38047  -0.37047  -0.35432  -0.34974  -0.34202
 Alpha  occ. eigenvalues --   -0.33160  -0.33077  -0.32493  -0.32199  -0.27038
 Alpha  occ. eigenvalues --   -0.22127
 Alpha virt. eigenvalues --   -0.08831  -0.02438  -0.00489   0.00863   0.01342
 Alpha virt. eigenvalues --    0.01608   0.02510   0.02683   0.04685   0.05690
 Alpha virt. eigenvalues --    0.06405   0.07136   0.07267   0.07747   0.08212

 Mulliken charges:
               1
     1  Mg   0.433061
     2  C   -0.048977
     3  C   -0.073858
     4  C   -0.081430
     5  C   -0.083194
     6  N   -0.256665
     7  C    0.106419
     8  C   -0.002827
     9  C   -0.002791
    10  C    0.130517
    11  C   -0.056938
    12  C   -0.018679
    13  C    0.007645
    14  C    0.466466
    15  O   -0.519690
    16  O   -0.274739
    17  N   -0.335896
    18  C    0.083366
    19  C    0.049410
    20  C   -0.057323
    21  C    0.146359
    22  C   -0.043862
    23  C    0.328011
    24  O   -0.509869
    25  C   -0.026263
    26  N   -0.274590
    27  C    0.136810
    28  C    0.012890
    29  C    0.011463
    30  C    0.114618
    31  C   -0.048410
    32  C   -0.035657
    33  C   -0.060902
    34  N   -0.309454
    35  C    0.092351
    36  C    0.031720
    37  C   -0.073292
    38  C    0.112879
    39  C   -0.038709
    40  C    0.344665
    41  O   -0.521429
    42  C    0.051061
    43  C    0.489653
    44  O   -0.513888
    45  O   -0.273379
    46  C    0.078209
    47  C    0.106635
    48  C   -0.078147
    49  C    0.005534
    50  C   -0.037900
    51  C   -0.025524
    52  C   -0.027778
    53  C   -0.037212
    54  C   -0.015842
    55  C   -0.063672
    56  C   -0.026249
    57  C   -0.038567
    58  C   -0.030931
    59  C   -0.026004
    60  C   -0.062897
    61  C   -0.042064
    62  C   -0.043880
    63  C   -0.046358
    64  C   -0.005463
    65  C   -0.055607
    66  C   -0.055484
    67  H    0.037133
    68  H    0.017652
    69  H    0.027349
    70  H    0.032020
    71  H    0.038354
    72  H    0.031445
    73  H    0.018737
    74  H    0.033368
    75  H    0.025286
    76  H    0.035875
    77  H    0.051075
    78  H    0.038803
    79  H    0.025747
    80  H    0.038987
    81  H    0.036158
    82  H    0.043150
    83  H    0.027817
    84  H    0.031628
    85  H    0.026274
    86  H    0.034343
    87  H    0.014949
    88  H    0.014696
    89  H    0.023431
    90  H    0.023729
    91  H    0.022389
    92  H    0.025317
    93  H    0.023800
    94  H    0.025275
    95  H    0.033483
    96  H    0.035625
    97  H    0.035907
    98  H    0.057968
    99  H    0.029806
   100  H    0.036204
   101  H    0.056155
   102  H    0.032140
   103  H    0.044104
   104  H    0.023361
   105  H    0.027478
   106  H    0.025267
   107  H    0.028924
   108  H    0.005148
   109  H    0.026371
   110  H    0.016241
   111  H    0.020570
   112  H    0.026036
   113  H    0.023145
   114  H    0.020527
   115  H    0.025269
   116  H    0.007792
   117  H    0.019661
   118  H    0.018385
   119  H    0.018414
   120  H    0.009920
   121  H    0.025450
   122  H    0.013724
   123  H    0.017762
   124  H    0.020744
   125  H    0.015707
   126  H    0.020014
   127  H    0.011563
   128  H    0.033102
   129  H    0.030183
   130  H    0.023218
   131  H    0.019674
   132  H    0.028754
   133  H    0.012127
   134  H    0.022479
   135  H    0.013520
   136  H    0.012764
   137  H    0.019859
   138  H    0.018178
   139  H    0.021040
   140  H    0.013997
 Sum of Mulliken charges =  -0.00000

 Dipole moment (field-independent basis, Debye):
    X=              2.6488    Y=              5.7787    Z=              0.4289  Tot=              6.3713
 N-N= 4.289202205978D+03 E-N= 0.000000000000D+00  KE=-9.252839672616D+03
 Leave Link  601 at Wed May  4 00:43:48 2022, MaxMem=  6710886400 cpu:               1.0 elap:               0.1
 (Enter /sw/apps/gaussian-16.0/g16/l9999.exe)
 1\1\GINC-BP1-COMPUTE062\SP\RZINDO CIS\STO-3G\C55H74Mg1N4O6\OF15641\04-
 May-2022\0\\#p ZINDO=(nstates=5)\\step_1151_chromophore_14 ZINDO\\0,1\
 Mg,0,46.553,45.818,43.987\C,0,43.391,44.69,43.609\C,0,47.678,42.624,43
 .23\C,0,49.575,47.215,43.564\C,0,45.225,49.138,44.228\N,0,45.661,43.97
 3,43.282\C,0,44.325,43.703,43.3\C,0,43.944,42.199,43.038\C,0,45.384,41
 .618,43.045\C,0,46.27,42.793,43.379\C,0,45.573,40.44,44.023\C,0,43.123
 ,41.866,41.804\C,0,43.184,42.833,40.566\C,0,43.342,42.14,39.2\O,0,43.9

 Normal termination of Gaussian 16 at Wed May  4 00:43:48 2022.
