 Gaussian 16, Revision A.03,
 Gaussian 16:  ES64L-G16RevA.03 25-Dec-2016

 ------------------------------
 #p blyp/Def2SVP td=(nstates=5)
 ------------------------------

 -------------------------------------------------
 step_801_chromophore_1 TDDFT with blyp functional
 -------------------------------------------------
 Symbolic Z-matrix:
 Charge =  0 Multiplicity = 1

                         Standard orientation:
 ---------------------------------------------------------------------
 Center     Atomic      Atomic             Coordinates (Angstroms)
 Number     Number       Type             X           Y           Z
 ---------------------------------------------------------------------
      1         12           0        6.081799    0.440525   -0.083468
      2          6           0        4.118360   -2.326277   -0.578405
      3          6           0        3.585294    2.438985   -1.370247
      4          6           0        8.197075    3.080968    0.323307
      5          6           0        8.838244   -1.733178    0.710760
      6          7           0        4.219760    0.079242   -1.049864
      7          6           0        3.528292   -1.066456   -0.968479
      8          6           0        2.086252   -0.919633   -1.496657
      9          6           0        2.104246    0.542383   -2.119172
     10          6           0        3.320485    1.061704   -1.459790
     11          6           0        2.158175    0.560282   -3.629727
     12          6           0        0.943539   -1.182138   -0.425858
     13          6           0       -0.467106   -0.616510   -0.778234
     14          6           0       -1.655822   -1.631533   -0.670227
     15          8           0       -1.884504   -2.579628   -1.391563
     16          8           0       -2.574988   -1.198389    0.207892
     17          7           0        5.866186    2.387644   -0.421834
     18          6           0        4.790580    3.062107   -1.017794
     19          6           0        4.983037    4.501708   -0.949001
     20          6           0        6.288611    4.658765   -0.341298
     21          6           0        6.863182    3.377124   -0.126820
     22          6           0        3.945689    5.458406   -1.437420
     23          6           0        7.039470    5.998243   -0.017853
     24          8           0        8.257527    6.052291    0.282404
     25          6           0        6.319372    7.361079   -0.021428
     26          7           0        8.149756    0.611173    0.387262
     27          6           0        8.793317    1.801032    0.458808
     28          6           0       10.165355    1.610780    1.060550
     29          6           0       10.233718    0.174564    1.471719
     30          6           0        8.973132   -0.383676    0.789452
     31          6           0       11.340385    2.160993    0.149528
     32          6           0       10.368933   -0.233046    2.947463
     33          6           0        9.349697    0.255274    3.856317
     34          7           0        6.500226   -1.611158    0.032417
     35          6           0        7.648518   -2.305323    0.366259
     36          6           0        7.278264   -3.724130    0.340786
     37          6           0        5.878456   -3.775809    0.035404
     38          6           0        5.480474   -2.466313   -0.209710
     39          6           0        8.162310   -4.884481    0.583382
     40          6           0        4.780088   -4.625593   -0.049623
     41          8           0        4.606285   -5.840255    0.053985
     42          6           0        3.667775   -3.781506   -0.675722
     43          6           0        2.293827   -4.211629   -0.099748
     44          8           0        1.942574   -3.906247    1.035164
     45          8           0        1.704815   -5.195692   -0.849222
     46          6           0        0.548034   -5.897308   -0.234672
     47          6           0       -3.833342   -1.885417    0.297716
     48          6           0       -4.901433   -1.040383   -0.333714
     49          6           0       -6.099328   -1.546531   -0.653974
     50          6           0       -6.843354   -2.884392   -0.281678
     51          6           0       -6.981055   -0.549166   -1.438694
     52          6           0       -7.404604    0.789358   -0.673629
     53          6           0       -8.906507    1.130540   -0.898315
     54          6           0       -9.576627    1.796957    0.281750
     55          6           0       -8.796603    3.019207    0.782997
     56          6           0      -10.080196    0.807234    1.408661
     57          6           0      -10.882044    1.556632    2.443567
     58          6           0      -11.825341    0.625490    3.291579
     59          6           0      -13.332681    0.959072    2.975604
     60          6           0      -14.124432    0.644988    4.204132
     61          6           0      -13.810999    0.156971    1.748805
     62          6           0      -14.215014    1.055850    0.546053
     63          6           0      -13.785665    0.457392   -0.797465
     64          6           0      -14.776118    0.938492   -1.855370
     65          6           0      -16.138222    0.242842   -1.689627
     66          6           0      -14.169813    0.672337   -3.253606
     67          1           0        2.876583    3.107544   -1.864594
     68          1           0        8.893379    3.858125    0.645018
     69          1           0        9.676095   -2.309529    1.108558
     70          1           0        1.983800   -1.711567   -2.238203
     71          1           0        1.204573    1.093009   -1.846369
     72          1           0        1.668994    1.377973   -4.159048
     73          1           0        1.548548   -0.233756   -4.059841
     74          1           0        3.193245    0.339989   -3.890977
     75          1           0        1.303180   -0.685983    0.474879
     76          1           0        0.796164   -2.250493   -0.263092
     77          1           0       -0.473719   -0.020441   -1.689927
     78          1           0       -0.750299    0.084572    0.006559
     79          1           0        3.329708    5.160114   -2.286332
     80          1           0        4.340894    6.416796   -1.773774
     81          1           0        3.262258    5.614930   -0.602653
     82          1           0        5.277929    7.171323    0.238832
     83          1           0        6.348319    7.691093   -1.060207
     84          1           0        6.841255    8.058220    0.633602
     85          1           0       10.209408    2.068701    2.048989
     86          1           0       11.076379   -0.347079    1.016799
     87          1           0       11.655450    3.126518    0.546630
     88          1           0       11.088885    2.316327   -0.899514
     89          1           0       12.251436    1.563678    0.108209
     90          1           0       11.211770    0.390789    3.247020
     91          1           0       10.665707   -1.281069    2.962948
     92          1           0        8.487180    0.484868    3.231483
     93          1           0        9.708680    1.172932    4.323174
     94          1           0        9.053030   -0.504925    4.578634
     95          1           0        9.147952   -4.514238    0.867764
     96          1           0        8.283913   -5.275411   -0.426009
     97          1           0        7.780308   -5.743038    1.137436
     98          1           0        3.695283   -4.174982   -1.691413
     99          1           0        0.724478   -6.267660    0.774989
    100          1           0        0.285775   -6.639796   -0.989045
    101          1           0       -0.220278   -5.149435   -0.041967
    102          1           0       -4.066520   -1.856960    1.362909
    103          1           0       -3.900346   -2.914867   -0.055019
    104          1           0       -4.626114   -0.028054   -0.629856
    105          1           0       -6.118027   -3.614903    0.075559
    106          1           0       -7.259323   -3.283093   -1.207493
    107          1           0       -7.610520   -2.670440    0.462737
    108          1           0       -7.934304   -1.059403   -1.571889
    109          1           0       -6.429110   -0.311164   -2.348127
    110          1           0       -6.901146    1.664623   -1.085292
    111          1           0       -7.231491    0.642616    0.392227
    112          1           0       -9.412234    0.206089   -1.177369
    113          1           0       -8.942816    1.740450   -1.800650
    114          1           0      -10.572013    2.029906   -0.097086
    115          1           0       -9.450336    3.886730    0.876345
    116          1           0       -7.964222    3.345325    0.159313
    117          1           0       -8.394276    2.882886    1.786267
    118          1           0       -9.227879    0.414221    1.962986
    119          1           0      -10.589264   -0.113736    1.125398
    120          1           0      -11.263128    2.498464    2.047997
    121          1           0      -10.277893    2.104094    3.167512
    122          1           0      -11.486560    0.654496    4.326639
    123          1           0      -11.665149   -0.402232    2.967354
    124          1           0      -13.423155    2.013789    2.714280
    125          1           0      -15.187276    0.550866    3.981548
    126          1           0      -14.182144    1.481507    4.901083
    127          1           0      -13.781286   -0.258567    4.708974
    128          1           0      -14.727943   -0.342465    2.062044
    129          1           0      -13.110561   -0.620403    1.444938
    130          1           0      -13.655198    1.986954    0.631374
    131          1           0      -15.247321    1.404368    0.515149
    132          1           0      -13.848996   -0.623984   -0.682470
    133          1           0      -12.787193    0.785168   -1.085036
    134          1           0      -14.891764    2.009250   -1.691966
    135          1           0      -16.615777   -0.250034   -2.536599
    136          1           0      -16.875790    0.994447   -1.408724
    137          1           0      -16.114834   -0.520495   -0.911993
    138          1           0      -13.130690    0.345338   -3.297023
    139          1           0      -14.158251    1.460824   -4.006584
    140          1           0      -14.707426   -0.154945   -3.715388
 ---------------------------------------------------------------------

 SCF Done:  E(RB-LYP) =  -3007.35386582     A.U. after   23 cycles

 Excitation energies and oscillator strengths:

 Excited State   1:      Singlet-A      1.7276 eV  717.69 nm  f=0.0748  <S**2>=0.000
     243 -> 247        0.16570
     244 -> 247        0.47688
     245 -> 247        0.37392
     246 -> 247       -0.31169
 This state for optimization and/or second-order correction.
 Total Energy, E(TD-HF/TD-DFT) =  -3007.29037942
 Copying the excited state density for this state as the 1-particle RhoCI density.

 Excited State   2:      Singlet-A      1.7646 eV  702.64 nm  f=0.2057  <S**2>=0.000
     243 -> 247        0.28942
     245 -> 247        0.24766
     245 -> 248        0.15630
     246 -> 247        0.57562
     246 <- 247       -0.13074

 Excited State   3:      Singlet-A      1.8099 eV  685.04 nm  f=0.0372  <S**2>=0.000
     243 -> 247        0.50415
     244 -> 247       -0.42015
     245 -> 247        0.11141
     246 -> 247       -0.22683

 Excited State   4:      Singlet-A      2.0295 eV  610.90 nm  f=0.0526  <S**2>=0.000
     243 -> 247       -0.35142
     244 -> 247       -0.27740
     245 -> 247        0.46375
     246 -> 248       -0.24604

 Excited State   5:      Singlet-A      2.1647 eV  572.74 nm  f=0.0001  <S**2>=0.000
     242 -> 247        0.70699

 The electronic state is 1-A.
 Alpha  occ. eigenvalues --  -46.25614 -18.82196 -18.81390 -18.76158 -18.75756
 Alpha  occ. eigenvalues --  -18.75575 -18.74606 -14.03708 -14.02889 -14.00967
 Alpha  occ. eigenvalues --  -14.00495 -10.03943 -10.03140 -10.00353  -9.98389
 Alpha  occ. eigenvalues --   -9.97514  -9.97267  -9.96933  -9.96458  -9.96122
 Alpha  occ. eigenvalues --   -9.96111  -9.95523  -9.95507  -9.95435  -9.94406
 Alpha  occ. eigenvalues --   -9.94226  -9.94136  -9.94118  -9.93992  -9.93943
 Alpha  occ. eigenvalues --   -9.93641  -9.93543  -9.93468  -9.93306  -9.93301
 Alpha  occ. eigenvalues --   -9.93282  -9.93100  -9.92730  -9.92617  -9.92575
 Alpha  occ. eigenvalues --   -9.92526  -9.92403  -9.92367  -9.92298  -9.92251
 Alpha  occ. eigenvalues --   -9.92158  -9.92154  -9.92150  -9.92050  -9.91617
 Alpha  occ. eigenvalues --   -9.91489  -9.91408  -9.91380  -9.91346  -9.91307
 Alpha  occ. eigenvalues --   -9.91287  -9.91191  -9.90805  -9.90801  -9.90797
 Alpha  occ. eigenvalues --   -9.90739  -9.90727  -9.90683  -9.90358  -9.90346
 Alpha  occ. eigenvalues --   -9.90328  -2.90534  -1.70948  -1.70433  -1.70234
 Alpha  occ. eigenvalues --   -0.99139  -0.96385  -0.90238  -0.89882  -0.89821
 Alpha  occ. eigenvalues --   -0.88502  -0.86932  -0.86585  -0.85372  -0.83355
 Alpha  occ. eigenvalues --   -0.75725  -0.73528  -0.73520  -0.73043  -0.72725
 Alpha  occ. eigenvalues --   -0.72233  -0.71715  -0.71266  -0.71097  -0.70262
 Alpha  occ. eigenvalues --   -0.69763  -0.69180  -0.68072  -0.67954  -0.66961
 Alpha  occ. eigenvalues --   -0.66155  -0.65614  -0.65215  -0.64888  -0.64249
 Alpha  occ. eigenvalues --   -0.63908  -0.62825  -0.62561  -0.61865  -0.60682
 Alpha  occ. eigenvalues --   -0.60517  -0.60216  -0.59969  -0.59509  -0.59114
 Alpha  occ. eigenvalues --   -0.58258  -0.57315  -0.57234  -0.55757  -0.55156
 Alpha  occ. eigenvalues --   -0.54224  -0.53924  -0.52705  -0.52144  -0.51452
 Alpha  occ. eigenvalues --   -0.51129  -0.50637  -0.50450  -0.50241  -0.49765
 Alpha  occ. eigenvalues --   -0.49411  -0.49126  -0.47947  -0.47898  -0.46545
 Alpha  occ. eigenvalues --   -0.46388  -0.45854  -0.45563  -0.45482  -0.44373
 Alpha  occ. eigenvalues --   -0.44032  -0.43509  -0.42812  -0.42765  -0.42365
 Alpha  occ. eigenvalues --   -0.42188  -0.41598  -0.41538  -0.41444  -0.41298
 Alpha  occ. eigenvalues --   -0.40998  -0.40668  -0.40561  -0.40306  -0.40088
 Alpha  occ. eigenvalues --   -0.39462  -0.39406  -0.39305  -0.39185  -0.39077
 Alpha  occ. eigenvalues --   -0.38771  -0.38634  -0.38403  -0.38229  -0.38166
 Alpha  occ. eigenvalues --   -0.37837  -0.37691  -0.37568  -0.37464  -0.37313
 Alpha  occ. eigenvalues --   -0.37072  -0.36958  -0.36660  -0.36602  -0.36402
 Alpha  occ. eigenvalues --   -0.36302  -0.36182  -0.36091  -0.35760  -0.35320
 Alpha  occ. eigenvalues --   -0.35199  -0.34970  -0.34707  -0.34650  -0.34571
 Alpha  occ. eigenvalues --   -0.34506  -0.34314  -0.34069  -0.34051  -0.33768
 Alpha  occ. eigenvalues --   -0.33653  -0.33418  -0.33324  -0.33292  -0.33165
 Alpha  occ. eigenvalues --   -0.33084  -0.32833  -0.32671  -0.32495  -0.32205
 Alpha  occ. eigenvalues --   -0.32148  -0.31857  -0.31709  -0.31623  -0.31486
 Alpha  occ. eigenvalues --   -0.31227  -0.31060  -0.30679  -0.30522  -0.30340
 Alpha  occ. eigenvalues --   -0.30320  -0.30123  -0.29916  -0.29833  -0.29722
 Alpha  occ. eigenvalues --   -0.29547  -0.29465  -0.29357  -0.29107  -0.29091
 Alpha  occ. eigenvalues --   -0.28751  -0.28513  -0.28399  -0.28079  -0.27715
 Alpha  occ. eigenvalues --   -0.27397  -0.27337  -0.27256  -0.27024  -0.26628
 Alpha  occ. eigenvalues --   -0.26220  -0.26099  -0.25817  -0.25717  -0.24654
 Alpha  occ. eigenvalues --   -0.24501  -0.24272  -0.24212  -0.24027  -0.23257
 Alpha  occ. eigenvalues --   -0.23045  -0.21679  -0.21288  -0.20752  -0.20389
 Alpha  occ. eigenvalues --   -0.19918  -0.19708  -0.18401  -0.18165  -0.17291
 Alpha  occ. eigenvalues --   -0.15837
 Alpha virt. eigenvalues --   -0.11753  -0.07059  -0.06250  -0.04751  -0.02619
 Alpha virt. eigenvalues --   -0.02507  -0.02109  -0.01870  -0.01802  -0.00041
 Alpha virt. eigenvalues --    0.01309   0.01772   0.01852   0.02328   0.02654

 Mulliken charges:
               1
     1  Mg   0.708081
     2  C    0.059322
     3  C   -0.062608
     4  C   -0.048009
     5  C   -0.122932
     6  N   -0.224454
     7  C   -0.042248
     8  C   -0.025479
     9  C    0.030940
    10  C    0.039745
    11  C    0.151230
    12  C    0.117112
    13  C    0.109407
    14  C    0.055149
    15  O   -0.193086
    16  O   -0.237067
    17  N   -0.371163
    18  C    0.129829
    19  C   -0.123834
    20  C    0.029414
    21  C    0.146259
    22  C    0.158411
    23  C   -0.065607
    24  O   -0.198320
    25  C    0.133662
    26  N   -0.197392
    27  C    0.027258
    28  C    0.068206
    29  C   -0.019717
    30  C    0.008508
    31  C    0.120220
    32  C    0.099314
    33  C    0.092456
    34  N   -0.272781
    35  C    0.177573
    36  C   -0.185751
    37  C    0.122081
    38  C    0.049386
    39  C    0.195030
    40  C   -0.080660
    41  O   -0.152421
    42  C    0.031372
    43  C    0.117446
    44  O   -0.213766
    45  O   -0.264396
    46  C    0.230932
    47  C    0.326707
    48  C   -0.113212
    49  C   -0.173609
    50  C    0.141619
    51  C    0.128147
    52  C    0.049580
    53  C    0.081766
    54  C   -0.044364
    55  C    0.121922
    56  C    0.087771
    57  C    0.047216
    58  C    0.119179
    59  C   -0.061867
    60  C    0.125382
    61  C    0.136686
    62  C    0.042641
    63  C    0.073872
    64  C   -0.077383
    65  C    0.102061
    66  C    0.109653
    67  H   -0.070555
    68  H   -0.033113
    69  H   -0.054659
    70  H   -0.021924
    71  H   -0.034153
    72  H   -0.011823
    73  H   -0.021201
    74  H   -0.001692
    75  H   -0.019349
    76  H    0.029993
    77  H    0.009201
    78  H   -0.018757
    79  H    0.000393
    80  H   -0.011164
    81  H    0.009371
    82  H   -0.007418
    83  H    0.018350
    84  H    0.010020
    85  H   -0.037386
    86  H   -0.053058
    87  H   -0.001051
    88  H   -0.002649
    89  H   -0.015507
    90  H   -0.034527
    91  H   -0.020952
    92  H   -0.007141
    93  H   -0.003208
    94  H   -0.004228
    95  H   -0.025843
    96  H    0.000788
    97  H    0.018595
    98  H    0.009587
    99  H    0.016492
   100  H    0.026144
   101  H    0.006941
   102  H   -0.010928
   103  H    0.017596
   104  H   -0.028739
   105  H   -0.017171
   106  H    0.007598
   107  H    0.019813
   108  H   -0.047251
   109  H   -0.007050
   110  H   -0.022236
   111  H   -0.018510
   112  H   -0.044846
   113  H   -0.038364
   114  H   -0.031321
   115  H   -0.018569
   116  H   -0.014573
   117  H   -0.015312
   118  H   -0.044425
   119  H   -0.032089
   120  H   -0.046689
   121  H   -0.050862
   122  H   -0.032122
   123  H   -0.040283
   124  H   -0.034554
   125  H   -0.037707
   126  H   -0.028318
   127  H   -0.011195
   128  H   -0.043472
   129  H   -0.029539
   130  H   -0.036404
   131  H   -0.028504
   132  H   -0.028689
   133  H   -0.013987
   134  H   -0.033459
   135  H   -0.016712
   136  H   -0.017729
   137  H   -0.014358
   138  H   -0.031156
   139  H   -0.021657
   140  H   -0.031156
 Sum of Mulliken charges =  -0.00000

 Dipole moment (field-independent basis, Debye):
    X=             -2.4026    Y=              3.3804    Z=             -0.3043  Tot=              4.1584
 Quadrupole moment (field-independent basis, Debye-Ang):
   XX=           -372.3070   YY=           -424.3389   ZZ=           -403.4238
   XY=             -7.6879   XZ=              4.1685   YZ=             -5.5077

 Normal termination of Gaussian 16 at Thu May  5 09:36:46 2022.
