 Gaussian 16, Revision A.03,
 Gaussian 16:  ES64L-G16RevA.03 25-Dec-2016

 -----------------------------------
 #p cam-b3lyp/Def2SVP td=(nstates=5)
 -----------------------------------

 ------------------------------------------------------
 step_801_chromophore_1 TDDFT with cam-b3lyp functional
 ------------------------------------------------------
 Symbolic Z-matrix:
 Charge =  0 Multiplicity = 1

                         Standard orientation:
 ---------------------------------------------------------------------
 Center     Atomic      Atomic             Coordinates (Angstroms)
 Number     Number       Type             X           Y           Z
 ---------------------------------------------------------------------
      1         12           0        6.081799    0.440525   -0.083468
      2          6           0        4.118360   -2.326277   -0.578405
      3          6           0        3.585294    2.438985   -1.370247
      4          6           0        8.197075    3.080968    0.323307
      5          6           0        8.838244   -1.733178    0.710760
      6          7           0        4.219760    0.079242   -1.049864
      7          6           0        3.528292   -1.066456   -0.968479
      8          6           0        2.086252   -0.919633   -1.496657
      9          6           0        2.104246    0.542383   -2.119172
     10          6           0        3.320485    1.061704   -1.459790
     11          6           0        2.158175    0.560282   -3.629727
     12          6           0        0.943539   -1.182138   -0.425858
     13          6           0       -0.467106   -0.616510   -0.778234
     14          6           0       -1.655822   -1.631533   -0.670227
     15          8           0       -1.884504   -2.579628   -1.391563
     16          8           0       -2.574988   -1.198389    0.207892
     17          7           0        5.866186    2.387644   -0.421834
     18          6           0        4.790580    3.062107   -1.017794
     19          6           0        4.983037    4.501708   -0.949001
     20          6           0        6.288611    4.658765   -0.341298
     21          6           0        6.863182    3.377124   -0.126820
     22          6           0        3.945689    5.458406   -1.437420
     23          6           0        7.039470    5.998243   -0.017853
     24          8           0        8.257527    6.052291    0.282404
     25          6           0        6.319372    7.361079   -0.021428
     26          7           0        8.149756    0.611173    0.387262
     27          6           0        8.793317    1.801032    0.458808
     28          6           0       10.165355    1.610780    1.060550
     29          6           0       10.233718    0.174564    1.471719
     30          6           0        8.973132   -0.383676    0.789452
     31          6           0       11.340385    2.160993    0.149528
     32          6           0       10.368933   -0.233046    2.947463
     33          6           0        9.349697    0.255274    3.856317
     34          7           0        6.500226   -1.611158    0.032417
     35          6           0        7.648518   -2.305323    0.366259
     36          6           0        7.278264   -3.724130    0.340786
     37          6           0        5.878456   -3.775809    0.035404
     38          6           0        5.480474   -2.466313   -0.209710
     39          6           0        8.162310   -4.884481    0.583382
     40          6           0        4.780088   -4.625593   -0.049623
     41          8           0        4.606285   -5.840255    0.053985
     42          6           0        3.667775   -3.781506   -0.675722
     43          6           0        2.293827   -4.211629   -0.099748
     44          8           0        1.942574   -3.906247    1.035164
     45          8           0        1.704815   -5.195692   -0.849222
     46          6           0        0.548034   -5.897308   -0.234672
     47          6           0       -3.833342   -1.885417    0.297716
     48          6           0       -4.901433   -1.040383   -0.333714
     49          6           0       -6.099328   -1.546531   -0.653974
     50          6           0       -6.843354   -2.884392   -0.281678
     51          6           0       -6.981055   -0.549166   -1.438694
     52          6           0       -7.404604    0.789358   -0.673629
     53          6           0       -8.906507    1.130540   -0.898315
     54          6           0       -9.576627    1.796957    0.281750
     55          6           0       -8.796603    3.019207    0.782997
     56          6           0      -10.080196    0.807234    1.408661
     57          6           0      -10.882044    1.556632    2.443567
     58          6           0      -11.825341    0.625490    3.291579
     59          6           0      -13.332681    0.959072    2.975604
     60          6           0      -14.124432    0.644988    4.204132
     61          6           0      -13.810999    0.156971    1.748805
     62          6           0      -14.215014    1.055850    0.546053
     63          6           0      -13.785665    0.457392   -0.797465
     64          6           0      -14.776118    0.938492   -1.855370
     65          6           0      -16.138222    0.242842   -1.689627
     66          6           0      -14.169813    0.672337   -3.253606
     67          1           0        2.876583    3.107544   -1.864594
     68          1           0        8.893379    3.858125    0.645018
     69          1           0        9.676095   -2.309529    1.108558
     70          1           0        1.983800   -1.711567   -2.238203
     71          1           0        1.204573    1.093009   -1.846369
     72          1           0        1.668994    1.377973   -4.159048
     73          1           0        1.548548   -0.233756   -4.059841
     74          1           0        3.193245    0.339989   -3.890977
     75          1           0        1.303180   -0.685983    0.474879
     76          1           0        0.796164   -2.250493   -0.263092
     77          1           0       -0.473719   -0.020441   -1.689927
     78          1           0       -0.750299    0.084572    0.006559
     79          1           0        3.329708    5.160114   -2.286332
     80          1           0        4.340894    6.416796   -1.773774
     81          1           0        3.262258    5.614930   -0.602653
     82          1           0        5.277929    7.171323    0.238832
     83          1           0        6.348319    7.691093   -1.060207
     84          1           0        6.841255    8.058220    0.633602
     85          1           0       10.209408    2.068701    2.048989
     86          1           0       11.076379   -0.347079    1.016799
     87          1           0       11.655450    3.126518    0.546630
     88          1           0       11.088885    2.316327   -0.899514
     89          1           0       12.251436    1.563678    0.108209
     90          1           0       11.211770    0.390789    3.247020
     91          1           0       10.665707   -1.281069    2.962948
     92          1           0        8.487180    0.484868    3.231483
     93          1           0        9.708680    1.172932    4.323174
     94          1           0        9.053030   -0.504925    4.578634
     95          1           0        9.147952   -4.514238    0.867764
     96          1           0        8.283913   -5.275411   -0.426009
     97          1           0        7.780308   -5.743038    1.137436
     98          1           0        3.695283   -4.174982   -1.691413
     99          1           0        0.724478   -6.267660    0.774989
    100          1           0        0.285775   -6.639796   -0.989045
    101          1           0       -0.220278   -5.149435   -0.041967
    102          1           0       -4.066520   -1.856960    1.362909
    103          1           0       -3.900346   -2.914867   -0.055019
    104          1           0       -4.626114   -0.028054   -0.629856
    105          1           0       -6.118027   -3.614903    0.075559
    106          1           0       -7.259323   -3.283093   -1.207493
    107          1           0       -7.610520   -2.670440    0.462737
    108          1           0       -7.934304   -1.059403   -1.571889
    109          1           0       -6.429110   -0.311164   -2.348127
    110          1           0       -6.901146    1.664623   -1.085292
    111          1           0       -7.231491    0.642616    0.392227
    112          1           0       -9.412234    0.206089   -1.177369
    113          1           0       -8.942816    1.740450   -1.800650
    114          1           0      -10.572013    2.029906   -0.097086
    115          1           0       -9.450336    3.886730    0.876345
    116          1           0       -7.964222    3.345325    0.159313
    117          1           0       -8.394276    2.882886    1.786267
    118          1           0       -9.227879    0.414221    1.962986
    119          1           0      -10.589264   -0.113736    1.125398
    120          1           0      -11.263128    2.498464    2.047997
    121          1           0      -10.277893    2.104094    3.167512
    122          1           0      -11.486560    0.654496    4.326639
    123          1           0      -11.665149   -0.402232    2.967354
    124          1           0      -13.423155    2.013789    2.714280
    125          1           0      -15.187276    0.550866    3.981548
    126          1           0      -14.182144    1.481507    4.901083
    127          1           0      -13.781286   -0.258567    4.708974
    128          1           0      -14.727943   -0.342465    2.062044
    129          1           0      -13.110561   -0.620403    1.444938
    130          1           0      -13.655198    1.986954    0.631374
    131          1           0      -15.247321    1.404368    0.515149
    132          1           0      -13.848996   -0.623984   -0.682470
    133          1           0      -12.787193    0.785168   -1.085036
    134          1           0      -14.891764    2.009250   -1.691966
    135          1           0      -16.615777   -0.250034   -2.536599
    136          1           0      -16.875790    0.994447   -1.408724
    137          1           0      -16.114834   -0.520495   -0.911993
    138          1           0      -13.130690    0.345338   -3.297023
    139          1           0      -14.158251    1.460824   -4.006584
    140          1           0      -14.707426   -0.154945   -3.715388
 ---------------------------------------------------------------------

 SCF Done:  E(RCAM-B3LYP) =  -3007.15208203     A.U. after   19 cycles

 Excitation energies and oscillator strengths:

 Excited State   1:      Singlet-A      1.6445 eV  753.95 nm  f=0.3704  <S**2>=0.000
     245 -> 248       -0.18113
     246 -> 247        0.68651
     245 <- 248       -0.11189
 This state for optimization and/or second-order correction.
 Total Energy, E(TD-HF/TD-DFT) =  -3007.09164888
 Copying the excited state density for this state as the 1-particle RhoCI density.

 Excited State   2:      Singlet-A      2.2069 eV  561.79 nm  f=0.1059  <S**2>=0.000
     245 -> 247        0.63599
     246 -> 248        0.29482

 Excited State   3:      Singlet-A      3.1843 eV  389.36 nm  f=0.0013  <S**2>=0.000
     244 -> 247        0.68473

 Excited State   4:      Singlet-A      3.2858 eV  377.33 nm  f=0.0206  <S**2>=0.000
     239 -> 247        0.21802
     239 -> 249       -0.12228
     239 -> 250       -0.10190
     240 -> 247        0.15833
     240 -> 249       -0.10189
     241 -> 247        0.29742
     241 -> 249       -0.16058
     241 -> 250       -0.11557
     242 -> 247        0.48345

 Excited State   5:      Singlet-A      3.3579 eV  369.24 nm  f=0.0620  <S**2>=0.000
     239 -> 247       -0.11622
     240 -> 247       -0.10945
     241 -> 247       -0.35465
     242 -> 247        0.43277
     246 -> 248       -0.33126

 The electronic state is 1-A.
 Alpha  occ. eigenvalues --  -46.87064 -19.25034 -19.24325 -19.19162 -19.18905
 Alpha  occ. eigenvalues --  -19.18712 -19.17862 -14.42639 -14.41797 -14.39370
 Alpha  occ. eigenvalues --  -14.38961 -10.39221 -10.38695 -10.35588 -10.33780
 Alpha  occ. eigenvalues --  -10.32035 -10.31436 -10.30954 -10.30851 -10.30470
 Alpha  occ. eigenvalues --  -10.30409 -10.29995 -10.29975 -10.29607 -10.28950
 Alpha  occ. eigenvalues --  -10.28877 -10.28613 -10.28313 -10.28266 -10.28091
 Alpha  occ. eigenvalues --  -10.27900 -10.27748 -10.27604 -10.27333 -10.27158
 Alpha  occ. eigenvalues --  -10.27152 -10.26975 -10.26804 -10.26725 -10.26697
 Alpha  occ. eigenvalues --  -10.26474 -10.26300 -10.26292 -10.26239 -10.26182
 Alpha  occ. eigenvalues --  -10.25861 -10.25813 -10.25810 -10.25721 -10.25342
 Alpha  occ. eigenvalues --  -10.25244 -10.25171 -10.25083 -10.24981 -10.24924
 Alpha  occ. eigenvalues --  -10.24898 -10.24856 -10.24563 -10.24467 -10.24459
 Alpha  occ. eigenvalues --  -10.24385 -10.24371 -10.24367 -10.24340 -10.23914
 Alpha  occ. eigenvalues --  -10.23897  -3.15900  -1.90786  -1.90377  -1.90201
 Alpha  occ. eigenvalues --   -1.17632  -1.14939  -1.08709  -1.08082  -1.07799
 Alpha  occ. eigenvalues --   -1.06468  -1.04760  -1.04336  -1.03078  -1.00705
 Alpha  occ. eigenvalues --   -0.92991  -0.90374  -0.90272  -0.89847  -0.89494
 Alpha  occ. eigenvalues --   -0.88931  -0.88400  -0.87894  -0.87724  -0.86900
 Alpha  occ. eigenvalues --   -0.86325  -0.85557  -0.84255  -0.84195  -0.83074
 Alpha  occ. eigenvalues --   -0.82172  -0.81711  -0.81164  -0.80909  -0.80103
 Alpha  occ. eigenvalues --   -0.79655  -0.78551  -0.78234  -0.77377  -0.76059
 Alpha  occ. eigenvalues --   -0.75923  -0.75572  -0.75263  -0.74758  -0.74360
 Alpha  occ. eigenvalues --   -0.73335  -0.72375  -0.72190  -0.70573  -0.69841
 Alpha  occ. eigenvalues --   -0.68873  -0.68562  -0.67128  -0.66558  -0.65689
 Alpha  occ. eigenvalues --   -0.65262  -0.64602  -0.64562  -0.64330  -0.63731
 Alpha  occ. eigenvalues --   -0.63202  -0.63056  -0.61705  -0.61628  -0.60124
 Alpha  occ. eigenvalues --   -0.60073  -0.59334  -0.59079  -0.58907  -0.57865
 Alpha  occ. eigenvalues --   -0.57442  -0.57099  -0.55883  -0.55710  -0.55402
 Alpha  occ. eigenvalues --   -0.55207  -0.54841  -0.54727  -0.54367  -0.54273
 Alpha  occ. eigenvalues --   -0.53998  -0.53660  -0.53195  -0.53048  -0.52809
 Alpha  occ. eigenvalues --   -0.52324  -0.51992  -0.51904  -0.51815  -0.51557
 Alpha  occ. eigenvalues --   -0.51380  -0.51261  -0.51151  -0.50948  -0.50781
 Alpha  occ. eigenvalues --   -0.50100  -0.50052  -0.49988  -0.49777  -0.49484
 Alpha  occ. eigenvalues --   -0.49394  -0.49234  -0.49020  -0.48757  -0.48593
 Alpha  occ. eigenvalues --   -0.48480  -0.48435  -0.48190  -0.48056  -0.47687
 Alpha  occ. eigenvalues --   -0.47243  -0.47093  -0.46901  -0.46617  -0.46463
 Alpha  occ. eigenvalues --   -0.46413  -0.46343  -0.46050  -0.45753  -0.45713
 Alpha  occ. eigenvalues --   -0.45579  -0.45273  -0.45024  -0.44963  -0.44879
 Alpha  occ. eigenvalues --   -0.44772  -0.44535  -0.44309  -0.44119  -0.43805
 Alpha  occ. eigenvalues --   -0.43601  -0.43426  -0.43322  -0.43259  -0.43066
 Alpha  occ. eigenvalues --   -0.42711  -0.42556  -0.42320  -0.42001  -0.41991
 Alpha  occ. eigenvalues --   -0.41777  -0.41625  -0.41500  -0.41372  -0.41018
 Alpha  occ. eigenvalues --   -0.40962  -0.40916  -0.40580  -0.40451  -0.40170
 Alpha  occ. eigenvalues --   -0.39757  -0.39663  -0.39546  -0.39287  -0.38741
 Alpha  occ. eigenvalues --   -0.38374  -0.38209  -0.38065  -0.37816  -0.37545
 Alpha  occ. eigenvalues --   -0.37450  -0.36717  -0.36670  -0.36508  -0.35625
 Alpha  occ. eigenvalues --   -0.35514  -0.35012  -0.34748  -0.34193  -0.33724
 Alpha  occ. eigenvalues --   -0.33661  -0.33486  -0.33110  -0.30947  -0.30538
 Alpha  occ. eigenvalues --   -0.30140  -0.29529  -0.29344  -0.29279  -0.24212
 Alpha  occ. eigenvalues --   -0.21174
 Alpha virt. eigenvalues --   -0.08985  -0.01952   0.00266   0.02162   0.03006
 Alpha virt. eigenvalues --    0.04874   0.05224   0.05452   0.05715   0.06923
 Alpha virt. eigenvalues --    0.07662   0.07935   0.08604   0.08802   0.08856

 Mulliken charges:
               1
     1  Mg   0.843233
     2  C    0.030497
     3  C   -0.070788
     4  C   -0.057034
     5  C   -0.120691
     6  N   -0.294414
     7  C    0.006536
     8  C   -0.072264
     9  C   -0.033910
    10  C    0.051830
    11  C    0.093970
    12  C    0.069221
    13  C    0.039101
    14  C    0.137177
    15  O   -0.233442
    16  O   -0.303560
    17  N   -0.457318
    18  C    0.141440
    19  C   -0.134387
    20  C   -0.037547
    21  C    0.160625
    22  C    0.094584
    23  C    0.013288
    24  O   -0.240112
    25  C    0.057514
    26  N   -0.267270
    27  C    0.044062
    28  C   -0.001782
    29  C   -0.068776
    30  C    0.021297
    31  C    0.065020
    32  C    0.043588
    33  C    0.027324
    34  N   -0.364267
    35  C    0.178991
    36  C   -0.172736
    37  C    0.033445
    38  C    0.087111
    39  C    0.140020
    40  C    0.022200
    41  O   -0.190843
    42  C   -0.039146
    43  C    0.200780
    44  O   -0.249721
    45  O   -0.328640
    46  C    0.191631
    47  C    0.288748
    48  C   -0.131290
    49  C   -0.197013
    50  C    0.086162
    51  C    0.069550
    52  C   -0.006287
    53  C    0.036431
    54  C   -0.101553
    55  C    0.053373
    56  C    0.042949
    57  C   -0.007917
    58  C    0.066227
    59  C   -0.120355
    60  C    0.064654
    61  C    0.080908
    62  C   -0.008939
    63  C    0.028020
    64  C   -0.140144
    65  C    0.038953
    66  C    0.049949
    67  H   -0.035864
    68  H    0.008168
    69  H   -0.018857
    70  H    0.013849
    71  H    0.001127
    72  H    0.014273
    73  H    0.004279
    74  H    0.023913
    75  H    0.013219
    76  H    0.054068
    77  H    0.038546
    78  H    0.019680
    79  H    0.027462
    80  H    0.015010
    81  H    0.036253
    82  H    0.019751
    83  H    0.043815
    84  H    0.042660
    85  H   -0.000693
    86  H   -0.014529
    87  H    0.022390
    88  H    0.023148
    89  H    0.009063
    90  H   -0.003894
    91  H    0.006748
    92  H    0.013827
    93  H    0.020227
    94  H    0.021831
    95  H   -0.000187
    96  H    0.029837
    97  H    0.047783
    98  H    0.051217
    99  H    0.041181
   100  H    0.050214
   101  H    0.028493
   102  H    0.018729
   103  H    0.047453
   104  H    0.005867
   105  H    0.006272
   106  H    0.031353
   107  H    0.041564
   108  H   -0.017936
   109  H    0.022074
   110  H    0.003923
   111  H    0.009168
   112  H   -0.017887
   113  H   -0.008275
   114  H   -0.002199
   115  H    0.007117
   116  H    0.011418
   117  H    0.009323
   118  H   -0.017060
   119  H   -0.006656
   120  H   -0.019060
   121  H   -0.020402
   122  H   -0.001193
   123  H   -0.012313
   124  H   -0.002250
   125  H   -0.011753
   126  H   -0.001803
   127  H    0.012122
   128  H   -0.012611
   129  H   -0.002905
   130  H   -0.009973
   131  H    0.000123
   132  H   -0.001706
   133  H    0.008961
   134  H   -0.001046
   135  H    0.009198
   136  H    0.005984
   137  H    0.008736
   138  H   -0.005792
   139  H    0.003739
   140  H   -0.006578
 Sum of Mulliken charges =  -0.00000

 Dipole moment (field-independent basis, Debye):
    X=             -2.3636    Y=              3.5101    Z=             -0.3145  Tot=              4.2434
 Quadrupole moment (field-independent basis, Debye-Ang):
   XX=           -370.2390   YY=           -420.6581   ZZ=           -403.3761
   XY=             -8.0554   XZ=              4.8955   YZ=             -6.1148

 Normal termination of Gaussian 16 at Thu May  5 08:42:20 2022.
