 Gaussian 16, Revision A.03,
 Gaussian 16:  ES64L-G16RevA.03 25-Dec-2016

 ---------------------------------
 #p PBE1PBE/Def2SVP td=(nstates=5)
 ---------------------------------

 ----------------------------------------------------
 step_801_chromophore_1 TDDFT with PBE1PBE functional
 ----------------------------------------------------
 Symbolic Z-matrix:
 Charge =  0 Multiplicity = 1

                         Standard orientation:
 ---------------------------------------------------------------------
 Center     Atomic      Atomic             Coordinates (Angstroms)
 Number     Number       Type             X           Y           Z
 ---------------------------------------------------------------------
      1         12           0        6.081799    0.440525   -0.083468
      2          6           0        4.118360   -2.326277   -0.578405
      3          6           0        3.585294    2.438985   -1.370247
      4          6           0        8.197075    3.080968    0.323307
      5          6           0        8.838244   -1.733178    0.710760
      6          7           0        4.219760    0.079242   -1.049864
      7          6           0        3.528292   -1.066456   -0.968479
      8          6           0        2.086252   -0.919633   -1.496657
      9          6           0        2.104246    0.542383   -2.119172
     10          6           0        3.320485    1.061704   -1.459790
     11          6           0        2.158175    0.560282   -3.629727
     12          6           0        0.943539   -1.182138   -0.425858
     13          6           0       -0.467106   -0.616510   -0.778234
     14          6           0       -1.655822   -1.631533   -0.670227
     15          8           0       -1.884504   -2.579628   -1.391563
     16          8           0       -2.574988   -1.198389    0.207892
     17          7           0        5.866186    2.387644   -0.421834
     18          6           0        4.790580    3.062107   -1.017794
     19          6           0        4.983037    4.501708   -0.949001
     20          6           0        6.288611    4.658765   -0.341298
     21          6           0        6.863182    3.377124   -0.126820
     22          6           0        3.945689    5.458406   -1.437420
     23          6           0        7.039470    5.998243   -0.017853
     24          8           0        8.257527    6.052291    0.282404
     25          6           0        6.319372    7.361079   -0.021428
     26          7           0        8.149756    0.611173    0.387262
     27          6           0        8.793317    1.801032    0.458808
     28          6           0       10.165355    1.610780    1.060550
     29          6           0       10.233718    0.174564    1.471719
     30          6           0        8.973132   -0.383676    0.789452
     31          6           0       11.340385    2.160993    0.149528
     32          6           0       10.368933   -0.233046    2.947463
     33          6           0        9.349697    0.255274    3.856317
     34          7           0        6.500226   -1.611158    0.032417
     35          6           0        7.648518   -2.305323    0.366259
     36          6           0        7.278264   -3.724130    0.340786
     37          6           0        5.878456   -3.775809    0.035404
     38          6           0        5.480474   -2.466313   -0.209710
     39          6           0        8.162310   -4.884481    0.583382
     40          6           0        4.780088   -4.625593   -0.049623
     41          8           0        4.606285   -5.840255    0.053985
     42          6           0        3.667775   -3.781506   -0.675722
     43          6           0        2.293827   -4.211629   -0.099748
     44          8           0        1.942574   -3.906247    1.035164
     45          8           0        1.704815   -5.195692   -0.849222
     46          6           0        0.548034   -5.897308   -0.234672
     47          6           0       -3.833342   -1.885417    0.297716
     48          6           0       -4.901433   -1.040383   -0.333714
     49          6           0       -6.099328   -1.546531   -0.653974
     50          6           0       -6.843354   -2.884392   -0.281678
     51          6           0       -6.981055   -0.549166   -1.438694
     52          6           0       -7.404604    0.789358   -0.673629
     53          6           0       -8.906507    1.130540   -0.898315
     54          6           0       -9.576627    1.796957    0.281750
     55          6           0       -8.796603    3.019207    0.782997
     56          6           0      -10.080196    0.807234    1.408661
     57          6           0      -10.882044    1.556632    2.443567
     58          6           0      -11.825341    0.625490    3.291579
     59          6           0      -13.332681    0.959072    2.975604
     60          6           0      -14.124432    0.644988    4.204132
     61          6           0      -13.810999    0.156971    1.748805
     62          6           0      -14.215014    1.055850    0.546053
     63          6           0      -13.785665    0.457392   -0.797465
     64          6           0      -14.776118    0.938492   -1.855370
     65          6           0      -16.138222    0.242842   -1.689627
     66          6           0      -14.169813    0.672337   -3.253606
     67          1           0        2.876583    3.107544   -1.864594
     68          1           0        8.893379    3.858125    0.645018
     69          1           0        9.676095   -2.309529    1.108558
     70          1           0        1.983800   -1.711567   -2.238203
     71          1           0        1.204573    1.093009   -1.846369
     72          1           0        1.668994    1.377973   -4.159048
     73          1           0        1.548548   -0.233756   -4.059841
     74          1           0        3.193245    0.339989   -3.890977
     75          1           0        1.303180   -0.685983    0.474879
     76          1           0        0.796164   -2.250493   -0.263092
     77          1           0       -0.473719   -0.020441   -1.689927
     78          1           0       -0.750299    0.084572    0.006559
     79          1           0        3.329708    5.160114   -2.286332
     80          1           0        4.340894    6.416796   -1.773774
     81          1           0        3.262258    5.614930   -0.602653
     82          1           0        5.277929    7.171323    0.238832
     83          1           0        6.348319    7.691093   -1.060207
     84          1           0        6.841255    8.058220    0.633602
     85          1           0       10.209408    2.068701    2.048989
     86          1           0       11.076379   -0.347079    1.016799
     87          1           0       11.655450    3.126518    0.546630
     88          1           0       11.088885    2.316327   -0.899514
     89          1           0       12.251436    1.563678    0.108209
     90          1           0       11.211770    0.390789    3.247020
     91          1           0       10.665707   -1.281069    2.962948
     92          1           0        8.487180    0.484868    3.231483
     93          1           0        9.708680    1.172932    4.323174
     94          1           0        9.053030   -0.504925    4.578634
     95          1           0        9.147952   -4.514238    0.867764
     96          1           0        8.283913   -5.275411   -0.426009
     97          1           0        7.780308   -5.743038    1.137436
     98          1           0        3.695283   -4.174982   -1.691413
     99          1           0        0.724478   -6.267660    0.774989
    100          1           0        0.285775   -6.639796   -0.989045
    101          1           0       -0.220278   -5.149435   -0.041967
    102          1           0       -4.066520   -1.856960    1.362909
    103          1           0       -3.900346   -2.914867   -0.055019
    104          1           0       -4.626114   -0.028054   -0.629856
    105          1           0       -6.118027   -3.614903    0.075559
    106          1           0       -7.259323   -3.283093   -1.207493
    107          1           0       -7.610520   -2.670440    0.462737
    108          1           0       -7.934304   -1.059403   -1.571889
    109          1           0       -6.429110   -0.311164   -2.348127
    110          1           0       -6.901146    1.664623   -1.085292
    111          1           0       -7.231491    0.642616    0.392227
    112          1           0       -9.412234    0.206089   -1.177369
    113          1           0       -8.942816    1.740450   -1.800650
    114          1           0      -10.572013    2.029906   -0.097086
    115          1           0       -9.450336    3.886730    0.876345
    116          1           0       -7.964222    3.345325    0.159313
    117          1           0       -8.394276    2.882886    1.786267
    118          1           0       -9.227879    0.414221    1.962986
    119          1           0      -10.589264   -0.113736    1.125398
    120          1           0      -11.263128    2.498464    2.047997
    121          1           0      -10.277893    2.104094    3.167512
    122          1           0      -11.486560    0.654496    4.326639
    123          1           0      -11.665149   -0.402232    2.967354
    124          1           0      -13.423155    2.013789    2.714280
    125          1           0      -15.187276    0.550866    3.981548
    126          1           0      -14.182144    1.481507    4.901083
    127          1           0      -13.781286   -0.258567    4.708974
    128          1           0      -14.727943   -0.342465    2.062044
    129          1           0      -13.110561   -0.620403    1.444938
    130          1           0      -13.655198    1.986954    0.631374
    131          1           0      -15.247321    1.404368    0.515149
    132          1           0      -13.848996   -0.623984   -0.682470
    133          1           0      -12.787193    0.785168   -1.085036
    134          1           0      -14.891764    2.009250   -1.691966
    135          1           0      -16.615777   -0.250034   -2.536599
    136          1           0      -16.875790    0.994447   -1.408724
    137          1           0      -16.114834   -0.520495   -0.911993
    138          1           0      -13.130690    0.345338   -3.297023
    139          1           0      -14.158251    1.460824   -4.006584
    140          1           0      -14.707426   -0.154945   -3.715388
 ---------------------------------------------------------------------

 SCF Done:  E(RPBE1PBE) =  -3005.34159306     A.U. after   15 cycles

 Excitation energies and oscillator strengths:

 Excited State   1:      Singlet-A      1.8041 eV  687.25 nm  f=0.3584  <S**2>=0.000
     245 -> 248       -0.17505
     246 -> 247        0.69421
     246 <- 247       -0.11295
 This state for optimization and/or second-order correction.
 Total Energy, E(TD-HF/TD-DFT) =  -3005.27529466
 Copying the excited state density for this state as the 1-particle RhoCI density.

 Excited State   2:      Singlet-A      2.2074 eV  561.67 nm  f=0.0995  <S**2>=0.000
     245 -> 247        0.64689
     246 -> 248        0.26759

 Excited State   3:      Singlet-A      2.7870 eV  444.86 nm  f=0.0029  <S**2>=0.000
     239 -> 247       -0.10941
     241 -> 247        0.27758
     242 -> 247        0.33703
     243 -> 247        0.50846

 Excited State   4:      Singlet-A      2.8759 eV  431.11 nm  f=0.0005  <S**2>=0.000
     242 -> 247        0.58366
     243 -> 247       -0.38502

 Excited State   5:      Singlet-A      2.9672 eV  417.85 nm  f=0.0012  <S**2>=0.000
     240 -> 247        0.14635
     241 -> 247        0.59466
     242 -> 247       -0.14153
     243 -> 247       -0.23535
     246 -> 248        0.12747

 The electronic state is 1-A.
 Alpha  occ. eigenvalues --  -46.90475 -19.25749 -19.24978 -19.19423 -19.19125
 Alpha  occ. eigenvalues --  -19.19022 -19.18016 -14.42156 -14.41269 -14.39149
 Alpha  occ. eigenvalues --  -14.38591 -10.36254 -10.35723 -10.32847 -10.30790
 Alpha  occ. eigenvalues --  -10.29646 -10.28861 -10.28643 -10.28261 -10.28237
 Alpha  occ. eigenvalues --  -10.28165 -10.27626 -10.27542 -10.27430 -10.26481
 Alpha  occ. eigenvalues --  -10.26454 -10.26341 -10.26103 -10.26080 -10.25888
 Alpha  occ. eigenvalues --  -10.25472 -10.25430 -10.25254 -10.24961 -10.24842
 Alpha  occ. eigenvalues --  -10.24742 -10.24471 -10.24442 -10.24380 -10.24373
 Alpha  occ. eigenvalues --  -10.24091 -10.23957 -10.23657 -10.23611 -10.23571
 Alpha  occ. eigenvalues --  -10.23549 -10.23402 -10.23390 -10.23326 -10.22950
 Alpha  occ. eigenvalues --  -10.22870 -10.22813 -10.22671 -10.22595 -10.22411
 Alpha  occ. eigenvalues --  -10.22303 -10.22281 -10.22146 -10.22032 -10.22032
 Alpha  occ. eigenvalues --  -10.21934 -10.21914 -10.21904 -10.21773 -10.21310
 Alpha  occ. eigenvalues --  -10.21276  -3.12883  -1.85712  -1.85280  -1.85109
 Alpha  occ. eigenvalues --   -1.12486  -1.09687  -1.03351  -1.02862  -1.02666
 Alpha  occ. eigenvalues --   -1.01278  -0.99329  -0.98924  -0.97668  -0.95430
 Alpha  occ. eigenvalues --   -0.87307  -0.84541  -0.84462  -0.83999  -0.83717
 Alpha  occ. eigenvalues --   -0.83091  -0.82727  -0.82150  -0.81893  -0.81150
 Alpha  occ. eigenvalues --   -0.80606  -0.79821  -0.78533  -0.78385  -0.77365
 Alpha  occ. eigenvalues --   -0.76447  -0.75920  -0.75336  -0.75109  -0.74394
 Alpha  occ. eigenvalues --   -0.73830  -0.72899  -0.72471  -0.71680  -0.70333
 Alpha  occ. eigenvalues --   -0.70142  -0.69651  -0.69607  -0.68915  -0.68528
 Alpha  occ. eigenvalues --   -0.67656  -0.66784  -0.66577  -0.64881  -0.64188
 Alpha  occ. eigenvalues --   -0.63233  -0.62898  -0.61345  -0.60994  -0.59891
 Alpha  occ. eigenvalues --   -0.59748  -0.59136  -0.59107  -0.58439  -0.58206
 Alpha  occ. eigenvalues --   -0.57680  -0.57255  -0.56175  -0.55977  -0.54695
 Alpha  occ. eigenvalues --   -0.54526  -0.53789  -0.53659  -0.53519  -0.52296
 Alpha  occ. eigenvalues --   -0.51986  -0.51508  -0.50467  -0.50164  -0.49891
 Alpha  occ. eigenvalues --   -0.49578  -0.49372  -0.49271  -0.48928  -0.48627
 Alpha  occ. eigenvalues --   -0.48506  -0.48144  -0.47634  -0.47561  -0.47278
 Alpha  occ. eigenvalues --   -0.46969  -0.46503  -0.46461  -0.46337  -0.46154
 Alpha  occ. eigenvalues --   -0.45981  -0.45805  -0.45565  -0.45443  -0.45343
 Alpha  occ. eigenvalues --   -0.44685  -0.44646  -0.44574  -0.44344  -0.44082
 Alpha  occ. eigenvalues --   -0.44023  -0.43789  -0.43610  -0.43402  -0.43238
 Alpha  occ. eigenvalues --   -0.43125  -0.43066  -0.42794  -0.42655  -0.42342
 Alpha  occ. eigenvalues --   -0.41871  -0.41705  -0.41554  -0.41301  -0.41223
 Alpha  occ. eigenvalues --   -0.41103  -0.41010  -0.40819  -0.40451  -0.40378
 Alpha  occ. eigenvalues --   -0.40283  -0.39969  -0.39717  -0.39580  -0.39527
 Alpha  occ. eigenvalues --   -0.39451  -0.39242  -0.39059  -0.38932  -0.38643
 Alpha  occ. eigenvalues --   -0.38322  -0.38222  -0.38158  -0.38064  -0.37807
 Alpha  occ. eigenvalues --   -0.37466  -0.37274  -0.37094  -0.36788  -0.36689
 Alpha  occ. eigenvalues --   -0.36591  -0.36451  -0.36244  -0.36165  -0.35910
 Alpha  occ. eigenvalues --   -0.35788  -0.35718  -0.35479  -0.35285  -0.34934
 Alpha  occ. eigenvalues --   -0.34647  -0.34491  -0.34275  -0.34219  -0.33577
 Alpha  occ. eigenvalues --   -0.33345  -0.32978  -0.32933  -0.32583  -0.32562
 Alpha  occ. eigenvalues --   -0.32188  -0.31788  -0.31706  -0.31385  -0.30606
 Alpha  occ. eigenvalues --   -0.30442  -0.29966  -0.29716  -0.29559  -0.29036
 Alpha  occ. eigenvalues --   -0.28539  -0.28279  -0.27951  -0.26391  -0.25546
 Alpha  occ. eigenvalues --   -0.25296  -0.24944  -0.24793  -0.24619  -0.21116
 Alpha  occ. eigenvalues --   -0.18788
 Alpha virt. eigenvalues --   -0.11396  -0.05436  -0.03953  -0.02202   0.00173
 Alpha virt. eigenvalues --    0.00396   0.00633   0.00951   0.01213   0.02954
 Alpha virt. eigenvalues --    0.04298   0.04446   0.04692   0.05236   0.05594

 Mulliken charges:
               1
     1  Mg   0.999019
     2  C    0.040860
     3  C   -0.060453
     4  C   -0.045635
     5  C   -0.098140
     6  N   -0.397145
     7  C    0.072157
     8  C   -0.135190
     9  C   -0.120820
    10  C    0.081624
    11  C    0.041842
    12  C    0.008827
    13  C   -0.036478
    14  C    0.207678
    15  O   -0.266871
    16  O   -0.338198
    17  N   -0.567886
    18  C    0.167223
    19  C   -0.163073
    20  C   -0.085079
    21  C    0.182690
    22  C    0.032386
    23  C    0.066388
    24  O   -0.273483
    25  C   -0.017910
    26  N   -0.377932
    27  C    0.081775
    28  C   -0.092910
    29  C   -0.132716
    30  C    0.053460
    31  C    0.010676
    32  C   -0.023555
    33  C   -0.046544
    34  N   -0.491623
    35  C    0.197246
    36  C   -0.190986
    37  C   -0.009900
    38  C    0.127130
    39  C    0.088096
    40  C    0.109724
    41  O   -0.236891
    42  C   -0.148582
    43  C    0.282475
    44  O   -0.282182
    45  O   -0.361039
    46  C    0.135152
    47  C    0.248556
    48  C   -0.145367
    49  C   -0.229854
    50  C    0.017170
    51  C    0.004258
    52  C   -0.068905
    53  C   -0.017351
    54  C   -0.200864
    55  C   -0.006450
    56  C   -0.007958
    57  C   -0.059938
    58  C    0.010333
    59  C   -0.211789
    60  C    0.003589
    61  C    0.032150
    62  C   -0.069815
    63  C   -0.033501
    64  C   -0.239571
    65  C   -0.018341
    66  C   -0.005932
    67  H   -0.004326
    68  H    0.039261
    69  H    0.009759
    70  H    0.051064
    71  H    0.037823
    72  H    0.041033
    73  H    0.032711
    74  H    0.052241
    75  H    0.046164
    76  H    0.097665
    77  H    0.069334
    78  H    0.053101
    79  H    0.054029
    80  H    0.044213
    81  H    0.065352
    82  H    0.047654
    83  H    0.070610
    84  H    0.069450
    85  H    0.039659
    86  H    0.024832
    87  H    0.049079
    88  H    0.050320
    89  H    0.036174
    90  H    0.032334
    91  H    0.037805
    92  H    0.047686
    93  H    0.046191
    94  H    0.050552
    95  H    0.027983
    96  H    0.058527
    97  H    0.072942
    98  H    0.089177
    99  H    0.062908
   100  H    0.071441
   101  H    0.051298
   102  H    0.048189
   103  H    0.072399
   104  H    0.035080
   105  H    0.034137
   106  H    0.058562
   107  H    0.068915
   108  H    0.015405
   109  H    0.055155
   110  H    0.036131
   111  H    0.043116
   112  H    0.014427
   113  H    0.025294
   114  H    0.041545
   115  H    0.034740
   116  H    0.039012
   117  H    0.036475
   118  H    0.017181
   119  H    0.024437
   120  H    0.010523
   121  H    0.012010
   122  H    0.030324
   123  H    0.020525
   124  H    0.035124
   125  H    0.016834
   126  H    0.027113
   127  H    0.039317
   128  H    0.021402
   129  H    0.026822
   130  H    0.024504
   131  H    0.031861
   132  H    0.031612
   133  H    0.045271
   134  H    0.037003
   135  H    0.036013
   136  H    0.033195
   137  H    0.036037
   138  H    0.020494
   139  H    0.031181
   140  H    0.020965
 Sum of Mulliken charges =  -0.00000

 Dipole moment (field-independent basis, Debye):
    X=             -2.4256    Y=              3.7079    Z=             -0.3030  Tot=              4.4411
 Quadrupole moment (field-independent basis, Debye-Ang):
   XX=           -364.8379   YY=           -417.6986   ZZ=           -400.5478
   XY=             -7.0610   XZ=              5.4632   YZ=             -6.2943

 Normal termination of Gaussian 16 at Thu May  5 08:59:00 2022.
