 Gaussian 16, Revision A.03,
 Gaussian 16:  ES64L-G16RevA.03 25-Dec-2016

 --------------------------------
 #p wB97XD/Def2SVP td=(nstates=5)
 --------------------------------

 ---------------------------------------------------
 step_801_chromophore_1 TDDFT with wB97XD functional
 ---------------------------------------------------
 Symbolic Z-matrix:
 Charge =  0 Multiplicity = 1

                         Standard orientation:
 ---------------------------------------------------------------------
 Center     Atomic      Atomic             Coordinates (Angstroms)
 Number     Number       Type             X           Y           Z
 ---------------------------------------------------------------------
      1         12           0        6.081799    0.440525   -0.083468
      2          6           0        4.118360   -2.326277   -0.578405
      3          6           0        3.585294    2.438985   -1.370247
      4          6           0        8.197075    3.080968    0.323307
      5          6           0        8.838244   -1.733178    0.710760
      6          7           0        4.219760    0.079242   -1.049864
      7          6           0        3.528292   -1.066456   -0.968479
      8          6           0        2.086252   -0.919633   -1.496657
      9          6           0        2.104246    0.542383   -2.119172
     10          6           0        3.320485    1.061704   -1.459790
     11          6           0        2.158175    0.560282   -3.629727
     12          6           0        0.943539   -1.182138   -0.425858
     13          6           0       -0.467106   -0.616510   -0.778234
     14          6           0       -1.655822   -1.631533   -0.670227
     15          8           0       -1.884504   -2.579628   -1.391563
     16          8           0       -2.574988   -1.198389    0.207892
     17          7           0        5.866186    2.387644   -0.421834
     18          6           0        4.790580    3.062107   -1.017794
     19          6           0        4.983037    4.501708   -0.949001
     20          6           0        6.288611    4.658765   -0.341298
     21          6           0        6.863182    3.377124   -0.126820
     22          6           0        3.945689    5.458406   -1.437420
     23          6           0        7.039470    5.998243   -0.017853
     24          8           0        8.257527    6.052291    0.282404
     25          6           0        6.319372    7.361079   -0.021428
     26          7           0        8.149756    0.611173    0.387262
     27          6           0        8.793317    1.801032    0.458808
     28          6           0       10.165355    1.610780    1.060550
     29          6           0       10.233718    0.174564    1.471719
     30          6           0        8.973132   -0.383676    0.789452
     31          6           0       11.340385    2.160993    0.149528
     32          6           0       10.368933   -0.233046    2.947463
     33          6           0        9.349697    0.255274    3.856317
     34          7           0        6.500226   -1.611158    0.032417
     35          6           0        7.648518   -2.305323    0.366259
     36          6           0        7.278264   -3.724130    0.340786
     37          6           0        5.878456   -3.775809    0.035404
     38          6           0        5.480474   -2.466313   -0.209710
     39          6           0        8.162310   -4.884481    0.583382
     40          6           0        4.780088   -4.625593   -0.049623
     41          8           0        4.606285   -5.840255    0.053985
     42          6           0        3.667775   -3.781506   -0.675722
     43          6           0        2.293827   -4.211629   -0.099748
     44          8           0        1.942574   -3.906247    1.035164
     45          8           0        1.704815   -5.195692   -0.849222
     46          6           0        0.548034   -5.897308   -0.234672
     47          6           0       -3.833342   -1.885417    0.297716
     48          6           0       -4.901433   -1.040383   -0.333714
     49          6           0       -6.099328   -1.546531   -0.653974
     50          6           0       -6.843354   -2.884392   -0.281678
     51          6           0       -6.981055   -0.549166   -1.438694
     52          6           0       -7.404604    0.789358   -0.673629
     53          6           0       -8.906507    1.130540   -0.898315
     54          6           0       -9.576627    1.796957    0.281750
     55          6           0       -8.796603    3.019207    0.782997
     56          6           0      -10.080196    0.807234    1.408661
     57          6           0      -10.882044    1.556632    2.443567
     58          6           0      -11.825341    0.625490    3.291579
     59          6           0      -13.332681    0.959072    2.975604
     60          6           0      -14.124432    0.644988    4.204132
     61          6           0      -13.810999    0.156971    1.748805
     62          6           0      -14.215014    1.055850    0.546053
     63          6           0      -13.785665    0.457392   -0.797465
     64          6           0      -14.776118    0.938492   -1.855370
     65          6           0      -16.138222    0.242842   -1.689627
     66          6           0      -14.169813    0.672337   -3.253606
     67          1           0        2.876583    3.107544   -1.864594
     68          1           0        8.893379    3.858125    0.645018
     69          1           0        9.676095   -2.309529    1.108558
     70          1           0        1.983800   -1.711567   -2.238203
     71          1           0        1.204573    1.093009   -1.846369
     72          1           0        1.668994    1.377973   -4.159048
     73          1           0        1.548548   -0.233756   -4.059841
     74          1           0        3.193245    0.339989   -3.890977
     75          1           0        1.303180   -0.685983    0.474879
     76          1           0        0.796164   -2.250493   -0.263092
     77          1           0       -0.473719   -0.020441   -1.689927
     78          1           0       -0.750299    0.084572    0.006559
     79          1           0        3.329708    5.160114   -2.286332
     80          1           0        4.340894    6.416796   -1.773774
     81          1           0        3.262258    5.614930   -0.602653
     82          1           0        5.277929    7.171323    0.238832
     83          1           0        6.348319    7.691093   -1.060207
     84          1           0        6.841255    8.058220    0.633602
     85          1           0       10.209408    2.068701    2.048989
     86          1           0       11.076379   -0.347079    1.016799
     87          1           0       11.655450    3.126518    0.546630
     88          1           0       11.088885    2.316327   -0.899514
     89          1           0       12.251436    1.563678    0.108209
     90          1           0       11.211770    0.390789    3.247020
     91          1           0       10.665707   -1.281069    2.962948
     92          1           0        8.487180    0.484868    3.231483
     93          1           0        9.708680    1.172932    4.323174
     94          1           0        9.053030   -0.504925    4.578634
     95          1           0        9.147952   -4.514238    0.867764
     96          1           0        8.283913   -5.275411   -0.426009
     97          1           0        7.780308   -5.743038    1.137436
     98          1           0        3.695283   -4.174982   -1.691413
     99          1           0        0.724478   -6.267660    0.774989
    100          1           0        0.285775   -6.639796   -0.989045
    101          1           0       -0.220278   -5.149435   -0.041967
    102          1           0       -4.066520   -1.856960    1.362909
    103          1           0       -3.900346   -2.914867   -0.055019
    104          1           0       -4.626114   -0.028054   -0.629856
    105          1           0       -6.118027   -3.614903    0.075559
    106          1           0       -7.259323   -3.283093   -1.207493
    107          1           0       -7.610520   -2.670440    0.462737
    108          1           0       -7.934304   -1.059403   -1.571889
    109          1           0       -6.429110   -0.311164   -2.348127
    110          1           0       -6.901146    1.664623   -1.085292
    111          1           0       -7.231491    0.642616    0.392227
    112          1           0       -9.412234    0.206089   -1.177369
    113          1           0       -8.942816    1.740450   -1.800650
    114          1           0      -10.572013    2.029906   -0.097086
    115          1           0       -9.450336    3.886730    0.876345
    116          1           0       -7.964222    3.345325    0.159313
    117          1           0       -8.394276    2.882886    1.786267
    118          1           0       -9.227879    0.414221    1.962986
    119          1           0      -10.589264   -0.113736    1.125398
    120          1           0      -11.263128    2.498464    2.047997
    121          1           0      -10.277893    2.104094    3.167512
    122          1           0      -11.486560    0.654496    4.326639
    123          1           0      -11.665149   -0.402232    2.967354
    124          1           0      -13.423155    2.013789    2.714280
    125          1           0      -15.187276    0.550866    3.981548
    126          1           0      -14.182144    1.481507    4.901083
    127          1           0      -13.781286   -0.258567    4.708974
    128          1           0      -14.727943   -0.342465    2.062044
    129          1           0      -13.110561   -0.620403    1.444938
    130          1           0      -13.655198    1.986954    0.631374
    131          1           0      -15.247321    1.404368    0.515149
    132          1           0      -13.848996   -0.623984   -0.682470
    133          1           0      -12.787193    0.785168   -1.085036
    134          1           0      -14.891764    2.009250   -1.691966
    135          1           0      -16.615777   -0.250034   -2.536599
    136          1           0      -16.875790    0.994447   -1.408724
    137          1           0      -16.114834   -0.520495   -0.911993
    138          1           0      -13.130690    0.345338   -3.297023
    139          1           0      -14.158251    1.460824   -4.006584
    140          1           0      -14.707426   -0.154945   -3.715388
 ---------------------------------------------------------------------

 SCF Done:  E(RwB97XD) =  -3007.85053563     A.U. after   19 cycles

 Excitation energies and oscillator strengths:

 Excited State   1:      Singlet-A      1.5850 eV  782.22 nm  f=0.3690  <S**2>=0.000
     245 -> 248       -0.18643
     246 -> 247        0.68431
     245 <- 248       -0.12141
 This state for optimization and/or second-order correction.
 Total Energy, E(TD-HF/TD-DFT) =  -3007.79228682
 Copying the excited state density for this state as the 1-particle RhoCI density.

 Excited State   2:      Singlet-A      2.1490 eV  576.93 nm  f=0.1022  <S**2>=0.000
     245 -> 247        0.63359
     246 -> 248        0.29703

 Excited State   3:      Singlet-A      3.1958 eV  387.96 nm  f=0.0006  <S**2>=0.000
     241 -> 247       -0.10031
     242 -> 247        0.15152
     243 -> 247        0.65779

 Excited State   4:      Singlet-A      3.3092 eV  374.67 nm  f=0.0196  <S**2>=0.000
     239 -> 247        0.17440
     239 -> 249       -0.11688
     240 -> 247        0.17670
     240 -> 249       -0.10370
     241 -> 247        0.30351
     241 -> 249       -0.19038
     241 -> 250        0.13446
     242 -> 247        0.46500

 Excited State   5:      Singlet-A      3.3765 eV  367.19 nm  f=0.0982  <S**2>=0.000
     241 -> 247       -0.34524
     242 -> 247        0.38897
     243 -> 247       -0.15933
     245 -> 247        0.10103
     246 -> 248       -0.37043

 The electronic state is 1-A.
 Alpha  occ. eigenvalues --  -46.93424 -19.30295 -19.29590 -19.24107 -19.23892
 Alpha  occ. eigenvalues --  -19.23717 -19.22960 -14.47239 -14.46393 -14.44002
 Alpha  occ. eigenvalues --  -14.43586 -10.43036 -10.42609 -10.39553 -10.37807
 Alpha  occ. eigenvalues --  -10.36094 -10.35328 -10.34842 -10.34714 -10.34451
 Alpha  occ. eigenvalues --  -10.34424 -10.34053 -10.33987 -10.33588 -10.33084
 Alpha  occ. eigenvalues --  -10.33001 -10.32698 -10.32439 -10.32387 -10.32119
 Alpha  occ. eigenvalues --  -10.31983 -10.31687 -10.31654 -10.31229 -10.31164
 Alpha  occ. eigenvalues --  -10.31152 -10.30819 -10.30815 -10.30749 -10.30740
 Alpha  occ. eigenvalues --  -10.30492 -10.30326 -10.30152 -10.30123 -10.30018
 Alpha  occ. eigenvalues --  -10.29850 -10.29722 -10.29667 -10.29663 -10.29299
 Alpha  occ. eigenvalues --  -10.29178 -10.29148 -10.29039 -10.28934 -10.28787
 Alpha  occ. eigenvalues --  -10.28747 -10.28710 -10.28646 -10.28399 -10.28398
 Alpha  occ. eigenvalues --  -10.28307 -10.28277 -10.28272 -10.28194 -10.27728
 Alpha  occ. eigenvalues --  -10.27718  -3.19656  -1.93241  -1.92811  -1.92635
 Alpha  occ. eigenvalues --   -1.19845  -1.17144  -1.10974  -1.10259  -1.10004
 Alpha  occ. eigenvalues --   -1.08704  -1.06762  -1.06332  -1.05146  -1.02705
 Alpha  occ. eigenvalues --   -0.95026  -0.92133  -0.92118  -0.91652  -0.91333
 Alpha  occ. eigenvalues --   -0.90739  -0.90330  -0.89770  -0.89541  -0.88852
 Alpha  occ. eigenvalues --   -0.88246  -0.87446  -0.86136  -0.86031  -0.84987
 Alpha  occ. eigenvalues --   -0.84078  -0.83602  -0.83004  -0.82828  -0.82043
 Alpha  occ. eigenvalues --   -0.81502  -0.80503  -0.80132  -0.79280  -0.77994
 Alpha  occ. eigenvalues --   -0.77808  -0.77346  -0.77187  -0.76585  -0.76189
 Alpha  occ. eigenvalues --   -0.75263  -0.74373  -0.74131  -0.72478  -0.71763
 Alpha  occ. eigenvalues --   -0.70846  -0.70509  -0.68980  -0.68522  -0.67528
 Alpha  occ. eigenvalues --   -0.67247  -0.66591  -0.66543  -0.66130  -0.65701
 Alpha  occ. eigenvalues --   -0.65161  -0.64889  -0.63632  -0.63572  -0.62087
 Alpha  occ. eigenvalues --   -0.62009  -0.61274  -0.61078  -0.60920  -0.59793
 Alpha  occ. eigenvalues --   -0.59407  -0.59076  -0.57859  -0.57627  -0.57334
 Alpha  occ. eigenvalues --   -0.57068  -0.56809  -0.56689  -0.56336  -0.56123
 Alpha  occ. eigenvalues --   -0.55936  -0.55562  -0.55056  -0.54964  -0.54684
 Alpha  occ. eigenvalues --   -0.54317  -0.53883  -0.53792  -0.53718  -0.53466
 Alpha  occ. eigenvalues --   -0.53315  -0.53198  -0.53099  -0.52807  -0.52682
 Alpha  occ. eigenvalues --   -0.52013  -0.51975  -0.51902  -0.51683  -0.51390
 Alpha  occ. eigenvalues --   -0.51295  -0.51195  -0.50922  -0.50653  -0.50504
 Alpha  occ. eigenvalues --   -0.50410  -0.50327  -0.50094  -0.49940  -0.49587
 Alpha  occ. eigenvalues --   -0.49180  -0.48972  -0.48808  -0.48534  -0.48390
 Alpha  occ. eigenvalues --   -0.48344  -0.48252  -0.47951  -0.47654  -0.47602
 Alpha  occ. eigenvalues --   -0.47515  -0.47193  -0.46909  -0.46789  -0.46739
 Alpha  occ. eigenvalues --   -0.46651  -0.46408  -0.46188  -0.46040  -0.45732
 Alpha  occ. eigenvalues --   -0.45472  -0.45322  -0.45260  -0.45187  -0.44943
 Alpha  occ. eigenvalues --   -0.44661  -0.44429  -0.44240  -0.43940  -0.43848
 Alpha  occ. eigenvalues --   -0.43715  -0.43583  -0.43409  -0.43326  -0.42959
 Alpha  occ. eigenvalues --   -0.42911  -0.42805  -0.42523  -0.42324  -0.42024
 Alpha  occ. eigenvalues --   -0.41642  -0.41554  -0.41377  -0.41198  -0.40647
 Alpha  occ. eigenvalues --   -0.40295  -0.40050  -0.39939  -0.39647  -0.39473
 Alpha  occ. eigenvalues --   -0.39284  -0.38832  -0.38596  -0.38374  -0.37580
 Alpha  occ. eigenvalues --   -0.37548  -0.36835  -0.36619  -0.36314  -0.35818
 Alpha  occ. eigenvalues --   -0.35511  -0.35408  -0.35104  -0.33088  -0.32457
 Alpha  occ. eigenvalues --   -0.32232  -0.31666  -0.31465  -0.31375  -0.26131
 Alpha  occ. eigenvalues --   -0.22969
 Alpha virt. eigenvalues --   -0.07338  -0.00033   0.02337   0.04297   0.06081
 Alpha virt. eigenvalues --    0.07081   0.07432   0.07721   0.07983   0.09578
 Alpha virt. eigenvalues --    0.10554   0.11273   0.11326   0.11999   0.12294

 Mulliken charges:
               1
     1  Mg   0.984334
     2  C    0.022547
     3  C   -0.075228
     4  C   -0.061423
     5  C   -0.121711
     6  N   -0.365232
     7  C    0.045757
     8  C   -0.113769
     9  C   -0.088678
    10  C    0.069142
    11  C    0.047208
    12  C    0.027789
    13  C   -0.020400
    14  C    0.195850
    15  O   -0.263939
    16  O   -0.336236
    17  N   -0.539984
    18  C    0.158262
    19  C   -0.153516
    20  C   -0.078397
    21  C    0.176688
    22  C    0.043025
    23  C    0.059032
    24  O   -0.269589
    25  C   -0.004670
    26  N   -0.340012
    27  C    0.065094
    28  C   -0.062485
    29  C   -0.106721
    30  C    0.040764
    31  C    0.019458
    32  C   -0.007271
    33  C   -0.029807
    34  N   -0.453133
    35  C    0.192402
    36  C   -0.184653
    37  C   -0.010324
    38  C    0.117681
    39  C    0.097042
    40  C    0.095770
    41  O   -0.226631
    42  C   -0.103826
    43  C    0.259348
    44  O   -0.276195
    45  O   -0.359754
    46  C    0.149421
    47  C    0.260909
    48  C   -0.152488
    49  C   -0.223697
    50  C    0.035856
    51  C    0.027208
    52  C   -0.052534
    53  C   -0.000264
    54  C   -0.158821
    55  C    0.002069
    56  C    0.006219
    57  C   -0.046890
    58  C    0.028095
    59  C   -0.178466
    60  C    0.015815
    61  C    0.043225
    62  C   -0.050948
    63  C   -0.011367
    64  C   -0.205205
    65  C   -0.010381
    66  C    0.004756
    67  H   -0.011625
    68  H    0.035638
    69  H    0.004611
    70  H    0.040449
    71  H    0.026758
    72  H    0.036970
    73  H    0.026001
    74  H    0.046154
    75  H    0.039563
    76  H    0.080029
    77  H    0.062663
    78  H    0.047530
    79  H    0.049765
    80  H    0.037605
    81  H    0.059903
    82  H    0.041004
    83  H    0.065810
    84  H    0.068215
    85  H    0.025909
    86  H    0.013556
    87  H    0.043599
    88  H    0.044930
    89  H    0.030582
    90  H    0.022188
    91  H    0.031214
    92  H    0.033978
    93  H    0.042005
    94  H    0.046280
    95  H    0.022821
    96  H    0.053603
    97  H    0.071577
    98  H    0.081456
    99  H    0.059246
   100  H    0.069336
   101  H    0.047822
   102  H    0.043139
   103  H    0.067400
   104  H    0.032532
   105  H    0.028159
   106  H    0.052872
   107  H    0.063106
   108  H    0.002999
   109  H    0.048056
   110  H    0.027268
   111  H    0.029680
   112  H    0.003380
   113  H    0.018092
   114  H    0.023273
   115  H    0.029831
   116  H    0.033158
   117  H    0.029647
   118  H    0.006479
   119  H    0.013124
   120  H   -0.001363
   121  H    0.003736
   122  H    0.024185
   123  H    0.008765
   124  H    0.022069
   125  H    0.009939
   126  H    0.021702
   127  H    0.033312
   128  H    0.011906
   129  H    0.015992
   130  H    0.011031
   131  H    0.023093
   132  H    0.020001
   133  H    0.032679
   134  H    0.025876
   135  H    0.031025
   136  H    0.027524
   137  H    0.028523
   138  H    0.014569
   139  H    0.026279
   140  H    0.013692
 Sum of Mulliken charges =  -0.00000

 Dipole moment (field-independent basis, Debye):
    X=             -2.4076    Y=              3.4395    Z=             -0.2475  Tot=              4.2057
 Quadrupole moment (field-independent basis, Debye-Ang):
   XX=           -365.3378   YY=           -416.1835   ZZ=           -400.2894
   XY=             -8.6944   XZ=              5.5602   YZ=             -6.3468

 Normal termination of Gaussian 16 at Thu May  5 09:23:33 2022.
