 Gaussian 16, Revision A.03,
 Gaussian 16:  ES64L-G16RevA.03 25-Dec-2016

 --------------------
 #p ZINDO=(nstates=5)
 --------------------

 ----------------------------
 step_801_chromophore_1 ZINDO
 ----------------------------
 Symbolic Z-matrix:
 Charge =  0 Multiplicity = 1

                         Standard orientation:
 ---------------------------------------------------------------------
 Center     Atomic      Atomic             Coordinates (Angstroms)
 Number     Number       Type             X           Y           Z
 ---------------------------------------------------------------------
      1         12           0        6.081799    0.440525   -0.083468
      2          6           0        4.118360   -2.326277   -0.578405
      3          6           0        3.585294    2.438985   -1.370247
      4          6           0        8.197075    3.080968    0.323307
      5          6           0        8.838244   -1.733178    0.710760
      6          7           0        4.219760    0.079242   -1.049864
      7          6           0        3.528292   -1.066456   -0.968479
      8          6           0        2.086252   -0.919633   -1.496657
      9          6           0        2.104246    0.542383   -2.119172
     10          6           0        3.320485    1.061704   -1.459790
     11          6           0        2.158175    0.560282   -3.629727
     12          6           0        0.943539   -1.182138   -0.425858
     13          6           0       -0.467106   -0.616510   -0.778234
     14          6           0       -1.655822   -1.631533   -0.670227
     15          8           0       -1.884504   -2.579628   -1.391563
     16          8           0       -2.574988   -1.198389    0.207892
     17          7           0        5.866186    2.387644   -0.421834
     18          6           0        4.790580    3.062107   -1.017794
     19          6           0        4.983037    4.501708   -0.949001
     20          6           0        6.288611    4.658765   -0.341298
     21          6           0        6.863182    3.377124   -0.126820
     22          6           0        3.945689    5.458406   -1.437420
     23          6           0        7.039470    5.998243   -0.017853
     24          8           0        8.257527    6.052291    0.282404
     25          6           0        6.319372    7.361079   -0.021428
     26          7           0        8.149756    0.611173    0.387262
     27          6           0        8.793317    1.801032    0.458808
     28          6           0       10.165355    1.610780    1.060550
     29          6           0       10.233718    0.174564    1.471719
     30          6           0        8.973132   -0.383676    0.789452
     31          6           0       11.340385    2.160993    0.149528
     32          6           0       10.368933   -0.233046    2.947463
     33          6           0        9.349697    0.255274    3.856317
     34          7           0        6.500226   -1.611158    0.032417
     35          6           0        7.648518   -2.305323    0.366259
     36          6           0        7.278264   -3.724130    0.340786
     37          6           0        5.878456   -3.775809    0.035404
     38          6           0        5.480474   -2.466313   -0.209710
     39          6           0        8.162310   -4.884481    0.583382
     40          6           0        4.780088   -4.625593   -0.049623
     41          8           0        4.606285   -5.840255    0.053985
     42          6           0        3.667775   -3.781506   -0.675722
     43          6           0        2.293827   -4.211629   -0.099748
     44          8           0        1.942574   -3.906247    1.035164
     45          8           0        1.704815   -5.195692   -0.849222
     46          6           0        0.548034   -5.897308   -0.234672
     47          6           0       -3.833342   -1.885417    0.297716
     48          6           0       -4.901433   -1.040383   -0.333714
     49          6           0       -6.099328   -1.546531   -0.653974
     50          6           0       -6.843354   -2.884392   -0.281678
     51          6           0       -6.981055   -0.549166   -1.438694
     52          6           0       -7.404604    0.789358   -0.673629
     53          6           0       -8.906507    1.130540   -0.898315
     54          6           0       -9.576627    1.796957    0.281750
     55          6           0       -8.796603    3.019207    0.782997
     56          6           0      -10.080196    0.807234    1.408661
     57          6           0      -10.882044    1.556632    2.443567
     58          6           0      -11.825341    0.625490    3.291579
     59          6           0      -13.332681    0.959072    2.975604
     60          6           0      -14.124432    0.644988    4.204132
     61          6           0      -13.810999    0.156971    1.748805
     62          6           0      -14.215014    1.055850    0.546053
     63          6           0      -13.785665    0.457392   -0.797465
     64          6           0      -14.776118    0.938492   -1.855370
     65          6           0      -16.138222    0.242842   -1.689627
     66          6           0      -14.169813    0.672337   -3.253606
     67          1           0        2.876583    3.107544   -1.864594
     68          1           0        8.893379    3.858125    0.645018
     69          1           0        9.676095   -2.309529    1.108558
     70          1           0        1.983800   -1.711567   -2.238203
     71          1           0        1.204573    1.093009   -1.846369
     72          1           0        1.668994    1.377973   -4.159048
     73          1           0        1.548548   -0.233756   -4.059841
     74          1           0        3.193245    0.339989   -3.890977
     75          1           0        1.303180   -0.685983    0.474879
     76          1           0        0.796164   -2.250493   -0.263092
     77          1           0       -0.473719   -0.020441   -1.689927
     78          1           0       -0.750299    0.084572    0.006559
     79          1           0        3.329708    5.160114   -2.286332
     80          1           0        4.340894    6.416796   -1.773774
     81          1           0        3.262258    5.614930   -0.602653
     82          1           0        5.277929    7.171323    0.238832
     83          1           0        6.348319    7.691093   -1.060207
     84          1           0        6.841255    8.058220    0.633602
     85          1           0       10.209408    2.068701    2.048989
     86          1           0       11.076379   -0.347079    1.016799
     87          1           0       11.655450    3.126518    0.546630
     88          1           0       11.088885    2.316327   -0.899514
     89          1           0       12.251436    1.563678    0.108209
     90          1           0       11.211770    0.390789    3.247020
     91          1           0       10.665707   -1.281069    2.962948
     92          1           0        8.487180    0.484868    3.231483
     93          1           0        9.708680    1.172932    4.323174
     94          1           0        9.053030   -0.504925    4.578634
     95          1           0        9.147952   -4.514238    0.867764
     96          1           0        8.283913   -5.275411   -0.426009
     97          1           0        7.780308   -5.743038    1.137436
     98          1           0        3.695283   -4.174982   -1.691413
     99          1           0        0.724478   -6.267660    0.774989
    100          1           0        0.285775   -6.639796   -0.989045
    101          1           0       -0.220278   -5.149435   -0.041967
    102          1           0       -4.066520   -1.856960    1.362909
    103          1           0       -3.900346   -2.914867   -0.055019
    104          1           0       -4.626114   -0.028054   -0.629856
    105          1           0       -6.118027   -3.614903    0.075559
    106          1           0       -7.259323   -3.283093   -1.207493
    107          1           0       -7.610520   -2.670440    0.462737
    108          1           0       -7.934304   -1.059403   -1.571889
    109          1           0       -6.429110   -0.311164   -2.348127
    110          1           0       -6.901146    1.664623   -1.085292
    111          1           0       -7.231491    0.642616    0.392227
    112          1           0       -9.412234    0.206089   -1.177369
    113          1           0       -8.942816    1.740450   -1.800650
    114          1           0      -10.572013    2.029906   -0.097086
    115          1           0       -9.450336    3.886730    0.876345
    116          1           0       -7.964222    3.345325    0.159313
    117          1           0       -8.394276    2.882886    1.786267
    118          1           0       -9.227879    0.414221    1.962986
    119          1           0      -10.589264   -0.113736    1.125398
    120          1           0      -11.263128    2.498464    2.047997
    121          1           0      -10.277893    2.104094    3.167512
    122          1           0      -11.486560    0.654496    4.326639
    123          1           0      -11.665149   -0.402232    2.967354
    124          1           0      -13.423155    2.013789    2.714280
    125          1           0      -15.187276    0.550866    3.981548
    126          1           0      -14.182144    1.481507    4.901083
    127          1           0      -13.781286   -0.258567    4.708974
    128          1           0      -14.727943   -0.342465    2.062044
    129          1           0      -13.110561   -0.620403    1.444938
    130          1           0      -13.655198    1.986954    0.631374
    131          1           0      -15.247321    1.404368    0.515149
    132          1           0      -13.848996   -0.623984   -0.682470
    133          1           0      -12.787193    0.785168   -1.085036
    134          1           0      -14.891764    2.009250   -1.691966
    135          1           0      -16.615777   -0.250034   -2.536599
    136          1           0      -16.875790    0.994447   -1.408724
    137          1           0      -16.114834   -0.520495   -0.911993
    138          1           0      -13.130690    0.345338   -3.297023
    139          1           0      -14.158251    1.460824   -4.006584
    140          1           0      -14.707426   -0.154945   -3.715388
 ---------------------------------------------------------------------

 SCF Done:  E(RZINDO/S) =  -474.443867587     A.U. after   20 cycles

 Excitation energies and oscillator strengths:

 Excited State   1:      Singlet-A      1.2226 eV 1014.13 nm  f=0.5758  <S**2>=0.000
     175 ->178         0.19185
     176 ->177         0.66288
 This state for optimization and/or second-order correction.
 Total Energy, E(CIS/TDA) =  -474.398939164
 Copying the excited state density for this state as the 1-particle RhoCI density.

 Excited State   2:      Singlet-A      1.9161 eV  647.06 nm  f=0.0371  <S**2>=0.000
     175 ->177         0.53952
     176 ->178        -0.43185

 Excited State   3:      Singlet-A      2.8058 eV  441.88 nm  f=0.0243  <S**2>=0.000
     169 ->177         0.35614
     169 ->178        -0.11654
     169 ->179        -0.37321
     169 ->180         0.22029
     169 ->185        -0.16609
     169 ->196         0.10320
     171 ->177        -0.14546
     174 ->177        -0.12897

 Excited State   4:      Singlet-A      2.9694 eV  417.54 nm  f=0.7977  <S**2>=0.000
     171 ->177        -0.25671
     172 ->177         0.12672
     175 ->177         0.32949
     176 ->178         0.46535
     176 ->179         0.22878

 Excited State   5:      Singlet-A      2.9857 eV  415.26 nm  f=0.0023  <S**2>=0.000
     170 ->177         0.22422
     170 ->178        -0.10249
     170 ->179         0.29003
     170 ->180         0.40828
     170 ->185         0.23463
     170 ->187         0.16057
     172 ->177         0.11829
     176 ->179         0.12347

 The electronic state is 1-A.
 Alpha  occ. eigenvalues --   -1.85991  -1.83216  -1.79761  -1.75061  -1.71661
 Alpha  occ. eigenvalues --   -1.70429  -1.66597  -1.61426  -1.59845  -1.56019
 Alpha  occ. eigenvalues --   -1.55337  -1.51084  -1.50179  -1.47690  -1.47350
 Alpha  occ. eigenvalues --   -1.44653  -1.42842  -1.39869  -1.38790  -1.38321
 Alpha  occ. eigenvalues --   -1.36263  -1.34940  -1.32301  -1.31533  -1.30087
 Alpha  occ. eigenvalues --   -1.26777  -1.24724  -1.21850  -1.20481  -1.18681
 Alpha  occ. eigenvalues --   -1.17062  -1.16324  -1.15479  -1.14259  -1.13893
 Alpha  occ. eigenvalues --   -1.12106  -1.11699  -1.10816  -1.05311  -1.03965
 Alpha  occ. eigenvalues --   -1.02926  -1.01362  -0.99727  -0.98423  -0.97792
 Alpha  occ. eigenvalues --   -0.96942  -0.95456  -0.93848  -0.92690  -0.91656
 Alpha  occ. eigenvalues --   -0.91186  -0.89959  -0.88296  -0.87663  -0.84714
 Alpha  occ. eigenvalues --   -0.84327  -0.83050  -0.82266  -0.81150  -0.80394
 Alpha  occ. eigenvalues --   -0.79626  -0.78746  -0.77601  -0.77338  -0.76656
 Alpha  occ. eigenvalues --   -0.76059  -0.75682  -0.74741  -0.74183  -0.73359
 Alpha  occ. eigenvalues --   -0.73233  -0.72871  -0.71837  -0.71411  -0.70827
 Alpha  occ. eigenvalues --   -0.70303  -0.69966  -0.69592  -0.68264  -0.67528
 Alpha  occ. eigenvalues --   -0.67329  -0.66672  -0.65987  -0.65551  -0.64856
 Alpha  occ. eigenvalues --   -0.64785  -0.64348  -0.63708  -0.63330  -0.63112
 Alpha  occ. eigenvalues --   -0.62657  -0.62090  -0.61937  -0.61817  -0.61648
 Alpha  occ. eigenvalues --   -0.61302  -0.61049  -0.60882  -0.60488  -0.60118
 Alpha  occ. eigenvalues --   -0.59723  -0.59303  -0.58644  -0.58277  -0.58128
 Alpha  occ. eigenvalues --   -0.57729  -0.57519  -0.56904  -0.56813  -0.56362
 Alpha  occ. eigenvalues --   -0.56065  -0.55432  -0.55349  -0.54775  -0.54711
 Alpha  occ. eigenvalues --   -0.53935  -0.53525  -0.53330  -0.53229  -0.52847
 Alpha  occ. eigenvalues --   -0.52778  -0.52317  -0.51966  -0.51521  -0.51489
 Alpha  occ. eigenvalues --   -0.51343  -0.51051  -0.50765  -0.50234  -0.50160
 Alpha  occ. eigenvalues --   -0.49873  -0.49576  -0.49348  -0.49120  -0.48709
 Alpha  occ. eigenvalues --   -0.48531  -0.48436  -0.48156  -0.48072  -0.47876
 Alpha  occ. eigenvalues --   -0.47279  -0.47035  -0.46909  -0.46825  -0.46603
 Alpha  occ. eigenvalues --   -0.46407  -0.46154  -0.45513  -0.45271  -0.45166
 Alpha  occ. eigenvalues --   -0.44950  -0.44687  -0.44413  -0.43699  -0.43565
 Alpha  occ. eigenvalues --   -0.43382  -0.42608  -0.42491  -0.42120  -0.41214
 Alpha  occ. eigenvalues --   -0.40824  -0.40790  -0.40411  -0.39206  -0.38399
 Alpha  occ. eigenvalues --   -0.37948  -0.36856  -0.35617  -0.35027  -0.34735
 Alpha  occ. eigenvalues --   -0.32932  -0.32429  -0.31747  -0.31579  -0.26802
 Alpha  occ. eigenvalues --   -0.21847
 Alpha virt. eigenvalues --   -0.08717  -0.02269  -0.00544   0.01382   0.02172
 Alpha virt. eigenvalues --    0.02262   0.02562   0.02768   0.04632   0.05170
 Alpha virt. eigenvalues --    0.05947   0.06835   0.07619   0.07910   0.08270

 Mulliken charges:
               1
     1  Mg   0.422750
     2  C   -0.077193
     3  C   -0.081776
     4  C   -0.052640
     5  C   -0.054189
     6  N   -0.273933
     7  C    0.161943
     8  C   -0.002435
     9  C    0.013760
    10  C    0.116994
    11  C   -0.049943
    12  C   -0.023339
    13  C   -0.002535
    14  C    0.466803
    15  O   -0.520382
    16  O   -0.261910
    17  N   -0.343910
    18  C    0.091211
    19  C   -0.011205
    20  C   -0.040308
    21  C    0.118816
    22  C   -0.034871
    23  C    0.311693
    24  O   -0.539539
    25  C   -0.028036
    26  N   -0.259960
    27  C    0.113310
    28  C    0.011623
    29  C   -0.003426
    30  C    0.147144
    31  C   -0.053543
    32  C   -0.022357
    33  C   -0.045957
    34  N   -0.344627
    35  C    0.117367
    36  C    0.058595
    37  C   -0.057373
    38  C    0.137561
    39  C   -0.039013
    40  C    0.342686
    41  O   -0.535053
    42  C    0.060019
    43  C    0.479108
    44  O   -0.528162
    45  O   -0.262782
    46  C    0.074758
    47  C    0.105724
    48  C   -0.076358
    49  C   -0.029418
    50  C   -0.037613
    51  C   -0.042467
    52  C   -0.041438
    53  C   -0.034742
    54  C   -0.004369
    55  C   -0.048312
    56  C   -0.031357
    57  C   -0.050230
    58  C   -0.039622
    59  C   -0.004734
    60  C   -0.053013
    61  C   -0.035942
    62  C   -0.044494
    63  C   -0.031391
    64  C    0.000690
    65  C   -0.055338
    66  C   -0.065676
    67  H    0.020984
    68  H    0.056190
    69  H    0.036049
    70  H    0.030322
    71  H    0.026717
    72  H    0.028531
    73  H    0.010124
    74  H    0.029317
    75  H    0.030159
    76  H    0.049565
    77  H    0.050359
    78  H    0.023930
    79  H    0.025927
    80  H    0.019051
    81  H    0.030353
    82  H    0.026976
    83  H    0.042228
    84  H    0.048237
    85  H    0.031381
    86  H    0.012196
    87  H    0.020633
    88  H    0.026123
    89  H    0.017864
    90  H    0.008062
    91  H    0.026728
    92  H    0.020949
    93  H    0.024828
    94  H    0.020199
    95  H    0.023795
    96  H    0.033904
    97  H    0.052462
    98  H    0.056413
    99  H    0.053093
   100  H    0.041842
   101  H    0.041549
   102  H    0.031918
   103  H    0.065014
   104  H    0.042460
   105  H    0.022149
   106  H    0.030103
   107  H    0.037814
   108  H    0.018475
   109  H    0.032583
   110  H    0.023350
   111  H    0.026561
   112  H    0.011935
   113  H    0.012832
   114  H    0.011638
   115  H    0.013305
   116  H    0.021254
   117  H    0.019418
   118  H    0.007065
   119  H    0.028240
   120  H    0.022979
   121  H    0.006535
   122  H    0.023352
   123  H    0.017347
   124  H    0.025425
   125  H    0.006370
   126  H    0.011710
   127  H    0.023419
   128  H    0.013145
   129  H    0.026930
   130  H    0.008507
   131  H    0.028502
   132  H    0.021576
   133  H    0.021810
   134  H    0.023492
   135  H    0.020386
   136  H    0.010453
   137  H    0.017860
   138  H    0.013273
   139  H    0.016614
   140  H    0.011515
 Sum of Mulliken charges =  -0.00000

 Dipole moment (field-independent basis, Debye):
    X=             -1.9945    Y=              3.1166    Z=             -1.0499  Tot=              3.8462
 N-N= 4.243162538474D+03 E-N= 0.000000000000D+00  KE=-9.161225889777D+03
 Leave Link  601 at Thu May  5 09:36:52 2022, MaxMem=  6710886400 cpu:               0.8 elap:               0.1
 (Enter /sw/apps/gaussian-16.0/g16/l9999.exe)
 1\1\GINC-BP1-COMPUTE100\SP\RZINDO CIS\STO-3G\C55H74Mg1N4O6\OF15641\05-
 May-2022\0\\#p ZINDO=(nstates=5)\\step_801_chromophore_1 ZINDO\\0,1\Mg
 ,0,-1.837,17.149,26.398\C,0,-1.865,14.92,29.003\C,0,-2.942,19.634,28.5
 16\C,0,-1.906,19.215,23.689\C,0,-1.239,14.41,24.141\N,0,-2.527,17.207,
 28.411\C,0,-2.271,16.267,29.332\C,0,-2.62,16.735,30.76\C,0,-3.349,18.1
 21,30.49\C,0,-2.892,18.359,29.105\C,0,-4.851,18.06,30.649\C,0,-1.395,1
 6.803,31.768\C,0,-1.606,17.677,33.043\C,0,-1.27,16.985,34.408\O,0,-1.8

 Normal termination of Gaussian 16 at Thu May  5 09:36:53 2022.
