 Gaussian 16, Revision A.03,
 Gaussian 16:  ES64L-G16RevA.03 25-Dec-2016

 ------------------------------
 #p blyp/Def2SVP td=(nstates=5)
 ------------------------------

 ---------------------------------------------------
 step_1601_chromophore_12 TDDFT with blyp functional
 ---------------------------------------------------
 Symbolic Z-matrix:
 Charge =  0 Multiplicity = 1

                         Standard orientation:
 ---------------------------------------------------------------------
 Center     Atomic      Atomic             Coordinates (Angstroms)
 Number     Number       Type             X           Y           Z
 ---------------------------------------------------------------------
      1         12           0       -4.155643    0.423045   -0.236548
      2          6           0       -3.085176   -2.853084    0.573152
      3          6           0       -0.889940    1.431738   -0.096642
      4          6           0       -5.165547    3.425625   -1.079225
      5          6           0       -7.447421   -0.670763   -0.031482
      6          7           0       -2.240476   -0.633608    0.310482
      7          6           0       -2.095278   -2.011842    0.455028
      8          6           0       -0.549899   -2.356649    0.444978
      9          6           0        0.098804   -0.924308    0.435017
     10          6           0       -1.108397    0.026604    0.270607
     11          6           0        0.916055   -0.508473    1.753261
     12          6           0       -0.117968   -3.188651   -0.722174
     13          6           0        1.143492   -4.121827   -0.417452
     14          6           0        2.151532   -4.298271   -1.529262
     15          8           0        1.949489   -4.079305   -2.726548
     16          8           0        3.402996   -4.712247   -1.046435
     17          7           0       -3.087493    2.119718   -0.467719
     18          6           0       -1.768732    2.386245   -0.376795
     19          6           0       -1.457346    3.750671   -0.767457
     20          6           0       -2.733410    4.387475   -1.064965
     21          6           0       -3.757019    3.310793   -0.925366
     22          6           0       -0.038627    4.282046   -0.896994
     23          6           0       -2.999527    5.811204   -1.571007
     24          8           0       -4.103193    6.194947   -1.944992
     25          6           0       -1.906070    6.796485   -1.760336
     26          7           0       -6.030438    1.280817   -0.336486
     27          6           0       -6.193589    2.560584   -0.852052
     28          6           0       -7.663267    2.946621   -1.050929
     29          6           0       -8.369771    1.707486   -0.502150
     30          6           0       -7.250267    0.718835   -0.278723
     31          6           0       -8.118336    4.231423   -0.153889
     32          6           0       -9.454211    1.214926   -1.511081
     33          6           0       -8.995417    0.723036   -2.935832
     34          7           0       -5.069711   -1.340432    0.228513
     35          6           0       -6.461069   -1.645726    0.217794
     36          6           0       -6.614673   -2.957206    0.694349
     37          6           0       -5.323946   -3.504599    0.813573
     38          6           0       -4.410546   -2.478135    0.501968
     39          6           0       -7.966313   -3.637345    0.900873
     40          6           0       -4.646819   -4.728404    1.105918
     41          8           0       -5.056828   -5.859341    1.387756
     42          6           0       -3.155485   -4.408194    0.902113
     43          6           0       -2.387242   -4.541608    2.216175
     44          8           0       -2.526323   -3.862258    3.253536
     45          8           0       -1.467412   -5.599244    2.100220
     46          6           0       -0.449267   -5.594623    3.188415
     47          6           0        4.559626   -4.771181   -2.036285
     48          6           0        5.849683   -4.510378   -1.405640
     49          6           0        6.891556   -3.781277   -1.873309
     50          6           0        7.066232   -3.141762   -3.243203
     51          6           0        8.207709   -3.690188   -0.988536
     52          6           0        8.421261   -2.300352   -0.259955
     53          6           0        9.848639   -1.661912   -0.354505
     54          6           0        9.918755   -0.361503   -1.222024
     55          6           0       10.950509   -0.498990   -2.349646
     56          6           0       10.284725    0.862342   -0.363425
     57          6           0        9.167194    1.420270    0.518750
     58          6           0        9.000392    2.894694    0.713741
     59          6           0        7.517787    3.491842    0.466971
     60          6           0        7.678246    5.016461    0.161532
     61          6           0        6.785824    3.298164    1.760663
     62          6           0        5.229649    3.461939    1.641485
     63          6           0        4.700944    4.190795    2.911397
     64          6           0        3.357577    4.981256    2.725001
     65          6           0        3.708382    6.392355    2.108443
     66          6           0        2.528193    5.089698    3.968506
     67          1           0        0.155873    1.736319   -0.022488
     68          1           0       -5.424926    4.450606   -1.350967
     69          1           0       -8.473529   -1.039503    0.034372
     70          1           0       -0.288092   -2.855518    1.378237
     71          1           0        0.756550   -0.826571   -0.427908
     72          1           0        0.477236    0.252760    2.398903
     73          1           0        1.931808   -0.240319    1.464353
     74          1           0        1.060700   -1.301714    2.486290
     75          1           0        0.149957   -2.484977   -1.509761
     76          1           0       -0.983173   -3.751302   -1.072358
     77          1           0        0.660871   -5.086582   -0.265957
     78          1           0        1.637320   -3.816366    0.503928
     79          1           0        0.764130    3.544772   -0.878242
     80          1           0        0.151871    5.117745   -0.223943
     81          1           0       -0.067232    4.668637   -1.915434
     82          1           0       -1.136242    6.562670   -1.024346
     83          1           0       -2.413561    7.740037   -1.560921
     84          1           0       -1.433980    6.874473   -2.740444
     85          1           0       -7.886951    3.132596   -2.101204
     86          1           0       -8.763720    1.781006    0.511175
     87          1           0       -8.830879    3.962070    0.626820
     88          1           0       -8.581058    5.001094   -0.771627
     89          1           0       -7.300152    4.652443    0.429372
     90          1           0      -10.012149    2.112734   -1.775622
     91          1           0      -10.114772    0.573246   -0.928442
     92          1           0       -9.501169   -0.229822   -3.091374
     93          1           0       -7.917015    0.641739   -3.063528
     94          1           0       -9.302126    1.412219   -3.722042
     95          1           0       -8.787313   -3.110326    1.387896
     96          1           0       -7.727973   -4.464894    1.568531
     97          1           0       -8.361486   -4.003822   -0.046533
     98          1           0       -2.816450   -4.986317    0.042152
     99          1           0       -0.327680   -4.585463    3.582340
    100          1           0        0.491727   -5.925473    2.748670
    101          1           0       -0.913929   -6.199128    3.967398
    102          1           0        4.383136   -4.110589   -2.885158
    103          1           0        4.530585   -5.786791   -2.432149
    104          1           0        5.985805   -4.913608   -0.401908
    105          1           0        6.056690   -3.111022   -3.652593
    106          1           0        7.717057   -3.750839   -3.870385
    107          1           0        7.396722   -2.106141   -3.325127
    108          1           0        9.107557   -3.877818   -1.574517
    109          1           0        8.063645   -4.495097   -0.267137
    110          1           0        8.121694   -2.299203    0.788646
    111          1           0        7.780053   -1.711946   -0.916403
    112          1           0       10.600890   -2.359329   -0.721085
    113          1           0       10.113580   -1.377583    0.664266
    114          1           0        8.927121   -0.140032   -1.617885
    115          1           0       10.604140   -0.172022   -3.329385
    116          1           0       11.264144   -1.540343   -2.417395
    117          1           0       11.902139    0.005146   -2.181225
    118          1           0       10.540876    1.600360   -1.123774
    119          1           0       11.245313    0.634827    0.100947
    120          1           0        9.367050    1.161185    1.558389
    121          1           0        8.179281    1.061333    0.229984
    122          1           0        9.712827    3.434442    0.089376
    123          1           0        9.361226    3.050201    1.730651
    124          1           0        7.063623    2.905002   -0.331471
    125          1           0        7.631479    5.555289    1.107878
    126          1           0        6.790224    5.216498   -0.438531
    127          1           0        8.527716    5.334896   -0.441017
    128          1           0        7.183035    3.908508    2.572328
    129          1           0        6.961051    2.279263    2.107681
    130          1           0        4.657083    2.536233    1.581649
    131          1           0        4.899311    3.930319    0.714620
    132          1           0        5.535163    4.820798    3.218260
    133          1           0        4.491157    3.383029    3.612759
    134          1           0        2.695426    4.482970    2.017161
    135          1           0        4.646051    6.297089    1.561864
    136          1           0        3.892085    7.138165    2.881986
    137          1           0        2.987000    6.741900    1.369878
    138          1           0        3.097025    4.633132    4.778930
    139          1           0        1.612061    4.539533    3.754147
    140          1           0        2.358020    6.084576    4.378994
 ---------------------------------------------------------------------

 SCF Done:  E(RB-LYP) =  -3007.37785131     A.U. after   21 cycles

 Excitation energies and oscillator strengths:

 Excited State   1:      Singlet-A      1.7510 eV  708.06 nm  f=0.2844  <S**2>=0.000
     245 -> 248       -0.14607
     246 -> 247        0.69364
     246 <- 247       -0.16157
 This state for optimization and/or second-order correction.
 Total Energy, E(TD-HF/TD-DFT) =  -3007.31350182
 Copying the excited state density for this state as the 1-particle RhoCI density.

 Excited State   2:      Singlet-A      1.8887 eV  656.46 nm  f=0.0025  <S**2>=0.000
     244 -> 247        0.69168
     245 -> 247        0.14275

 Excited State   3:      Singlet-A      2.0861 eV  594.32 nm  f=0.0142  <S**2>=0.000
     243 -> 247        0.61007
     245 -> 247       -0.31289
     246 -> 248       -0.13042

 Excited State   4:      Singlet-A      2.1079 eV  588.19 nm  f=0.0514  <S**2>=0.000
     243 -> 247        0.35488
     244 -> 247       -0.11608
     245 -> 247        0.52750
     246 -> 248        0.23256
     246 -> 249       -0.11321

 Excited State   5:      Singlet-A      2.4724 eV  501.48 nm  f=0.0040  <S**2>=0.000
     242 -> 247        0.69764

 The electronic state is 1-A.
 Alpha  occ. eigenvalues --  -46.25665 -18.81883 -18.81570 -18.77300 -18.76949
 Alpha  occ. eigenvalues --  -18.75987 -18.75211 -14.03130 -14.03124 -14.01070
 Alpha  occ. eigenvalues --  -14.00263 -10.04509 -10.04487 -10.00406  -9.98972
 Alpha  occ. eigenvalues --   -9.98129  -9.97566  -9.97125  -9.96799  -9.96296
 Alpha  occ. eigenvalues --   -9.96244  -9.95836  -9.95192  -9.95059  -9.94671
 Alpha  occ. eigenvalues --   -9.94638  -9.94421  -9.94370  -9.94348  -9.94224
 Alpha  occ. eigenvalues --   -9.94094  -9.94061  -9.93845  -9.93833  -9.93538
 Alpha  occ. eigenvalues --   -9.93174  -9.93089  -9.92969  -9.92928  -9.92745
 Alpha  occ. eigenvalues --   -9.92720  -9.92687  -9.92682  -9.92642  -9.92617
 Alpha  occ. eigenvalues --   -9.92493  -9.92429  -9.92369  -9.92260  -9.92153
 Alpha  occ. eigenvalues --   -9.92094  -9.92035  -9.91766  -9.91717  -9.91550
 Alpha  occ. eigenvalues --   -9.91514  -9.91475  -9.91371  -9.91275  -9.91236
 Alpha  occ. eigenvalues --   -9.91052  -9.91052  -9.90900  -9.90710  -9.90648
 Alpha  occ. eigenvalues --   -9.90386  -2.90575  -1.70998  -1.70471  -1.70278
 Alpha  occ. eigenvalues --   -0.96146  -0.95953  -0.92054  -0.90205  -0.88713
 Alpha  occ. eigenvalues --   -0.88627  -0.86617  -0.86242  -0.84974  -0.84359
 Alpha  occ. eigenvalues --   -0.75661  -0.73732  -0.73316  -0.72806  -0.72457
 Alpha  occ. eigenvalues --   -0.72390  -0.71872  -0.71227  -0.70677  -0.70481
 Alpha  occ. eigenvalues --   -0.69725  -0.68827  -0.68076  -0.67334  -0.66743
 Alpha  occ. eigenvalues --   -0.66616  -0.65992  -0.65417  -0.65261  -0.64765
 Alpha  occ. eigenvalues --   -0.64556  -0.62939  -0.62739  -0.61704  -0.60789
 Alpha  occ. eigenvalues --   -0.60500  -0.60448  -0.59960  -0.59853  -0.59109
 Alpha  occ. eigenvalues --   -0.58169  -0.57668  -0.57288  -0.55988  -0.55452
 Alpha  occ. eigenvalues --   -0.53961  -0.53717  -0.53038  -0.52165  -0.51478
 Alpha  occ. eigenvalues --   -0.51354  -0.51138  -0.51072  -0.50237  -0.50175
 Alpha  occ. eigenvalues --   -0.49650  -0.49122  -0.48887  -0.48086  -0.46791
 Alpha  occ. eigenvalues --   -0.46561  -0.45986  -0.45763  -0.45081  -0.44642
 Alpha  occ. eigenvalues --   -0.44100  -0.43439  -0.43020  -0.42606  -0.42432
 Alpha  occ. eigenvalues --   -0.42077  -0.41947  -0.41810  -0.41643  -0.41307
 Alpha  occ. eigenvalues --   -0.40912  -0.40816  -0.40481  -0.40348  -0.40237
 Alpha  occ. eigenvalues --   -0.40113  -0.40033  -0.39932  -0.39598  -0.39442
 Alpha  occ. eigenvalues --   -0.39071  -0.38894  -0.38730  -0.38361  -0.38233
 Alpha  occ. eigenvalues --   -0.38004  -0.37900  -0.37600  -0.37399  -0.37321
 Alpha  occ. eigenvalues --   -0.37147  -0.37081  -0.36869  -0.36757  -0.36653
 Alpha  occ. eigenvalues --   -0.36452  -0.36392  -0.35834  -0.35661  -0.35488
 Alpha  occ. eigenvalues --   -0.35435  -0.35258  -0.35115  -0.34958  -0.34546
 Alpha  occ. eigenvalues --   -0.34528  -0.34149  -0.34082  -0.34047  -0.33815
 Alpha  occ. eigenvalues --   -0.33656  -0.33590  -0.33572  -0.33459  -0.33337
 Alpha  occ. eigenvalues --   -0.33156  -0.32989  -0.32580  -0.32438  -0.32360
 Alpha  occ. eigenvalues --   -0.32186  -0.31988  -0.31907  -0.31744  -0.31585
 Alpha  occ. eigenvalues --   -0.31371  -0.31152  -0.30969  -0.30883  -0.30796
 Alpha  occ. eigenvalues --   -0.30626  -0.30569  -0.30412  -0.30268  -0.30242
 Alpha  occ. eigenvalues --   -0.29751  -0.29678  -0.29593  -0.29346  -0.28700
 Alpha  occ. eigenvalues --   -0.28622  -0.28520  -0.28171  -0.27901  -0.27837
 Alpha  occ. eigenvalues --   -0.27736  -0.27667  -0.27326  -0.27139  -0.26826
 Alpha  occ. eigenvalues --   -0.26384  -0.26336  -0.26091  -0.25514  -0.25411
 Alpha  occ. eigenvalues --   -0.25025  -0.24832  -0.24768  -0.24175  -0.23790
 Alpha  occ. eigenvalues --   -0.23003  -0.22407  -0.22351  -0.22009  -0.21394
 Alpha  occ. eigenvalues --   -0.20970  -0.20181  -0.19199  -0.18476  -0.17896
 Alpha  occ. eigenvalues --   -0.15617
 Alpha virt. eigenvalues --   -0.11614  -0.07369  -0.06455  -0.04654  -0.03597
 Alpha virt. eigenvalues --   -0.03270  -0.02614  -0.01660  -0.01125   0.00072
 Alpha virt. eigenvalues --    0.00622   0.01556   0.01697   0.02401   0.02551

 Mulliken charges:
               1
     1  Mg   0.702369
     2  C   -0.017288
     3  C   -0.112704
     4  C   -0.036104
     5  C   -0.080375
     6  N   -0.163182
     7  C   -0.150258
     8  C    0.023489
     9  C   -0.025435
    10  C    0.013975
    11  C    0.097750
    12  C    0.135704
    13  C    0.110897
    14  C    0.093507
    15  O   -0.197611
    16  O   -0.317329
    17  N   -0.336042
    18  C    0.211141
    19  C   -0.151170
    20  C    0.049002
    21  C    0.083795
    22  C    0.151313
    23  C   -0.069872
    24  O   -0.171602
    25  C    0.125523
    26  N   -0.241316
    27  C    0.057805
    28  C    0.019694
    29  C    0.069217
    30  C    0.009717
    31  C    0.106730
    32  C    0.062536
    33  C    0.065424
    34  N   -0.290350
    35  C    0.138538
    36  C   -0.171154
    37  C    0.091921
    38  C    0.128844
    39  C    0.149697
    40  C   -0.062761
    41  O   -0.143792
    42  C    0.123295
    43  C    0.144046
    44  O   -0.201298
    45  O   -0.298072
    46  C    0.208735
    47  C    0.334554
    48  C   -0.068341
    49  C   -0.165479
    50  C    0.136439
    51  C    0.123249
    52  C    0.053182
    53  C    0.126136
    54  C   -0.105328
    55  C    0.118755
    56  C    0.103211
    57  C    0.106330
    58  C    0.070832
    59  C   -0.065024
    60  C    0.117798
    61  C    0.094765
    62  C    0.073051
    63  C    0.074665
    64  C   -0.094068
    65  C    0.089190
    66  C    0.133983
    67  H   -0.069786
    68  H   -0.047082
    69  H   -0.070890
    70  H   -0.020057
    71  H   -0.016062
    72  H    0.001961
    73  H   -0.006657
    74  H   -0.017398
    75  H   -0.018945
    76  H   -0.018588
    77  H    0.024608
    78  H    0.003892
    79  H   -0.002021
    80  H    0.033688
    81  H    0.007111
    82  H   -0.031160
    83  H    0.005338
    84  H    0.028635
    85  H   -0.005875
    86  H   -0.013161
    87  H   -0.015923
    88  H   -0.001325
    89  H    0.001180
    90  H   -0.024084
    91  H   -0.013809
    92  H    0.003075
    93  H    0.005573
    94  H   -0.009490
    95  H   -0.009423
    96  H    0.006985
    97  H    0.003966
    98  H    0.005916
    99  H    0.019899
   100  H    0.022160
   101  H    0.024571
   102  H    0.001280
   103  H    0.000413
   104  H   -0.034152
   105  H   -0.026351
   106  H    0.013479
   107  H    0.002043
   108  H   -0.030030
   109  H   -0.035747
   110  H   -0.013446
   111  H   -0.019407
   112  H   -0.032827
   113  H   -0.036435
   114  H   -0.037929
   115  H   -0.013504
   116  H   -0.033881
   117  H   -0.022075
   118  H   -0.044202
   119  H   -0.032464
   120  H   -0.035839
   121  H   -0.030283
   122  H   -0.051662
   123  H   -0.047120
   124  H   -0.031696
   125  H   -0.008506
   126  H   -0.017096
   127  H   -0.009792
   128  H   -0.027463
   129  H   -0.040182
   130  H   -0.039674
   131  H   -0.036456
   132  H   -0.022099
   133  H   -0.030050
   134  H   -0.042419
   135  H   -0.024593
   136  H   -0.013069
   137  H   -0.016880
   138  H   -0.031651
   139  H   -0.009487
   140  H   -0.020418
 Sum of Mulliken charges =  -0.00000

 Dipole moment (field-independent basis, Debye):
    X=              4.3294    Y=              3.6028    Z=             -1.2594  Tot=              5.7715
 Quadrupole moment (field-independent basis, Debye-Ang):
   XX=           -367.9631   YY=           -437.4570   ZZ=           -412.6809
   XY=            -22.9072   XZ=             10.0256   YZ=              6.3242

 Normal termination of Gaussian 16 at Wed May  4 10:54:04 2022.
