 Gaussian 16, Revision A.03,
 Gaussian 16:  ES64L-G16RevA.03 25-Dec-2016

 -----------------------------------
 #p cam-b3lyp/Def2SVP td=(nstates=5)
 -----------------------------------

 --------------------------------------------------------
 step_1601_chromophore_12 TDDFT with cam-b3lyp functional
 --------------------------------------------------------
 Symbolic Z-matrix:
 Charge =  0 Multiplicity = 1

                         Standard orientation:
 ---------------------------------------------------------------------
 Center     Atomic      Atomic             Coordinates (Angstroms)
 Number     Number       Type             X           Y           Z
 ---------------------------------------------------------------------
      1         12           0       -4.155643    0.423045   -0.236548
      2          6           0       -3.085176   -2.853084    0.573152
      3          6           0       -0.889940    1.431738   -0.096642
      4          6           0       -5.165547    3.425625   -1.079225
      5          6           0       -7.447421   -0.670763   -0.031482
      6          7           0       -2.240476   -0.633608    0.310482
      7          6           0       -2.095278   -2.011842    0.455028
      8          6           0       -0.549899   -2.356649    0.444978
      9          6           0        0.098804   -0.924308    0.435017
     10          6           0       -1.108397    0.026604    0.270607
     11          6           0        0.916055   -0.508473    1.753261
     12          6           0       -0.117968   -3.188651   -0.722174
     13          6           0        1.143492   -4.121827   -0.417452
     14          6           0        2.151532   -4.298271   -1.529262
     15          8           0        1.949489   -4.079305   -2.726548
     16          8           0        3.402996   -4.712247   -1.046435
     17          7           0       -3.087493    2.119718   -0.467719
     18          6           0       -1.768732    2.386245   -0.376795
     19          6           0       -1.457346    3.750671   -0.767457
     20          6           0       -2.733410    4.387475   -1.064965
     21          6           0       -3.757019    3.310793   -0.925366
     22          6           0       -0.038627    4.282046   -0.896994
     23          6           0       -2.999527    5.811204   -1.571007
     24          8           0       -4.103193    6.194947   -1.944992
     25          6           0       -1.906070    6.796485   -1.760336
     26          7           0       -6.030438    1.280817   -0.336486
     27          6           0       -6.193589    2.560584   -0.852052
     28          6           0       -7.663267    2.946621   -1.050929
     29          6           0       -8.369771    1.707486   -0.502150
     30          6           0       -7.250267    0.718835   -0.278723
     31          6           0       -8.118336    4.231423   -0.153889
     32          6           0       -9.454211    1.214926   -1.511081
     33          6           0       -8.995417    0.723036   -2.935832
     34          7           0       -5.069711   -1.340432    0.228513
     35          6           0       -6.461069   -1.645726    0.217794
     36          6           0       -6.614673   -2.957206    0.694349
     37          6           0       -5.323946   -3.504599    0.813573
     38          6           0       -4.410546   -2.478135    0.501968
     39          6           0       -7.966313   -3.637345    0.900873
     40          6           0       -4.646819   -4.728404    1.105918
     41          8           0       -5.056828   -5.859341    1.387756
     42          6           0       -3.155485   -4.408194    0.902113
     43          6           0       -2.387242   -4.541608    2.216175
     44          8           0       -2.526323   -3.862258    3.253536
     45          8           0       -1.467412   -5.599244    2.100220
     46          6           0       -0.449267   -5.594623    3.188415
     47          6           0        4.559626   -4.771181   -2.036285
     48          6           0        5.849683   -4.510378   -1.405640
     49          6           0        6.891556   -3.781277   -1.873309
     50          6           0        7.066232   -3.141762   -3.243203
     51          6           0        8.207709   -3.690188   -0.988536
     52          6           0        8.421261   -2.300352   -0.259955
     53          6           0        9.848639   -1.661912   -0.354505
     54          6           0        9.918755   -0.361503   -1.222024
     55          6           0       10.950509   -0.498990   -2.349646
     56          6           0       10.284725    0.862342   -0.363425
     57          6           0        9.167194    1.420270    0.518750
     58          6           0        9.000392    2.894694    0.713741
     59          6           0        7.517787    3.491842    0.466971
     60          6           0        7.678246    5.016461    0.161532
     61          6           0        6.785824    3.298164    1.760663
     62          6           0        5.229649    3.461939    1.641485
     63          6           0        4.700944    4.190795    2.911397
     64          6           0        3.357577    4.981256    2.725001
     65          6           0        3.708382    6.392355    2.108443
     66          6           0        2.528193    5.089698    3.968506
     67          1           0        0.155873    1.736319   -0.022488
     68          1           0       -5.424926    4.450606   -1.350967
     69          1           0       -8.473529   -1.039503    0.034372
     70          1           0       -0.288092   -2.855518    1.378237
     71          1           0        0.756550   -0.826571   -0.427908
     72          1           0        0.477236    0.252760    2.398903
     73          1           0        1.931808   -0.240319    1.464353
     74          1           0        1.060700   -1.301714    2.486290
     75          1           0        0.149957   -2.484977   -1.509761
     76          1           0       -0.983173   -3.751302   -1.072358
     77          1           0        0.660871   -5.086582   -0.265957
     78          1           0        1.637320   -3.816366    0.503928
     79          1           0        0.764130    3.544772   -0.878242
     80          1           0        0.151871    5.117745   -0.223943
     81          1           0       -0.067232    4.668637   -1.915434
     82          1           0       -1.136242    6.562670   -1.024346
     83          1           0       -2.413561    7.740037   -1.560921
     84          1           0       -1.433980    6.874473   -2.740444
     85          1           0       -7.886951    3.132596   -2.101204
     86          1           0       -8.763720    1.781006    0.511175
     87          1           0       -8.830879    3.962070    0.626820
     88          1           0       -8.581058    5.001094   -0.771627
     89          1           0       -7.300152    4.652443    0.429372
     90          1           0      -10.012149    2.112734   -1.775622
     91          1           0      -10.114772    0.573246   -0.928442
     92          1           0       -9.501169   -0.229822   -3.091374
     93          1           0       -7.917015    0.641739   -3.063528
     94          1           0       -9.302126    1.412219   -3.722042
     95          1           0       -8.787313   -3.110326    1.387896
     96          1           0       -7.727973   -4.464894    1.568531
     97          1           0       -8.361486   -4.003822   -0.046533
     98          1           0       -2.816450   -4.986317    0.042152
     99          1           0       -0.327680   -4.585463    3.582340
    100          1           0        0.491727   -5.925473    2.748670
    101          1           0       -0.913929   -6.199128    3.967398
    102          1           0        4.383136   -4.110589   -2.885158
    103          1           0        4.530585   -5.786791   -2.432149
    104          1           0        5.985805   -4.913608   -0.401908
    105          1           0        6.056690   -3.111022   -3.652593
    106          1           0        7.717057   -3.750839   -3.870385
    107          1           0        7.396722   -2.106141   -3.325127
    108          1           0        9.107557   -3.877818   -1.574517
    109          1           0        8.063645   -4.495097   -0.267137
    110          1           0        8.121694   -2.299203    0.788646
    111          1           0        7.780053   -1.711946   -0.916403
    112          1           0       10.600890   -2.359329   -0.721085
    113          1           0       10.113580   -1.377583    0.664266
    114          1           0        8.927121   -0.140032   -1.617885
    115          1           0       10.604140   -0.172022   -3.329385
    116          1           0       11.264144   -1.540343   -2.417395
    117          1           0       11.902139    0.005146   -2.181225
    118          1           0       10.540876    1.600360   -1.123774
    119          1           0       11.245313    0.634827    0.100947
    120          1           0        9.367050    1.161185    1.558389
    121          1           0        8.179281    1.061333    0.229984
    122          1           0        9.712827    3.434442    0.089376
    123          1           0        9.361226    3.050201    1.730651
    124          1           0        7.063623    2.905002   -0.331471
    125          1           0        7.631479    5.555289    1.107878
    126          1           0        6.790224    5.216498   -0.438531
    127          1           0        8.527716    5.334896   -0.441017
    128          1           0        7.183035    3.908508    2.572328
    129          1           0        6.961051    2.279263    2.107681
    130          1           0        4.657083    2.536233    1.581649
    131          1           0        4.899311    3.930319    0.714620
    132          1           0        5.535163    4.820798    3.218260
    133          1           0        4.491157    3.383029    3.612759
    134          1           0        2.695426    4.482970    2.017161
    135          1           0        4.646051    6.297089    1.561864
    136          1           0        3.892085    7.138165    2.881986
    137          1           0        2.987000    6.741900    1.369878
    138          1           0        3.097025    4.633132    4.778930
    139          1           0        1.612061    4.539533    3.754147
    140          1           0        2.358020    6.084576    4.378994
 ---------------------------------------------------------------------

 SCF Done:  E(RCAM-B3LYP) =  -3007.16535582     A.U. after   18 cycles

 Excitation energies and oscillator strengths:

 Excited State   1:      Singlet-A      1.7115 eV  724.41 nm  f=0.3832  <S**2>=0.000
     245 -> 248       -0.15006
     246 -> 247        0.69079
 This state for optimization and/or second-order correction.
 Total Energy, E(TD-HF/TD-DFT) =  -3007.10245882
 Copying the excited state density for this state as the 1-particle RhoCI density.

 Excited State   2:      Singlet-A      2.3588 eV  525.63 nm  f=0.0697  <S**2>=0.000
     245 -> 247        0.60579
     246 -> 248        0.33205

 Excited State   3:      Singlet-A      3.3521 eV  369.87 nm  f=0.3123  <S**2>=0.000
     242 -> 247       -0.36097
     244 -> 247        0.27621
     245 -> 247       -0.23511
     246 -> 248        0.47319

 Excited State   4:      Singlet-A      3.4375 eV  360.68 nm  f=0.1225  <S**2>=0.000
     244 -> 247        0.59552
     245 -> 247        0.14565
     246 -> 248       -0.32568

 Excited State   5:      Singlet-A      3.6027 eV  344.14 nm  f=0.0864  <S**2>=0.000
     239 -> 247        0.28815
     239 -> 248       -0.16615
     239 -> 249        0.21022
     240 -> 247       -0.13256
     242 -> 247       -0.29589
     243 -> 247        0.32137
     243 -> 249       -0.16365
     243 -> 250       -0.15835
     244 -> 247       -0.13499
     245 -> 247        0.11021
     246 -> 248       -0.12517

 The electronic state is 1-A.
 Alpha  occ. eigenvalues --  -46.87064 -19.24739 -19.24497 -19.20327 -19.20000
 Alpha  occ. eigenvalues --  -19.19682 -19.17901 -14.42183 -14.41834 -14.39723
 Alpha  occ. eigenvalues --  -14.38328 -10.40051 -10.39927 -10.36065 -10.33902
 Alpha  occ. eigenvalues --  -10.32306 -10.32129 -10.31936 -10.31556 -10.31060
 Alpha  occ. eigenvalues --  -10.30541 -10.30128 -10.30027 -10.30018 -10.29185
 Alpha  occ. eigenvalues --  -10.28902 -10.28611 -10.28476 -10.28445 -10.28429
 Alpha  occ. eigenvalues --  -10.28322 -10.28146 -10.27930 -10.27579 -10.27185
 Alpha  occ. eigenvalues --  -10.27119 -10.27113 -10.27097 -10.26673 -10.26666
 Alpha  occ. eigenvalues --  -10.26632 -10.26587 -10.26557 -10.26552 -10.26380
 Alpha  occ. eigenvalues --  -10.26312 -10.26271 -10.26239 -10.26170 -10.25877
 Alpha  occ. eigenvalues --  -10.25855 -10.25819 -10.25788 -10.25371 -10.25353
 Alpha  occ. eigenvalues --  -10.25338 -10.25115 -10.25010 -10.24967 -10.24947
 Alpha  occ. eigenvalues --  -10.24861 -10.24715 -10.24589 -10.24492 -10.24367
 Alpha  occ. eigenvalues --  -10.23812  -3.15892  -1.90786  -1.90363  -1.90199
 Alpha  occ. eigenvalues --   -1.14557  -1.14423  -1.10926  -1.08143  -1.06509
 Alpha  occ. eigenvalues --   -1.06460  -1.04381  -1.03892  -1.02551  -1.01815
 Alpha  occ. eigenvalues --   -0.92552  -0.90671  -0.90209  -0.89659  -0.89204
 Alpha  occ. eigenvalues --   -0.89129  -0.88623  -0.87962  -0.87800  -0.87054
 Alpha  occ. eigenvalues --   -0.85922  -0.85172  -0.84415  -0.83527  -0.82863
 Alpha  occ. eigenvalues --   -0.82639  -0.82356  -0.81463  -0.81209  -0.80618
 Alpha  occ. eigenvalues --   -0.80267  -0.78882  -0.78518  -0.77097  -0.76203
 Alpha  occ. eigenvalues --   -0.76001  -0.75722  -0.75365  -0.75134  -0.74444
 Alpha  occ. eigenvalues --   -0.73212  -0.72599  -0.72269  -0.70925  -0.70011
 Alpha  occ. eigenvalues --   -0.68702  -0.68405  -0.67595  -0.66568  -0.65756
 Alpha  occ. eigenvalues --   -0.65626  -0.65277  -0.64985  -0.64419  -0.63979
 Alpha  occ. eigenvalues --   -0.63693  -0.62901  -0.62861  -0.61730  -0.60479
 Alpha  occ. eigenvalues --   -0.60352  -0.59487  -0.59216  -0.58448  -0.58073
 Alpha  occ. eigenvalues --   -0.57518  -0.56721  -0.56118  -0.55812  -0.55449
 Alpha  occ. eigenvalues --   -0.55224  -0.54829  -0.54767  -0.54549  -0.54102
 Alpha  occ. eigenvalues --   -0.53844  -0.53727  -0.53455  -0.53264  -0.53126
 Alpha  occ. eigenvalues --   -0.53017  -0.52953  -0.52665  -0.52127  -0.52075
 Alpha  occ. eigenvalues --   -0.51584  -0.51572  -0.51146  -0.50944  -0.50873
 Alpha  occ. eigenvalues --   -0.50847  -0.50370  -0.50124  -0.49984  -0.49655
 Alpha  occ. eigenvalues --   -0.49526  -0.49326  -0.49147  -0.49031  -0.48914
 Alpha  occ. eigenvalues --   -0.48645  -0.48438  -0.48369  -0.48080  -0.47813
 Alpha  occ. eigenvalues --   -0.47688  -0.47337  -0.47054  -0.46902  -0.46432
 Alpha  occ. eigenvalues --   -0.46374  -0.45910  -0.45906  -0.45764  -0.45734
 Alpha  occ. eigenvalues --   -0.45480  -0.45368  -0.45311  -0.45158  -0.45007
 Alpha  occ. eigenvalues --   -0.44838  -0.44709  -0.44435  -0.44249  -0.43891
 Alpha  occ. eigenvalues --   -0.43796  -0.43754  -0.43600  -0.43351  -0.43086
 Alpha  occ. eigenvalues --   -0.42825  -0.42659  -0.42338  -0.42310  -0.42177
 Alpha  occ. eigenvalues --   -0.42136  -0.41975  -0.41792  -0.41733  -0.41648
 Alpha  occ. eigenvalues --   -0.41299  -0.41187  -0.41058  -0.40669  -0.39915
 Alpha  occ. eigenvalues --   -0.39819  -0.39496  -0.39173  -0.38914  -0.38783
 Alpha  occ. eigenvalues --   -0.38699  -0.38656  -0.38308  -0.37984  -0.37688
 Alpha  occ. eigenvalues --   -0.37314  -0.37189  -0.36895  -0.36478  -0.36355
 Alpha  occ. eigenvalues --   -0.36185  -0.35984  -0.35688  -0.34600  -0.34315
 Alpha  occ. eigenvalues --   -0.34210  -0.33873  -0.33614  -0.31958  -0.31716
 Alpha  occ. eigenvalues --   -0.31027  -0.30557  -0.30223  -0.28991  -0.24941
 Alpha  occ. eigenvalues --   -0.20785
 Alpha virt. eigenvalues --   -0.08586  -0.01973  -0.00254   0.02308   0.03320
 Alpha virt. eigenvalues --    0.03929   0.04667   0.05203   0.05896   0.06015
 Alpha virt. eigenvalues --    0.06831   0.07912   0.08095   0.08525   0.08926

 Mulliken charges:
               1
     1  Mg   0.838405
     2  C   -0.044418
     3  C   -0.122734
     4  C   -0.067352
     5  C   -0.085897
     6  N   -0.232778
     7  C   -0.111888
     8  C   -0.017700
     9  C   -0.081168
    10  C    0.041394
    11  C    0.041440
    12  C    0.085784
    13  C    0.036194
    14  C    0.181424
    15  O   -0.239692
    16  O   -0.384163
    17  N   -0.428963
    18  C    0.221410
    19  C   -0.148594
    20  C   -0.024004
    21  C    0.119131
    22  C    0.095116
    23  C    0.011393
    24  O   -0.208444
    25  C    0.046661
    26  N   -0.315386
    27  C    0.082402
    28  C   -0.042204
    29  C    0.015184
    30  C    0.025025
    31  C    0.052495
    32  C    0.008357
    33  C    0.004309
    34  N   -0.378864
    35  C    0.136510
    36  C   -0.168581
    37  C    0.004159
    38  C    0.163533
    39  C    0.100124
    40  C    0.034271
    41  O   -0.186931
    42  C    0.053961
    43  C    0.230369
    44  O   -0.238483
    45  O   -0.360957
    46  C    0.169138
    47  C    0.302304
    48  C   -0.094485
    49  C   -0.189603
    50  C    0.079776
    51  C    0.069334
    52  C    0.002809
    53  C    0.069457
    54  C   -0.157591
    55  C    0.058051
    56  C    0.049848
    57  C    0.050922
    58  C    0.019975
    59  C   -0.125005
    60  C    0.059579
    61  C    0.039105
    62  C    0.025425
    63  C    0.018728
    64  C   -0.148874
    65  C    0.036409
    66  C    0.069391
    67  H   -0.035092
    68  H   -0.005666
    69  H   -0.035700
    70  H    0.008461
    71  H    0.018742
    72  H    0.028123
    73  H    0.016772
    74  H    0.008680
    75  H    0.012746
    76  H    0.012464
    77  H    0.055946
    78  H    0.034686
    79  H    0.028326
    80  H    0.058262
    81  H    0.034762
    82  H   -0.003433
    83  H    0.040170
    84  H    0.058389
    85  H    0.028408
    86  H    0.022392
    87  H    0.009721
    88  H    0.022751
    89  H    0.025523
    90  H    0.003387
    91  H    0.013515
    92  H    0.027003
    93  H    0.026922
    94  H    0.013107
    95  H    0.013685
    96  H    0.032041
    97  H    0.027452
    98  H    0.048095
    99  H    0.041943
   100  H    0.042967
   101  H    0.049713
   102  H    0.031409
   103  H    0.029333
   104  H    0.001768
   105  H   -0.003255
   106  H    0.037501
   107  H    0.024494
   108  H   -0.001474
   109  H   -0.005432
   110  H    0.014420
   111  H    0.004530
   112  H   -0.004725
   113  H   -0.006155
   114  H   -0.008017
   115  H    0.011336
   116  H   -0.009154
   117  H    0.003386
   118  H   -0.013983
   119  H   -0.004033
   120  H   -0.007472
   121  H   -0.005051
   122  H   -0.021855
   123  H   -0.016863
   124  H   -0.000443
   125  H    0.013114
   126  H    0.005747
   127  H    0.015932
   128  H    0.001159
   129  H   -0.009265
   130  H   -0.011921
   131  H   -0.010827
   132  H    0.004275
   133  H   -0.000780
   134  H   -0.014148
   135  H   -0.003671
   136  H    0.010708
   137  H    0.005294
   138  H   -0.004955
   139  H    0.013650
   140  H    0.005619
 Sum of Mulliken charges =  -0.00000

 Dipole moment (field-independent basis, Debye):
    X=              5.5337    Y=              5.0630    Z=             -1.4946  Tot=              7.6478
 Quadrupole moment (field-independent basis, Debye-Ang):
   XX=           -372.3642   YY=           -433.8876   ZZ=           -412.8116
   XY=            -27.1508   XZ=             11.1567   YZ=              5.4706

 Normal termination of Gaussian 16 at Wed May  4 09:44:25 2022.
