 Gaussian 16, Revision A.03,
 Gaussian 16:  ES64L-G16RevA.03 25-Dec-2016

 ---------------------------------
 #p PBE1PBE/Def2SVP td=(nstates=5)
 ---------------------------------

 ------------------------------------------------------
 step_1601_chromophore_12 TDDFT with PBE1PBE functional
 ------------------------------------------------------
 Symbolic Z-matrix:
 Charge =  0 Multiplicity = 1

                         Standard orientation:
 ---------------------------------------------------------------------
 Center     Atomic      Atomic             Coordinates (Angstroms)
 Number     Number       Type             X           Y           Z
 ---------------------------------------------------------------------
      1         12           0       -4.155643    0.423045   -0.236548
      2          6           0       -3.085176   -2.853084    0.573152
      3          6           0       -0.889940    1.431738   -0.096642
      4          6           0       -5.165547    3.425625   -1.079225
      5          6           0       -7.447421   -0.670763   -0.031482
      6          7           0       -2.240476   -0.633608    0.310482
      7          6           0       -2.095278   -2.011842    0.455028
      8          6           0       -0.549899   -2.356649    0.444978
      9          6           0        0.098804   -0.924308    0.435017
     10          6           0       -1.108397    0.026604    0.270607
     11          6           0        0.916055   -0.508473    1.753261
     12          6           0       -0.117968   -3.188651   -0.722174
     13          6           0        1.143492   -4.121827   -0.417452
     14          6           0        2.151532   -4.298271   -1.529262
     15          8           0        1.949489   -4.079305   -2.726548
     16          8           0        3.402996   -4.712247   -1.046435
     17          7           0       -3.087493    2.119718   -0.467719
     18          6           0       -1.768732    2.386245   -0.376795
     19          6           0       -1.457346    3.750671   -0.767457
     20          6           0       -2.733410    4.387475   -1.064965
     21          6           0       -3.757019    3.310793   -0.925366
     22          6           0       -0.038627    4.282046   -0.896994
     23          6           0       -2.999527    5.811204   -1.571007
     24          8           0       -4.103193    6.194947   -1.944992
     25          6           0       -1.906070    6.796485   -1.760336
     26          7           0       -6.030438    1.280817   -0.336486
     27          6           0       -6.193589    2.560584   -0.852052
     28          6           0       -7.663267    2.946621   -1.050929
     29          6           0       -8.369771    1.707486   -0.502150
     30          6           0       -7.250267    0.718835   -0.278723
     31          6           0       -8.118336    4.231423   -0.153889
     32          6           0       -9.454211    1.214926   -1.511081
     33          6           0       -8.995417    0.723036   -2.935832
     34          7           0       -5.069711   -1.340432    0.228513
     35          6           0       -6.461069   -1.645726    0.217794
     36          6           0       -6.614673   -2.957206    0.694349
     37          6           0       -5.323946   -3.504599    0.813573
     38          6           0       -4.410546   -2.478135    0.501968
     39          6           0       -7.966313   -3.637345    0.900873
     40          6           0       -4.646819   -4.728404    1.105918
     41          8           0       -5.056828   -5.859341    1.387756
     42          6           0       -3.155485   -4.408194    0.902113
     43          6           0       -2.387242   -4.541608    2.216175
     44          8           0       -2.526323   -3.862258    3.253536
     45          8           0       -1.467412   -5.599244    2.100220
     46          6           0       -0.449267   -5.594623    3.188415
     47          6           0        4.559626   -4.771181   -2.036285
     48          6           0        5.849683   -4.510378   -1.405640
     49          6           0        6.891556   -3.781277   -1.873309
     50          6           0        7.066232   -3.141762   -3.243203
     51          6           0        8.207709   -3.690188   -0.988536
     52          6           0        8.421261   -2.300352   -0.259955
     53          6           0        9.848639   -1.661912   -0.354505
     54          6           0        9.918755   -0.361503   -1.222024
     55          6           0       10.950509   -0.498990   -2.349646
     56          6           0       10.284725    0.862342   -0.363425
     57          6           0        9.167194    1.420270    0.518750
     58          6           0        9.000392    2.894694    0.713741
     59          6           0        7.517787    3.491842    0.466971
     60          6           0        7.678246    5.016461    0.161532
     61          6           0        6.785824    3.298164    1.760663
     62          6           0        5.229649    3.461939    1.641485
     63          6           0        4.700944    4.190795    2.911397
     64          6           0        3.357577    4.981256    2.725001
     65          6           0        3.708382    6.392355    2.108443
     66          6           0        2.528193    5.089698    3.968506
     67          1           0        0.155873    1.736319   -0.022488
     68          1           0       -5.424926    4.450606   -1.350967
     69          1           0       -8.473529   -1.039503    0.034372
     70          1           0       -0.288092   -2.855518    1.378237
     71          1           0        0.756550   -0.826571   -0.427908
     72          1           0        0.477236    0.252760    2.398903
     73          1           0        1.931808   -0.240319    1.464353
     74          1           0        1.060700   -1.301714    2.486290
     75          1           0        0.149957   -2.484977   -1.509761
     76          1           0       -0.983173   -3.751302   -1.072358
     77          1           0        0.660871   -5.086582   -0.265957
     78          1           0        1.637320   -3.816366    0.503928
     79          1           0        0.764130    3.544772   -0.878242
     80          1           0        0.151871    5.117745   -0.223943
     81          1           0       -0.067232    4.668637   -1.915434
     82          1           0       -1.136242    6.562670   -1.024346
     83          1           0       -2.413561    7.740037   -1.560921
     84          1           0       -1.433980    6.874473   -2.740444
     85          1           0       -7.886951    3.132596   -2.101204
     86          1           0       -8.763720    1.781006    0.511175
     87          1           0       -8.830879    3.962070    0.626820
     88          1           0       -8.581058    5.001094   -0.771627
     89          1           0       -7.300152    4.652443    0.429372
     90          1           0      -10.012149    2.112734   -1.775622
     91          1           0      -10.114772    0.573246   -0.928442
     92          1           0       -9.501169   -0.229822   -3.091374
     93          1           0       -7.917015    0.641739   -3.063528
     94          1           0       -9.302126    1.412219   -3.722042
     95          1           0       -8.787313   -3.110326    1.387896
     96          1           0       -7.727973   -4.464894    1.568531
     97          1           0       -8.361486   -4.003822   -0.046533
     98          1           0       -2.816450   -4.986317    0.042152
     99          1           0       -0.327680   -4.585463    3.582340
    100          1           0        0.491727   -5.925473    2.748670
    101          1           0       -0.913929   -6.199128    3.967398
    102          1           0        4.383136   -4.110589   -2.885158
    103          1           0        4.530585   -5.786791   -2.432149
    104          1           0        5.985805   -4.913608   -0.401908
    105          1           0        6.056690   -3.111022   -3.652593
    106          1           0        7.717057   -3.750839   -3.870385
    107          1           0        7.396722   -2.106141   -3.325127
    108          1           0        9.107557   -3.877818   -1.574517
    109          1           0        8.063645   -4.495097   -0.267137
    110          1           0        8.121694   -2.299203    0.788646
    111          1           0        7.780053   -1.711946   -0.916403
    112          1           0       10.600890   -2.359329   -0.721085
    113          1           0       10.113580   -1.377583    0.664266
    114          1           0        8.927121   -0.140032   -1.617885
    115          1           0       10.604140   -0.172022   -3.329385
    116          1           0       11.264144   -1.540343   -2.417395
    117          1           0       11.902139    0.005146   -2.181225
    118          1           0       10.540876    1.600360   -1.123774
    119          1           0       11.245313    0.634827    0.100947
    120          1           0        9.367050    1.161185    1.558389
    121          1           0        8.179281    1.061333    0.229984
    122          1           0        9.712827    3.434442    0.089376
    123          1           0        9.361226    3.050201    1.730651
    124          1           0        7.063623    2.905002   -0.331471
    125          1           0        7.631479    5.555289    1.107878
    126          1           0        6.790224    5.216498   -0.438531
    127          1           0        8.527716    5.334896   -0.441017
    128          1           0        7.183035    3.908508    2.572328
    129          1           0        6.961051    2.279263    2.107681
    130          1           0        4.657083    2.536233    1.581649
    131          1           0        4.899311    3.930319    0.714620
    132          1           0        5.535163    4.820798    3.218260
    133          1           0        4.491157    3.383029    3.612759
    134          1           0        2.695426    4.482970    2.017161
    135          1           0        4.646051    6.297089    1.561864
    136          1           0        3.892085    7.138165    2.881986
    137          1           0        2.987000    6.741900    1.369878
    138          1           0        3.097025    4.633132    4.778930
    139          1           0        1.612061    4.539533    3.754147
    140          1           0        2.358020    6.084576    4.378994
 ---------------------------------------------------------------------

 SCF Done:  E(RPBE1PBE) =  -3005.35193967     A.U. after   16 cycles

 Excitation energies and oscillator strengths:

 Excited State   1:      Singlet-A      1.8161 eV  682.68 nm  f=0.3628  <S**2>=0.000
     245 -> 248       -0.14413
     246 -> 247        0.69769
     246 <- 247       -0.11883
 This state for optimization and/or second-order correction.
 Total Energy, E(TD-HF/TD-DFT) =  -3005.28519785
 Copying the excited state density for this state as the 1-particle RhoCI density.

 Excited State   2:      Singlet-A      2.3418 eV  529.44 nm  f=0.0749  <S**2>=0.000
     245 -> 247        0.62301
     246 -> 248        0.30035

 Excited State   3:      Singlet-A      3.0082 eV  412.15 nm  f=0.0130  <S**2>=0.000
     242 -> 247       -0.11594
     243 -> 247       -0.32977
     244 -> 247        0.59092

 Excited State   4:      Singlet-A      3.0217 eV  410.31 nm  f=0.0007  <S**2>=0.000
     243 -> 247        0.58588
     243 -> 249        0.13553
     244 -> 247        0.34388

 Excited State   5:      Singlet-A      3.0927 eV  400.89 nm  f=0.1439  <S**2>=0.000
     242 -> 247       -0.23130
     244 -> 247       -0.12287
     245 -> 247       -0.19548
     246 -> 248        0.55779
     246 -> 249        0.23740

 The electronic state is 1-A.
 Alpha  occ. eigenvalues --  -46.90504 -19.25479 -19.25206 -19.20667 -19.20272
 Alpha  occ. eigenvalues --  -19.19627 -19.18471 -14.41566 -14.41467 -14.39286
 Alpha  occ. eigenvalues --  -14.38248 -10.37188 -10.36953 -10.32923 -10.31298
 Alpha  occ. eigenvalues --  -10.29676 -10.29531 -10.29298 -10.28836 -10.28568
 Alpha  occ. eigenvalues --  -10.28207 -10.27942 -10.27725 -10.27246 -10.26676
 Alpha  occ. eigenvalues --  -10.26551 -10.26359 -10.26299 -10.26157 -10.26138
 Alpha  occ. eigenvalues --  -10.25944 -10.25728 -10.25613 -10.25610 -10.25155
 Alpha  occ. eigenvalues --  -10.24947 -10.24723 -10.24567 -10.24526 -10.24448
 Alpha  occ. eigenvalues --  -10.24238 -10.24219 -10.24106 -10.24051 -10.24003
 Alpha  occ. eigenvalues --  -10.23835 -10.23753 -10.23742 -10.23607 -10.23565
 Alpha  occ. eigenvalues --  -10.23470 -10.23355 -10.23339 -10.22867 -10.22854
 Alpha  occ. eigenvalues --  -10.22840 -10.22718 -10.22683 -10.22485 -10.22364
 Alpha  occ. eigenvalues --  -10.22165 -10.22111 -10.22072 -10.22034 -10.21958
 Alpha  occ. eigenvalues --  -10.21644  -3.12904  -1.85741  -1.85294  -1.85136
 Alpha  occ. eigenvalues --   -1.09375  -1.09198  -1.05390  -1.03166  -1.01407
 Alpha  occ. eigenvalues --   -1.01322  -0.98957  -0.98536  -0.97157  -0.96568
 Alpha  occ. eigenvalues --   -0.87094  -0.84734  -0.84315  -0.83837  -0.83418
 Alpha  occ. eigenvalues --   -0.83286  -0.82915  -0.82008  -0.81767  -0.81398
 Alpha  occ. eigenvalues --   -0.80495  -0.79348  -0.78576  -0.77778  -0.77141
 Alpha  occ. eigenvalues --   -0.76967  -0.76410  -0.75707  -0.75391  -0.74830
 Alpha  occ. eigenvalues --   -0.74567  -0.72995  -0.72755  -0.71451  -0.70357
 Alpha  occ. eigenvalues --   -0.70167  -0.69993  -0.69478  -0.69445  -0.68574
 Alpha  occ. eigenvalues --   -0.67597  -0.67033  -0.66664  -0.65194  -0.64447
 Alpha  occ. eigenvalues --   -0.63109  -0.62578  -0.62040  -0.60793  -0.60092
 Alpha  occ. eigenvalues --   -0.59836  -0.59794  -0.59567  -0.58633  -0.58486
 Alpha  occ. eigenvalues --   -0.57800  -0.57382  -0.57041  -0.56406  -0.54849
 Alpha  occ. eigenvalues --   -0.54729  -0.54057  -0.53837  -0.53039  -0.52601
 Alpha  occ. eigenvalues --   -0.52151  -0.51216  -0.50718  -0.50297  -0.49967
 Alpha  occ. eigenvalues --   -0.49736  -0.49288  -0.49117  -0.48963  -0.48552
 Alpha  occ. eigenvalues --   -0.48377  -0.48280  -0.47964  -0.47797  -0.47530
 Alpha  occ. eigenvalues --   -0.47428  -0.47332  -0.47147  -0.46727  -0.46603
 Alpha  occ. eigenvalues --   -0.46249  -0.46073  -0.45639  -0.45535  -0.45423
 Alpha  occ. eigenvalues --   -0.45229  -0.44850  -0.44721  -0.44519  -0.44096
 Alpha  occ. eigenvalues --   -0.43997  -0.43902  -0.43819  -0.43596  -0.43540
 Alpha  occ. eigenvalues --   -0.43318  -0.43186  -0.43163  -0.42574  -0.42410
 Alpha  occ. eigenvalues --   -0.42324  -0.41964  -0.41604  -0.41547  -0.41109
 Alpha  occ. eigenvalues --   -0.40999  -0.40687  -0.40642  -0.40439  -0.40395
 Alpha  occ. eigenvalues --   -0.40248  -0.40143  -0.40015  -0.39810  -0.39742
 Alpha  occ. eigenvalues --   -0.39597  -0.39297  -0.39100  -0.39035  -0.38682
 Alpha  occ. eigenvalues --   -0.38582  -0.38508  -0.38338  -0.38161  -0.37747
 Alpha  occ. eigenvalues --   -0.37666  -0.37562  -0.37306  -0.37152  -0.36875
 Alpha  occ. eigenvalues --   -0.36841  -0.36781  -0.36724  -0.36613  -0.36384
 Alpha  occ. eigenvalues --   -0.36266  -0.36020  -0.35959  -0.35324  -0.34815
 Alpha  occ. eigenvalues --   -0.34532  -0.34487  -0.33959  -0.33847  -0.33668
 Alpha  occ. eigenvalues --   -0.33510  -0.33456  -0.32979  -0.32852  -0.32727
 Alpha  occ. eigenvalues --   -0.32380  -0.32047  -0.31649  -0.31446  -0.31367
 Alpha  occ. eigenvalues --   -0.31228  -0.30897  -0.30502  -0.29517  -0.29263
 Alpha  occ. eigenvalues --   -0.29176  -0.29151  -0.29005  -0.27336  -0.26492
 Alpha  occ. eigenvalues --   -0.26345  -0.25961  -0.25324  -0.24968  -0.21732
 Alpha  occ. eigenvalues --   -0.18474
 Alpha virt. eigenvalues --   -0.11154  -0.05586  -0.04348  -0.02128  -0.00580
 Alpha virt. eigenvalues --   -0.00206   0.00568   0.00759   0.01549   0.02887
 Alpha virt. eigenvalues --    0.03236   0.04214   0.04609   0.05302   0.05510

 Mulliken charges:
               1
     1  Mg   0.996192
     2  C   -0.065869
     3  C   -0.108838
     4  C   -0.060073
     5  C   -0.077390
     6  N   -0.344315
     7  C   -0.039725
     8  C   -0.086565
     9  C   -0.157360
    10  C    0.086879
    11  C   -0.011248
    12  C    0.038878
    13  C   -0.043895
    14  C    0.249531
    15  O   -0.272741
    16  O   -0.413801
    17  N   -0.543247
    18  C    0.237319
    19  C   -0.173109
    20  C   -0.076550
    21  C    0.146292
    22  C    0.034181
    23  C    0.061021
    24  O   -0.246584
    25  C   -0.026569
    26  N   -0.420598
    27  C    0.105233
    28  C   -0.119979
    29  C   -0.060653
    30  C    0.072216
    31  C   -0.001267
    32  C   -0.056213
    33  C   -0.067102
    34  N   -0.508545
    35  C    0.157874
    36  C   -0.176080
    37  C   -0.052756
    38  C    0.229622
    39  C    0.048014
    40  C    0.128035
    41  O   -0.231893
    42  C   -0.048776
    43  C    0.313733
    44  O   -0.269806
    45  O   -0.390075
    46  C    0.113742
    47  C    0.261431
    48  C   -0.112178
    49  C   -0.232023
    50  C    0.018297
    51  C    0.010312
    52  C   -0.063166
    53  C    0.019377
    54  C   -0.244707
    55  C   -0.000156
    56  C   -0.008936
    57  C   -0.009903
    58  C   -0.028230
    59  C   -0.222534
    60  C    0.002134
    61  C   -0.014437
    62  C   -0.025225
    63  C   -0.046798
    64  C   -0.239601
    65  C   -0.025372
    66  C    0.011557
    67  H   -0.003288
    68  H    0.027273
    69  H   -0.002060
    70  H    0.051208
    71  H    0.053910
    72  H    0.054312
    73  H    0.043083
    74  H    0.034200
    75  H    0.045664
    76  H    0.046043
    77  H    0.088767
    78  H    0.065054
    79  H    0.052705
    80  H    0.082411
    81  H    0.063145
    82  H    0.026146
    83  H    0.066048
    84  H    0.082737
    85  H    0.063779
    86  H    0.059193
    87  H    0.035796
    88  H    0.049746
    89  H    0.053007
    90  H    0.040112
    91  H    0.044159
    92  H    0.054712
    93  H    0.055812
    94  H    0.040887
    95  H    0.041313
    96  H    0.061349
    97  H    0.057220
    98  H    0.082983
    99  H    0.062498
   100  H    0.064459
   101  H    0.072586
   102  H    0.057083
   103  H    0.057076
   104  H    0.031191
   105  H    0.025977
   106  H    0.064886
   107  H    0.050747
   108  H    0.031082
   109  H    0.027149
   110  H    0.045327
   111  H    0.040345
   112  H    0.025794
   113  H    0.027523
   114  H    0.029762
   115  H    0.039036
   116  H    0.018097
   117  H    0.030158
   118  H    0.021009
   119  H    0.028411
   120  H    0.025106
   121  H    0.027078
   122  H    0.010225
   123  H    0.015950
   124  H    0.036141
   125  H    0.039923
   126  H    0.033953
   127  H    0.042626
   128  H    0.030905
   129  H    0.025984
   130  H    0.020677
   131  H    0.020599
   132  H    0.036387
   133  H    0.032895
   134  H    0.024646
   135  H    0.026052
   136  H    0.037784
   137  H    0.033438
   138  H    0.022290
   139  H    0.040595
   140  H    0.032141
 Sum of Mulliken charges =  -0.00000

 Dipole moment (field-independent basis, Debye):
    X=              4.9163    Y=              4.4428    Z=             -1.3920  Tot=              6.7710
 Quadrupole moment (field-independent basis, Debye-Ang):
   XX=           -361.7263   YY=           -432.2514   ZZ=           -410.2629
   XY=            -25.0208   XZ=             10.8601   YZ=              5.3902

 Normal termination of Gaussian 16 at Wed May  4 10:06:41 2022.
