 Gaussian 16, Revision A.03,
 Gaussian 16:  ES64L-G16RevA.03 25-Dec-2016

 --------------------------------
 #p wB97XD/Def2SVP td=(nstates=5)
 --------------------------------

 -----------------------------------------------------
 step_1601_chromophore_12 TDDFT with wB97XD functional
 -----------------------------------------------------
 Symbolic Z-matrix:
 Charge =  0 Multiplicity = 1

                         Standard orientation:
 ---------------------------------------------------------------------
 Center     Atomic      Atomic             Coordinates (Angstroms)
 Number     Number       Type             X           Y           Z
 ---------------------------------------------------------------------
      1         12           0       -4.155643    0.423045   -0.236548
      2          6           0       -3.085176   -2.853084    0.573152
      3          6           0       -0.889940    1.431738   -0.096642
      4          6           0       -5.165547    3.425625   -1.079225
      5          6           0       -7.447421   -0.670763   -0.031482
      6          7           0       -2.240476   -0.633608    0.310482
      7          6           0       -2.095278   -2.011842    0.455028
      8          6           0       -0.549899   -2.356649    0.444978
      9          6           0        0.098804   -0.924308    0.435017
     10          6           0       -1.108397    0.026604    0.270607
     11          6           0        0.916055   -0.508473    1.753261
     12          6           0       -0.117968   -3.188651   -0.722174
     13          6           0        1.143492   -4.121827   -0.417452
     14          6           0        2.151532   -4.298271   -1.529262
     15          8           0        1.949489   -4.079305   -2.726548
     16          8           0        3.402996   -4.712247   -1.046435
     17          7           0       -3.087493    2.119718   -0.467719
     18          6           0       -1.768732    2.386245   -0.376795
     19          6           0       -1.457346    3.750671   -0.767457
     20          6           0       -2.733410    4.387475   -1.064965
     21          6           0       -3.757019    3.310793   -0.925366
     22          6           0       -0.038627    4.282046   -0.896994
     23          6           0       -2.999527    5.811204   -1.571007
     24          8           0       -4.103193    6.194947   -1.944992
     25          6           0       -1.906070    6.796485   -1.760336
     26          7           0       -6.030438    1.280817   -0.336486
     27          6           0       -6.193589    2.560584   -0.852052
     28          6           0       -7.663267    2.946621   -1.050929
     29          6           0       -8.369771    1.707486   -0.502150
     30          6           0       -7.250267    0.718835   -0.278723
     31          6           0       -8.118336    4.231423   -0.153889
     32          6           0       -9.454211    1.214926   -1.511081
     33          6           0       -8.995417    0.723036   -2.935832
     34          7           0       -5.069711   -1.340432    0.228513
     35          6           0       -6.461069   -1.645726    0.217794
     36          6           0       -6.614673   -2.957206    0.694349
     37          6           0       -5.323946   -3.504599    0.813573
     38          6           0       -4.410546   -2.478135    0.501968
     39          6           0       -7.966313   -3.637345    0.900873
     40          6           0       -4.646819   -4.728404    1.105918
     41          8           0       -5.056828   -5.859341    1.387756
     42          6           0       -3.155485   -4.408194    0.902113
     43          6           0       -2.387242   -4.541608    2.216175
     44          8           0       -2.526323   -3.862258    3.253536
     45          8           0       -1.467412   -5.599244    2.100220
     46          6           0       -0.449267   -5.594623    3.188415
     47          6           0        4.559626   -4.771181   -2.036285
     48          6           0        5.849683   -4.510378   -1.405640
     49          6           0        6.891556   -3.781277   -1.873309
     50          6           0        7.066232   -3.141762   -3.243203
     51          6           0        8.207709   -3.690188   -0.988536
     52          6           0        8.421261   -2.300352   -0.259955
     53          6           0        9.848639   -1.661912   -0.354505
     54          6           0        9.918755   -0.361503   -1.222024
     55          6           0       10.950509   -0.498990   -2.349646
     56          6           0       10.284725    0.862342   -0.363425
     57          6           0        9.167194    1.420270    0.518750
     58          6           0        9.000392    2.894694    0.713741
     59          6           0        7.517787    3.491842    0.466971
     60          6           0        7.678246    5.016461    0.161532
     61          6           0        6.785824    3.298164    1.760663
     62          6           0        5.229649    3.461939    1.641485
     63          6           0        4.700944    4.190795    2.911397
     64          6           0        3.357577    4.981256    2.725001
     65          6           0        3.708382    6.392355    2.108443
     66          6           0        2.528193    5.089698    3.968506
     67          1           0        0.155873    1.736319   -0.022488
     68          1           0       -5.424926    4.450606   -1.350967
     69          1           0       -8.473529   -1.039503    0.034372
     70          1           0       -0.288092   -2.855518    1.378237
     71          1           0        0.756550   -0.826571   -0.427908
     72          1           0        0.477236    0.252760    2.398903
     73          1           0        1.931808   -0.240319    1.464353
     74          1           0        1.060700   -1.301714    2.486290
     75          1           0        0.149957   -2.484977   -1.509761
     76          1           0       -0.983173   -3.751302   -1.072358
     77          1           0        0.660871   -5.086582   -0.265957
     78          1           0        1.637320   -3.816366    0.503928
     79          1           0        0.764130    3.544772   -0.878242
     80          1           0        0.151871    5.117745   -0.223943
     81          1           0       -0.067232    4.668637   -1.915434
     82          1           0       -1.136242    6.562670   -1.024346
     83          1           0       -2.413561    7.740037   -1.560921
     84          1           0       -1.433980    6.874473   -2.740444
     85          1           0       -7.886951    3.132596   -2.101204
     86          1           0       -8.763720    1.781006    0.511175
     87          1           0       -8.830879    3.962070    0.626820
     88          1           0       -8.581058    5.001094   -0.771627
     89          1           0       -7.300152    4.652443    0.429372
     90          1           0      -10.012149    2.112734   -1.775622
     91          1           0      -10.114772    0.573246   -0.928442
     92          1           0       -9.501169   -0.229822   -3.091374
     93          1           0       -7.917015    0.641739   -3.063528
     94          1           0       -9.302126    1.412219   -3.722042
     95          1           0       -8.787313   -3.110326    1.387896
     96          1           0       -7.727973   -4.464894    1.568531
     97          1           0       -8.361486   -4.003822   -0.046533
     98          1           0       -2.816450   -4.986317    0.042152
     99          1           0       -0.327680   -4.585463    3.582340
    100          1           0        0.491727   -5.925473    2.748670
    101          1           0       -0.913929   -6.199128    3.967398
    102          1           0        4.383136   -4.110589   -2.885158
    103          1           0        4.530585   -5.786791   -2.432149
    104          1           0        5.985805   -4.913608   -0.401908
    105          1           0        6.056690   -3.111022   -3.652593
    106          1           0        7.717057   -3.750839   -3.870385
    107          1           0        7.396722   -2.106141   -3.325127
    108          1           0        9.107557   -3.877818   -1.574517
    109          1           0        8.063645   -4.495097   -0.267137
    110          1           0        8.121694   -2.299203    0.788646
    111          1           0        7.780053   -1.711946   -0.916403
    112          1           0       10.600890   -2.359329   -0.721085
    113          1           0       10.113580   -1.377583    0.664266
    114          1           0        8.927121   -0.140032   -1.617885
    115          1           0       10.604140   -0.172022   -3.329385
    116          1           0       11.264144   -1.540343   -2.417395
    117          1           0       11.902139    0.005146   -2.181225
    118          1           0       10.540876    1.600360   -1.123774
    119          1           0       11.245313    0.634827    0.100947
    120          1           0        9.367050    1.161185    1.558389
    121          1           0        8.179281    1.061333    0.229984
    122          1           0        9.712827    3.434442    0.089376
    123          1           0        9.361226    3.050201    1.730651
    124          1           0        7.063623    2.905002   -0.331471
    125          1           0        7.631479    5.555289    1.107878
    126          1           0        6.790224    5.216498   -0.438531
    127          1           0        8.527716    5.334896   -0.441017
    128          1           0        7.183035    3.908508    2.572328
    129          1           0        6.961051    2.279263    2.107681
    130          1           0        4.657083    2.536233    1.581649
    131          1           0        4.899311    3.930319    0.714620
    132          1           0        5.535163    4.820798    3.218260
    133          1           0        4.491157    3.383029    3.612759
    134          1           0        2.695426    4.482970    2.017161
    135          1           0        4.646051    6.297089    1.561864
    136          1           0        3.892085    7.138165    2.881986
    137          1           0        2.987000    6.741900    1.369878
    138          1           0        3.097025    4.633132    4.778930
    139          1           0        1.612061    4.539533    3.754147
    140          1           0        2.358020    6.084576    4.378994
 ---------------------------------------------------------------------

 SCF Done:  E(RwB97XD) =  -3007.86251975     A.U. after   19 cycles

 Excitation energies and oscillator strengths:

 Excited State   1:      Singlet-A      1.6808 eV  737.65 nm  f=0.3827  <S**2>=0.000
     245 -> 248       -0.15348
     246 -> 247        0.68879
     245 <- 248       -0.10040
 This state for optimization and/or second-order correction.
 Total Energy, E(TD-HF/TD-DFT) =  -3007.80075114
 Copying the excited state density for this state as the 1-particle RhoCI density.

 Excited State   2:      Singlet-A      2.3086 eV  537.05 nm  f=0.0697  <S**2>=0.000
     245 -> 247        0.60563
     246 -> 248        0.32875

 Excited State   3:      Singlet-A      3.3649 eV  368.46 nm  f=0.3040  <S**2>=0.000
     242 -> 247       -0.41103
     244 -> 247        0.22276
     245 -> 247       -0.21846
     246 -> 248        0.46299

 Excited State   4:      Singlet-A      3.4846 eV  355.81 nm  f=0.1422  <S**2>=0.000
     242 -> 247       -0.11340
     244 -> 247        0.58338
     244 -> 249       -0.10019
     245 -> 247        0.15064
     246 -> 248       -0.32175

 Excited State   5:      Singlet-A      3.6111 eV  343.34 nm  f=0.0518  <S**2>=0.000
     239 -> 247        0.25640
     239 -> 248       -0.15542
     239 -> 249        0.20559
     240 -> 247        0.38291
     240 -> 248       -0.18551
     240 -> 249        0.26154
     240 -> 250       -0.10632
     242 -> 247       -0.17877
     244 -> 247       -0.13204

 The electronic state is 1-A.
 Alpha  occ. eigenvalues --  -46.93421 -19.29947 -19.29774 -19.25253 -19.24949
 Alpha  occ. eigenvalues --  -19.24786 -19.22887 -14.46811 -14.46416 -14.44402
 Alpha  occ. eigenvalues --  -14.42897 -10.43904 -10.43745 -10.40103 -10.37844
 Alpha  occ. eigenvalues --  -10.36228 -10.36214 -10.36138 -10.35288 -10.35163
 Alpha  occ. eigenvalues --  -10.34841 -10.34135 -10.34045 -10.33997 -10.33414
 Alpha  occ. eigenvalues --  -10.32921 -10.32694 -10.32504 -10.32487 -10.32388
 Alpha  occ. eigenvalues --  -10.32343 -10.32055 -10.31992 -10.31463 -10.31228
 Alpha  occ. eigenvalues --  -10.31186 -10.31174 -10.31071 -10.30593 -10.30574
 Alpha  occ. eigenvalues --  -10.30560 -10.30520 -10.30479 -10.30478 -10.30364
 Alpha  occ. eigenvalues --  -10.30276 -10.30234 -10.30142 -10.30140 -10.29920
 Alpha  occ. eigenvalues --  -10.29876 -10.29735 -10.29625 -10.29326 -10.29313
 Alpha  occ. eigenvalues --  -10.29297 -10.29071 -10.28899 -10.28868 -10.28773
 Alpha  occ. eigenvalues --  -10.28714 -10.28567 -10.28516 -10.28441 -10.28182
 Alpha  occ. eigenvalues --  -10.27747  -3.19647  -1.93240  -1.92795  -1.92629
 Alpha  occ. eigenvalues --   -1.16690  -1.16598  -1.13213  -1.10302  -1.08684
 Alpha  occ. eigenvalues --   -1.08681  -1.06391  -1.05887  -1.04641  -1.03810
 Alpha  occ. eigenvalues --   -0.94486  -0.92455  -0.92031  -0.91505  -0.91064
 Alpha  occ. eigenvalues --   -0.91007  -0.90533  -0.89835  -0.89757  -0.88997
 Alpha  occ. eigenvalues --   -0.87833  -0.87038  -0.86270  -0.85427  -0.84774
 Alpha  occ. eigenvalues --   -0.84545  -0.84276  -0.83378  -0.83083  -0.82482
 Alpha  occ. eigenvalues --   -0.82179  -0.80909  -0.80409  -0.78990  -0.78057
 Alpha  occ. eigenvalues --   -0.77809  -0.77621  -0.77202  -0.77086  -0.76306
 Alpha  occ. eigenvalues --   -0.75147  -0.74542  -0.74241  -0.72880  -0.71923
 Alpha  occ. eigenvalues --   -0.70720  -0.70293  -0.69609  -0.68467  -0.67664
 Alpha  occ. eigenvalues --   -0.67514  -0.67286  -0.66908  -0.66249  -0.65989
 Alpha  occ. eigenvalues --   -0.65520  -0.64859  -0.64762  -0.63703  -0.62545
 Alpha  occ. eigenvalues --   -0.62268  -0.61448  -0.61202  -0.60387  -0.60059
 Alpha  occ. eigenvalues --   -0.59516  -0.58664  -0.58108  -0.57703  -0.57334
 Alpha  occ. eigenvalues --   -0.57189  -0.56687  -0.56649  -0.56439  -0.56004
 Alpha  occ. eigenvalues --   -0.55794  -0.55644  -0.55394  -0.55236  -0.55090
 Alpha  occ. eigenvalues --   -0.54923  -0.54878  -0.54615  -0.54027  -0.53963
 Alpha  occ. eigenvalues --   -0.53522  -0.53462  -0.53043  -0.52951  -0.52800
 Alpha  occ. eigenvalues --   -0.52734  -0.52387  -0.52003  -0.51870  -0.51656
 Alpha  occ. eigenvalues --   -0.51426  -0.51215  -0.51011  -0.50929  -0.50822
 Alpha  occ. eigenvalues --   -0.50572  -0.50376  -0.50285  -0.50060  -0.49754
 Alpha  occ. eigenvalues --   -0.49622  -0.49257  -0.48918  -0.48842  -0.48379
 Alpha  occ. eigenvalues --   -0.48276  -0.47838  -0.47779  -0.47702  -0.47634
 Alpha  occ. eigenvalues --   -0.47358  -0.47277  -0.47228  -0.47049  -0.46906
 Alpha  occ. eigenvalues --   -0.46744  -0.46591  -0.46394  -0.46161  -0.45787
 Alpha  occ. eigenvalues --   -0.45730  -0.45668  -0.45527  -0.45247  -0.44966
 Alpha  occ. eigenvalues --   -0.44735  -0.44594  -0.44380  -0.44248  -0.44103
 Alpha  occ. eigenvalues --   -0.44040  -0.43872  -0.43705  -0.43625  -0.43535
 Alpha  occ. eigenvalues --   -0.43246  -0.43103  -0.42972  -0.42530  -0.41835
 Alpha  occ. eigenvalues --   -0.41684  -0.41393  -0.41056  -0.40806  -0.40639
 Alpha  occ. eigenvalues --   -0.40576  -0.40549  -0.40166  -0.39865  -0.39739
 Alpha  occ. eigenvalues --   -0.39332  -0.39095  -0.38762  -0.38453  -0.38338
 Alpha  occ. eigenvalues --   -0.38095  -0.37878  -0.37541  -0.36500  -0.36230
 Alpha  occ. eigenvalues --   -0.36081  -0.35945  -0.35746  -0.34007  -0.33923
 Alpha  occ. eigenvalues --   -0.33068  -0.32805  -0.32122  -0.31076  -0.26899
 Alpha  occ. eigenvalues --   -0.22616
 Alpha virt. eigenvalues --   -0.06916  -0.00037   0.01775   0.04443   0.06105
 Alpha virt. eigenvalues --    0.06328   0.06896   0.07472   0.08289   0.09303
 Alpha virt. eigenvalues --    0.09823   0.10601   0.11408   0.12006   0.12309

 Mulliken charges:
               1
     1  Mg   0.982600
     2  C   -0.059379
     3  C   -0.128586
     4  C   -0.080150
     5  C   -0.092838
     6  N   -0.304015
     7  C   -0.072254
     8  C   -0.055341
     9  C   -0.133421
    10  C    0.071847
    11  C   -0.002759
    12  C    0.050315
    13  C   -0.028031
    14  C    0.240807
    15  O   -0.270389
    16  O   -0.413798
    17  N   -0.514919
    18  C    0.237557
    19  C   -0.162466
    20  C   -0.068785
    21  C    0.144554
    22  C    0.046909
    23  C    0.058243
    24  O   -0.238495
    25  C   -0.015209
    26  N   -0.389410
    27  C    0.102429
    28  C   -0.098775
    29  C   -0.035369
    30  C    0.052055
    31  C    0.008976
    32  C   -0.037595
    33  C   -0.052180
    34  N   -0.470247
    35  C    0.147432
    36  C   -0.178494
    37  C   -0.045985
    38  C    0.202492
    39  C    0.057333
    40  C    0.108349
    41  O   -0.224107
    42  C   -0.014854
    43  C    0.293552
    44  O   -0.266167
    45  O   -0.390066
    46  C    0.128905
    47  C    0.276281
    48  C   -0.119457
    49  C   -0.219301
    50  C    0.032116
    51  C    0.026873
    52  C   -0.038741
    53  C    0.029886
    54  C   -0.213829
    55  C    0.011637
    56  C    0.010240
    57  C    0.006102
    58  C   -0.014012
    59  C   -0.188419
    60  C    0.012987
    61  C    0.001627
    62  C   -0.017291
    63  C   -0.021988
    64  C   -0.212169
    65  C   -0.010398
    66  C    0.020406
    67  H   -0.011111
    68  H    0.021053
    69  H   -0.010106
    70  H    0.029049
    71  H    0.044289
    72  H    0.048945
    73  H    0.038191
    74  H    0.030133
    75  H    0.035931
    76  H    0.037198
    77  H    0.083514
    78  H    0.058833
    79  H    0.051882
    80  H    0.080250
    81  H    0.057328
    82  H    0.017801
    83  H    0.065710
    84  H    0.081711
    85  H    0.055039
    86  H    0.049078
    87  H    0.030795
    88  H    0.045082
    89  H    0.046232
    90  H    0.028248
    91  H    0.037757
    92  H    0.049819
    93  H    0.047064
    94  H    0.035083
    95  H    0.034934
    96  H    0.055392
    97  H    0.050370
    98  H    0.078005
    99  H    0.057200
   100  H    0.061360
   101  H    0.069467
   102  H    0.050146
   103  H    0.053242
   104  H    0.028972
   105  H    0.018012
   106  H    0.059797
   107  H    0.045704
   108  H    0.022304
   109  H    0.019444
   110  H    0.040251
   111  H    0.021175
   112  H    0.016456
   113  H    0.018679
   114  H    0.015226
   115  H    0.034267
   116  H    0.011013
   117  H    0.024118
   118  H    0.009626
   119  H    0.019914
   120  H    0.016822
   121  H    0.014094
   122  H    0.000260
   123  H    0.007401
   124  H    0.025876
   125  H    0.032653
   126  H    0.026654
   127  H    0.038364
   128  H    0.020183
   129  H    0.016352
   130  H    0.013644
   131  H    0.009481
   132  H    0.024469
   133  H    0.023784
   134  H    0.013024
   135  H    0.015647
   136  H    0.031958
   137  H    0.027653
   138  H    0.016033
   139  H    0.035577
   140  H    0.027381
 Sum of Mulliken charges =  -0.00000

 Dipole moment (field-independent basis, Debye):
    X=              5.7478    Y=              5.3681    Z=             -1.5526  Tot=              8.0165
 Quadrupole moment (field-independent basis, Debye-Ang):
   XX=           -367.9341   YY=           -429.6850   ZZ=           -409.9408
   XY=            -27.9752   XZ=             11.4285   YZ=              5.0236

 Normal termination of Gaussian 16 at Wed May  4 10:39:25 2022.
