 Gaussian 16, Revision A.03,
 Gaussian 16:  ES64L-G16RevA.03 25-Dec-2016

 --------------------
 #p ZINDO=(nstates=5)
 --------------------

 ------------------------------
 step_1601_chromophore_12 ZINDO
 ------------------------------
 Symbolic Z-matrix:
 Charge =  0 Multiplicity = 1

                         Standard orientation:
 ---------------------------------------------------------------------
 Center     Atomic      Atomic             Coordinates (Angstroms)
 Number     Number       Type             X           Y           Z
 ---------------------------------------------------------------------
      1         12           0       -4.155643    0.423045   -0.236548
      2          6           0       -3.085176   -2.853084    0.573152
      3          6           0       -0.889940    1.431738   -0.096642
      4          6           0       -5.165547    3.425625   -1.079225
      5          6           0       -7.447421   -0.670763   -0.031482
      6          7           0       -2.240476   -0.633608    0.310482
      7          6           0       -2.095278   -2.011842    0.455028
      8          6           0       -0.549899   -2.356649    0.444978
      9          6           0        0.098804   -0.924308    0.435017
     10          6           0       -1.108397    0.026604    0.270607
     11          6           0        0.916055   -0.508473    1.753261
     12          6           0       -0.117968   -3.188651   -0.722174
     13          6           0        1.143492   -4.121827   -0.417452
     14          6           0        2.151532   -4.298271   -1.529262
     15          8           0        1.949489   -4.079305   -2.726548
     16          8           0        3.402996   -4.712247   -1.046435
     17          7           0       -3.087493    2.119718   -0.467719
     18          6           0       -1.768732    2.386245   -0.376795
     19          6           0       -1.457346    3.750671   -0.767457
     20          6           0       -2.733410    4.387475   -1.064965
     21          6           0       -3.757019    3.310793   -0.925366
     22          6           0       -0.038627    4.282046   -0.896994
     23          6           0       -2.999527    5.811204   -1.571007
     24          8           0       -4.103193    6.194947   -1.944992
     25          6           0       -1.906070    6.796485   -1.760336
     26          7           0       -6.030438    1.280817   -0.336486
     27          6           0       -6.193589    2.560584   -0.852052
     28          6           0       -7.663267    2.946621   -1.050929
     29          6           0       -8.369771    1.707486   -0.502150
     30          6           0       -7.250267    0.718835   -0.278723
     31          6           0       -8.118336    4.231423   -0.153889
     32          6           0       -9.454211    1.214926   -1.511081
     33          6           0       -8.995417    0.723036   -2.935832
     34          7           0       -5.069711   -1.340432    0.228513
     35          6           0       -6.461069   -1.645726    0.217794
     36          6           0       -6.614673   -2.957206    0.694349
     37          6           0       -5.323946   -3.504599    0.813573
     38          6           0       -4.410546   -2.478135    0.501968
     39          6           0       -7.966313   -3.637345    0.900873
     40          6           0       -4.646819   -4.728404    1.105918
     41          8           0       -5.056828   -5.859341    1.387756
     42          6           0       -3.155485   -4.408194    0.902113
     43          6           0       -2.387242   -4.541608    2.216175
     44          8           0       -2.526323   -3.862258    3.253536
     45          8           0       -1.467412   -5.599244    2.100220
     46          6           0       -0.449267   -5.594623    3.188415
     47          6           0        4.559626   -4.771181   -2.036285
     48          6           0        5.849683   -4.510378   -1.405640
     49          6           0        6.891556   -3.781277   -1.873309
     50          6           0        7.066232   -3.141762   -3.243203
     51          6           0        8.207709   -3.690188   -0.988536
     52          6           0        8.421261   -2.300352   -0.259955
     53          6           0        9.848639   -1.661912   -0.354505
     54          6           0        9.918755   -0.361503   -1.222024
     55          6           0       10.950509   -0.498990   -2.349646
     56          6           0       10.284725    0.862342   -0.363425
     57          6           0        9.167194    1.420270    0.518750
     58          6           0        9.000392    2.894694    0.713741
     59          6           0        7.517787    3.491842    0.466971
     60          6           0        7.678246    5.016461    0.161532
     61          6           0        6.785824    3.298164    1.760663
     62          6           0        5.229649    3.461939    1.641485
     63          6           0        4.700944    4.190795    2.911397
     64          6           0        3.357577    4.981256    2.725001
     65          6           0        3.708382    6.392355    2.108443
     66          6           0        2.528193    5.089698    3.968506
     67          1           0        0.155873    1.736319   -0.022488
     68          1           0       -5.424926    4.450606   -1.350967
     69          1           0       -8.473529   -1.039503    0.034372
     70          1           0       -0.288092   -2.855518    1.378237
     71          1           0        0.756550   -0.826571   -0.427908
     72          1           0        0.477236    0.252760    2.398903
     73          1           0        1.931808   -0.240319    1.464353
     74          1           0        1.060700   -1.301714    2.486290
     75          1           0        0.149957   -2.484977   -1.509761
     76          1           0       -0.983173   -3.751302   -1.072358
     77          1           0        0.660871   -5.086582   -0.265957
     78          1           0        1.637320   -3.816366    0.503928
     79          1           0        0.764130    3.544772   -0.878242
     80          1           0        0.151871    5.117745   -0.223943
     81          1           0       -0.067232    4.668637   -1.915434
     82          1           0       -1.136242    6.562670   -1.024346
     83          1           0       -2.413561    7.740037   -1.560921
     84          1           0       -1.433980    6.874473   -2.740444
     85          1           0       -7.886951    3.132596   -2.101204
     86          1           0       -8.763720    1.781006    0.511175
     87          1           0       -8.830879    3.962070    0.626820
     88          1           0       -8.581058    5.001094   -0.771627
     89          1           0       -7.300152    4.652443    0.429372
     90          1           0      -10.012149    2.112734   -1.775622
     91          1           0      -10.114772    0.573246   -0.928442
     92          1           0       -9.501169   -0.229822   -3.091374
     93          1           0       -7.917015    0.641739   -3.063528
     94          1           0       -9.302126    1.412219   -3.722042
     95          1           0       -8.787313   -3.110326    1.387896
     96          1           0       -7.727973   -4.464894    1.568531
     97          1           0       -8.361486   -4.003822   -0.046533
     98          1           0       -2.816450   -4.986317    0.042152
     99          1           0       -0.327680   -4.585463    3.582340
    100          1           0        0.491727   -5.925473    2.748670
    101          1           0       -0.913929   -6.199128    3.967398
    102          1           0        4.383136   -4.110589   -2.885158
    103          1           0        4.530585   -5.786791   -2.432149
    104          1           0        5.985805   -4.913608   -0.401908
    105          1           0        6.056690   -3.111022   -3.652593
    106          1           0        7.717057   -3.750839   -3.870385
    107          1           0        7.396722   -2.106141   -3.325127
    108          1           0        9.107557   -3.877818   -1.574517
    109          1           0        8.063645   -4.495097   -0.267137
    110          1           0        8.121694   -2.299203    0.788646
    111          1           0        7.780053   -1.711946   -0.916403
    112          1           0       10.600890   -2.359329   -0.721085
    113          1           0       10.113580   -1.377583    0.664266
    114          1           0        8.927121   -0.140032   -1.617885
    115          1           0       10.604140   -0.172022   -3.329385
    116          1           0       11.264144   -1.540343   -2.417395
    117          1           0       11.902139    0.005146   -2.181225
    118          1           0       10.540876    1.600360   -1.123774
    119          1           0       11.245313    0.634827    0.100947
    120          1           0        9.367050    1.161185    1.558389
    121          1           0        8.179281    1.061333    0.229984
    122          1           0        9.712827    3.434442    0.089376
    123          1           0        9.361226    3.050201    1.730651
    124          1           0        7.063623    2.905002   -0.331471
    125          1           0        7.631479    5.555289    1.107878
    126          1           0        6.790224    5.216498   -0.438531
    127          1           0        8.527716    5.334896   -0.441017
    128          1           0        7.183035    3.908508    2.572328
    129          1           0        6.961051    2.279263    2.107681
    130          1           0        4.657083    2.536233    1.581649
    131          1           0        4.899311    3.930319    0.714620
    132          1           0        5.535163    4.820798    3.218260
    133          1           0        4.491157    3.383029    3.612759
    134          1           0        2.695426    4.482970    2.017161
    135          1           0        4.646051    6.297089    1.561864
    136          1           0        3.892085    7.138165    2.881986
    137          1           0        2.987000    6.741900    1.369878
    138          1           0        3.097025    4.633132    4.778930
    139          1           0        1.612061    4.539533    3.754147
    140          1           0        2.358020    6.084576    4.378994
 ---------------------------------------------------------------------

 SCF Done:  E(RZINDO/S) =  -474.085032424     A.U. after   19 cycles

 Excitation energies and oscillator strengths:

 Excited State   1:      Singlet-A      1.3128 eV  944.42 nm  f=0.5565  <S**2>=0.000
     175 ->178        -0.14860
     176 ->177         0.67420
 This state for optimization and/or second-order correction.
 Total Energy, E(CIS/TDA) =  -474.036787553
 Copying the excited state density for this state as the 1-particle RhoCI density.

 Excited State   2:      Singlet-A      2.0096 eV  616.97 nm  f=0.0063  <S**2>=0.000
     175 ->177         0.47789
     176 ->178         0.48702

 Excited State   3:      Singlet-A      2.8824 eV  430.14 nm  f=0.0002  <S**2>=0.000
     167 ->177         0.17236
     167 ->178        -0.11427
     167 ->179        -0.26615
     167 ->181         0.11062
     167 ->186        -0.13496
     168 ->177         0.24334
     168 ->178        -0.15664
     168 ->179        -0.35919
     168 ->181         0.14793
     168 ->186        -0.18040

 Excited State   4:      Singlet-A      2.9328 eV  422.75 nm  f=0.2362  <S**2>=0.000
     175 ->177         0.21288
     176 ->178        -0.19086
     176 ->179         0.56195
     176 ->181         0.19380
     176 ->182         0.14539

 Excited State   5:      Singlet-A      2.9747 eV  416.80 nm  f=0.7989  <S**2>=0.000
     170 ->177         0.11439
     175 ->177        -0.39790
     176 ->178         0.44284
     176 ->179         0.30038

 The electronic state is 1-A.
 Alpha  occ. eigenvalues --   -1.84229  -1.81398  -1.80342  -1.71092  -1.69716
 Alpha  occ. eigenvalues --   -1.68779  -1.65951  -1.61304  -1.60911  -1.57659
 Alpha  occ. eigenvalues --   -1.55153  -1.51855  -1.48487  -1.47430  -1.46489
 Alpha  occ. eigenvalues --   -1.43268  -1.42137  -1.40308  -1.39098  -1.37518
 Alpha  occ. eigenvalues --   -1.35573  -1.33215  -1.32141  -1.31346  -1.28964
 Alpha  occ. eigenvalues --   -1.27131  -1.24448  -1.22438  -1.21509  -1.19372
 Alpha  occ. eigenvalues --   -1.17537  -1.17031  -1.15711  -1.14434  -1.13978
 Alpha  occ. eigenvalues --   -1.12698  -1.11131  -1.10067  -1.05162  -1.02780
 Alpha  occ. eigenvalues --   -1.02705  -1.01571  -0.99266  -0.98635  -0.96849
 Alpha  occ. eigenvalues --   -0.96177  -0.94984  -0.94217  -0.93213  -0.92443
 Alpha  occ. eigenvalues --   -0.90978  -0.90294  -0.89941  -0.88137  -0.86984
 Alpha  occ. eigenvalues --   -0.85436  -0.84223  -0.83454  -0.81604  -0.81069
 Alpha  occ. eigenvalues --   -0.79516  -0.78525  -0.77561  -0.76699  -0.76503
 Alpha  occ. eigenvalues --   -0.76259  -0.75218  -0.74922  -0.74135  -0.73978
 Alpha  occ. eigenvalues --   -0.72843  -0.72641  -0.72310  -0.71812  -0.71414
 Alpha  occ. eigenvalues --   -0.70425  -0.69576  -0.69331  -0.69166  -0.68126
 Alpha  occ. eigenvalues --   -0.67893  -0.67094  -0.66964  -0.66527  -0.66224
 Alpha  occ. eigenvalues --   -0.65515  -0.64865  -0.64403  -0.64057  -0.63676
 Alpha  occ. eigenvalues --   -0.62901  -0.62763  -0.62347  -0.61944  -0.61838
 Alpha  occ. eigenvalues --   -0.61502  -0.61043  -0.60922  -0.60539  -0.60211
 Alpha  occ. eigenvalues --   -0.59882  -0.59438  -0.59026  -0.58721  -0.58592
 Alpha  occ. eigenvalues --   -0.58183  -0.57786  -0.57709  -0.56779  -0.56432
 Alpha  occ. eigenvalues --   -0.56195  -0.55970  -0.55679  -0.55026  -0.54957
 Alpha  occ. eigenvalues --   -0.54550  -0.54261  -0.53486  -0.53449  -0.53247
 Alpha  occ. eigenvalues --   -0.52518  -0.52383  -0.52113  -0.51787  -0.51660
 Alpha  occ. eigenvalues --   -0.51199  -0.50952  -0.50754  -0.50606  -0.50578
 Alpha  occ. eigenvalues --   -0.50278  -0.49699  -0.49447  -0.49170  -0.49077
 Alpha  occ. eigenvalues --   -0.48960  -0.48723  -0.48388  -0.48270  -0.48033
 Alpha  occ. eigenvalues --   -0.47613  -0.47593  -0.47368  -0.47074  -0.46704
 Alpha  occ. eigenvalues --   -0.46604  -0.46509  -0.46071  -0.45769  -0.45304
 Alpha  occ. eigenvalues --   -0.45108  -0.44825  -0.44608  -0.44478  -0.44107
 Alpha  occ. eigenvalues --   -0.43998  -0.43804  -0.43035  -0.42548  -0.42180
 Alpha  occ. eigenvalues --   -0.41975  -0.41641  -0.41247  -0.39541  -0.39474
 Alpha  occ. eigenvalues --   -0.38538  -0.36522  -0.36116  -0.35238  -0.34115
 Alpha  occ. eigenvalues --   -0.33849  -0.33251  -0.32806  -0.31468  -0.27487
 Alpha  occ. eigenvalues --   -0.21569
 Alpha virt. eigenvalues --   -0.08187  -0.02274  -0.01049   0.01230   0.01307
 Alpha virt. eigenvalues --    0.02634   0.03027   0.03410   0.04036   0.04458
 Alpha virt. eigenvalues --    0.05833   0.07036   0.07197   0.07590   0.08074

 Mulliken charges:
               1
     1  Mg   0.422095
     2  C   -0.001846
     3  C   -0.077904
     4  C   -0.072578
     5  C   -0.076664
     6  N   -0.260970
     7  C    0.087457
     8  C   -0.003732
     9  C   -0.000476
    10  C    0.182168
    11  C   -0.057839
    12  C   -0.021862
    13  C    0.003470
    14  C    0.468358
    15  O   -0.518803
    16  O   -0.290517
    17  N   -0.354123
    18  C    0.155758
    19  C    0.035954
    20  C   -0.046752
    21  C    0.146143
    22  C   -0.038867
    23  C    0.333826
    24  O   -0.516233
    25  C   -0.032127
    26  N   -0.272569
    27  C    0.169101
    28  C    0.006395
    29  C    0.004975
    30  C    0.101082
    31  C   -0.059003
    32  C   -0.035648
    33  C   -0.053000
    34  N   -0.329352
    35  C    0.059123
    36  C    0.012325
    37  C   -0.063841
    38  C    0.106862
    39  C   -0.047484
    40  C    0.333527
    41  O   -0.541113
    42  C    0.054966
    43  C    0.486495
    44  O   -0.526519
    45  O   -0.283802
    46  C    0.069548
    47  C    0.113884
    48  C   -0.069977
    49  C   -0.015234
    50  C   -0.043901
    51  C   -0.035754
    52  C   -0.043714
    53  C   -0.038919
    54  C   -0.010844
    55  C   -0.058628
    56  C   -0.030061
    57  C   -0.035979
    58  C   -0.046163
    59  C   -0.009074
    60  C   -0.059342
    61  C   -0.024308
    62  C   -0.047650
    63  C   -0.037445
    64  C   -0.011588
    65  C   -0.061730
    66  C   -0.056136
    67  H    0.018863
    68  H    0.040636
    69  H    0.024021
    70  H    0.032257
    71  H    0.035270
    72  H    0.030198
    73  H    0.017289
    74  H    0.020233
    75  H    0.029113
    76  H    0.029276
    77  H    0.050895
    78  H    0.042950
    79  H    0.034625
    80  H    0.040765
    81  H    0.028207
    82  H    0.020909
    83  H    0.044078
    84  H    0.051749
    85  H    0.046338
    86  H    0.040941
    87  H    0.020093
    88  H    0.024412
    89  H    0.026296
    90  H    0.007161
    91  H    0.026392
    92  H    0.022527
    93  H    0.027010
    94  H    0.018340
    95  H    0.025014
    96  H    0.025923
    97  H    0.028512
    98  H    0.061886
    99  H    0.044327
   100  H    0.035962
   101  H    0.053388
   102  H    0.055038
   103  H    0.046400
   104  H    0.032461
   105  H    0.014760
   106  H    0.033341
   107  H    0.030787
   108  H    0.026853
   109  H    0.017344
   110  H    0.030004
   111  H    0.023409
   112  H    0.025620
   113  H    0.014642
   114  H    0.022307
   115  H    0.018286
   116  H    0.012066
   117  H    0.017713
   118  H    0.006453
   119  H    0.024512
   120  H    0.014481
   121  H    0.020627
   122  H    0.009507
   123  H    0.016092
   124  H    0.032015
   125  H    0.025663
   126  H    0.010014
   127  H    0.025863
   128  H    0.027164
   129  H    0.008564
   130  H    0.012602
   131  H    0.017661
   132  H    0.029678
   133  H    0.015874
   134  H    0.015976
   135  H    0.010542
   136  H    0.023130
   137  H    0.016765
   138  H    0.013591
   139  H    0.020382
   140  H    0.022522
 Sum of Mulliken charges =  -0.00000

 Dipole moment (field-independent basis, Debye):
    X=              9.7161    Y=              7.8287    Z=             -2.3563  Tot=             12.6981
 N-N= 4.500974795955D+03 E-N= 0.000000000000D+00  KE=-9.675514476961D+03
 Leave Link  601 at Wed May  4 10:54:11 2022, MaxMem=  6710886400 cpu:               1.1 elap:               0.1
 (Enter /sw/apps/gaussian-16.0/g16/l9999.exe)
 1\1\GINC-BP1-COMPUTE128\SP\RZINDO CIS\STO-3G\C55H74Mg1N4O6\OF15641\04-
 May-2022\0\\#p ZINDO=(nstates=5)\\step_1601_chromophore_12 ZINDO\\0,1\
 Mg,0,48.183,15.897,28.484\C,0,46.177,15.619,31.388\C,0,50.25,18.,30.21
 8\C,0,50.072,16.061,25.81\C,0,45.832,14.009,26.757\N,0,48.095,16.777,3
 0.558\C,0,47.232,16.364,31.571\C,0,47.758,16.947,32.946\C,0,48.943,17.
 866,32.473\C,0,49.057,17.572,30.96\C,0,48.742,19.445,32.685\C,0,48.199
 ,15.902,33.923\C,0,48.032,16.337,35.452\C,0,49.109,15.892,36.414\O,0,4

 Normal termination of Gaussian 16 at Wed May  4 10:54:11 2022.
