 Gaussian 16, Revision A.03,
 Gaussian 16:  ES64L-G16RevA.03 25-Dec-2016

 ------------------------------
 #p blyp/Def2SVP td=(nstates=5)
 ------------------------------

 ---------------------------------------------------
 step_1301_chromophore_13 TDDFT with blyp functional
 ---------------------------------------------------
 Symbolic Z-matrix:
 Charge =  0 Multiplicity = 1

                         Standard orientation:
 ---------------------------------------------------------------------
 Center     Atomic      Atomic             Coordinates (Angstroms)
 Number     Number       Type             X           Y           Z
 ---------------------------------------------------------------------
      1         12           0        5.952426    0.451753    0.288428
      2          6           0        3.666505   -2.169059   -0.072534
      3          6           0        3.738785    2.434212   -1.458118
      4          6           0        8.466454    2.634620    0.016772
      5          6           0        8.297991   -2.002639    1.460968
      6          7           0        3.967652    0.076215   -0.657785
      7          6           0        3.189371   -0.999817   -0.592190
      8          6           0        1.752125   -0.762728   -1.118385
      9          6           0        1.821686    0.730352   -1.686922
     10          6           0        3.227922    1.200745   -1.141683
     11          6           0        1.677788    0.753877   -3.221317
     12          6           0        0.622339   -1.042275   -0.063591
     13          6           0       -0.614166   -1.793841   -0.593633
     14          6           0       -2.034325   -1.354555   -0.259594
     15          8           0       -2.351231   -0.577583    0.617749
     16          8           0       -2.984127   -2.174990   -0.890848
     17          7           0        6.054863    2.375613   -0.544634
     18          6           0        5.045419    3.023505   -1.148644
     19          6           0        5.430914    4.369681   -1.454323
     20          6           0        6.839972    4.484972   -1.045842
     21          6           0        7.189859    3.113657   -0.512165
     22          6           0        4.515929    5.255297   -2.113523
     23          6           0        7.765502    5.633418   -1.054876
     24          8           0        8.991683    5.524340   -0.767470
     25          6           0        7.200518    6.964510   -1.354865
     26          7           0        8.000786    0.366390    0.763018
     27          6           0        8.830332    1.446550    0.669497
     28          6           0       10.243794    1.253489    1.441710
     29          6           0       10.033531   -0.255460    1.927046
     30          6           0        8.731108   -0.713703    1.312199
     31          6           0       11.508699    1.331894    0.492352
     32          6           0       10.124140   -0.548107    3.506422
     33          6           0        9.226118    0.256682    4.398989
     34          7           0        5.971997   -1.585761    0.842171
     35          6           0        6.982329   -2.441699    1.196089
     36          6           0        6.514232   -3.797727    1.244300
     37          6           0        5.225435   -3.729664    0.702794
     38          6           0        4.910556   -2.363095    0.564798
     39          6           0        7.281888   -5.000824    1.722086
     40          6           0        4.097711   -4.532641    0.341601
     41          8           0        4.031797   -5.778712    0.370428
     42          6           0        2.984816   -3.587042   -0.107305
     43          6           0        2.570208   -3.994647   -1.500743
     44          8           0        3.178393   -3.880262   -2.579937
     45          8           0        1.347760   -4.629496   -1.392492
     46          6           0        0.660675   -4.925512   -2.671659
     47          6           0       -4.262745   -2.288956   -0.237612
     48          6           0       -5.266783   -1.501545   -1.117878
     49          6           0       -6.634083   -1.322150   -1.034962
     50          6           0       -7.393484   -1.975038    0.067723
     51          6           0       -7.302734   -0.290517   -1.920576
     52          6           0       -7.467197    1.025612   -1.137746
     53          6           0       -8.916524    1.438302   -0.890078
     54          6           0       -9.318351    2.500339    0.215620
     55          6           0       -8.437254    3.792255    0.176022
     56          6           0       -9.376731    1.948338    1.686517
     57          6           0      -10.573783    2.363116    2.548518
     58          6           0      -11.693315    1.384097    2.522996
     59          6           0      -13.123584    1.916426    2.227598
     60          6           0      -13.434705    2.957711    3.352681
     61          6           0      -14.196155    0.719309    2.269112
     62          6           0      -14.825228    0.447149    0.828935
     63          6           0      -14.545056   -0.875511    0.184101
     64          6           0      -13.738390   -0.760890   -1.142741
     65          6           0      -14.178884   -1.830731   -2.186901
     66          6           0      -12.170095   -0.507438   -0.990946
     67          1           0        2.950988    3.021396   -1.933291
     68          1           0        9.312157    3.325166    0.027628
     69          1           0        9.006010   -2.724411    1.872711
     70          1           0        1.574854   -1.526967   -1.875313
     71          1           0        1.018044    1.354729   -1.296754
     72          1           0        2.618382    0.970854   -3.727968
     73          1           0        0.987299    1.571470   -3.427050
     74          1           0        1.274305   -0.162180   -3.653227
     75          1           0        0.197666   -0.064253    0.162882
     76          1           0        0.973113   -1.507368    0.857934
     77          1           0       -0.427292   -2.741498   -0.087919
     78          1           0       -0.492439   -1.863206   -1.674853
     79          1           0        4.816422    6.301813   -2.162411
     80          1           0        3.558965    5.290347   -1.593472
     81          1           0        4.403494    4.831299   -3.111603
     82          1           0        7.981573    7.720571   -1.439677
     83          1           0        6.527081    7.248080   -0.545996
     84          1           0        6.751210    6.996282   -2.347401
     85          1           0       10.298808    1.984597    2.248007
     86          1           0       10.787061   -0.856714    1.417262
     87          1           0       11.560958    0.431323   -0.119768
     88          1           0       12.358717    1.340760    1.175434
     89          1           0       11.383744    2.115322   -0.254661
     90          1           0       11.128175   -0.267202    3.824825
     91          1           0        9.996084   -1.619436    3.658382
     92          1           0        8.598348    0.724880    3.641811
     93          1           0        9.597594    1.096419    4.985738
     94          1           0        8.654222   -0.435596    5.018079
     95          1           0        7.710560   -5.437892    0.820531
     96          1           0        6.541330   -5.709497    2.091200
     97          1           0        8.036674   -4.767446    2.471979
     98          1           0        2.235302   -3.582651    0.684501
     99          1           0        1.261755   -5.666363   -3.198400
    100          1           0        0.683294   -3.981883   -3.216834
    101          1           0       -0.337940   -5.361115   -2.697608
    102          1           0       -4.224078   -1.870365    0.768774
    103          1           0       -4.614034   -3.312077   -0.103089
    104          1           0       -4.809034   -0.924327   -1.920507
    105          1           0       -7.124799   -1.494203    1.008212
    106          1           0       -7.093317   -3.014994    0.196913
    107          1           0       -8.474130   -1.896617   -0.048727
    108          1           0       -8.186245   -0.818952   -2.279628
    109          1           0       -6.723242   -0.019639   -2.803363
    110          1           0       -6.995523    1.920802   -1.544003
    111          1           0       -7.127588    0.737287   -0.143230
    112          1           0       -9.426509    0.538117   -0.547045
    113          1           0       -9.501827    1.648673   -1.784912
    114          1           0      -10.309551    2.859430   -0.061890
    115          1           0       -9.031193    4.644929    0.505273
    116          1           0       -8.184298    4.050689   -0.852576
    117          1           0       -7.581892    3.676694    0.841465
    118          1           0       -8.532758    2.394905    2.211293
    119          1           0       -9.265044    0.864745    1.648648
    120          1           0      -10.957417    3.335403    2.237163
    121          1           0      -10.236597    2.508639    3.574963
    122          1           0      -11.739128    1.071018    3.566651
    123          1           0      -11.447578    0.497437    1.937085
    124          1           0      -13.064430    2.463388    1.286366
    125          1           0      -12.635822    3.141350    4.070071
    126          1           0      -14.298033    2.755832    3.987359
    127          1           0      -13.589196    3.927090    2.876859
    128          1           0      -15.070622    0.828291    2.910923
    129          1           0      -13.685268   -0.144895    2.693824
    130          1           0      -14.547886    1.252010    0.147487
    131          1           0      -15.894456    0.512119    1.026871
    132          1           0      -15.451228   -1.446471   -0.016726
    133          1           0      -13.912787   -1.415601    0.888922
    134          1           0      -14.014262    0.220840   -1.527955
    135          1           0      -14.932599   -1.431576   -2.866324
    136          1           0      -14.518692   -2.694346   -1.615450
    137          1           0      -13.253568   -2.077864   -2.707129
    138          1           0      -11.939103    0.551863   -1.102897
    139          1           0      -11.595514   -1.108363   -1.696112
    140          1           0      -11.874149   -0.769349    0.025221
 ---------------------------------------------------------------------

 SCF Done:  E(RB-LYP) =  -3007.36638965     A.U. after   21 cycles

 Excitation energies and oscillator strengths:

 Excited State   1:      Singlet-A      1.6375 eV  757.16 nm  f=0.0029  <S**2>=0.000
     244 -> 247        0.70386
 This state for optimization and/or second-order correction.
 Total Energy, E(TD-HF/TD-DFT) =  -3007.30621309
 Copying the excited state density for this state as the 1-particle RhoCI density.

 Excited State   2:      Singlet-A      1.7865 eV  694.02 nm  f=0.3352  <S**2>=0.000
     243 -> 247        0.10980
     245 -> 248       -0.11495
     245 -> 249        0.12406
     246 -> 247        0.69074
     246 <- 247       -0.16483

 Excited State   3:      Singlet-A      1.8482 eV  670.82 nm  f=0.0209  <S**2>=0.000
     243 -> 247        0.62164
     245 -> 247        0.31332

 Excited State   4:      Singlet-A      1.9450 eV  637.47 nm  f=0.0000  <S**2>=0.000
     242 -> 247        0.70711

 Excited State   5:      Singlet-A      2.0125 eV  616.07 nm  f=0.0834  <S**2>=0.000
     243 -> 247       -0.31306
     245 -> 247        0.58286
     246 -> 248        0.14956
     246 -> 249       -0.15360

 The electronic state is 1-A.
 Alpha  occ. eigenvalues --  -46.27670 -18.82400 -18.81856 -18.77921 -18.77443
 Alpha  occ. eigenvalues --  -18.75588 -18.74686 -14.03540 -14.03361 -14.01578
 Alpha  occ. eigenvalues --  -14.01120 -10.05056 -10.04865  -9.99460  -9.99067
 Alpha  occ. eigenvalues --   -9.98264  -9.97930  -9.96745  -9.96685  -9.96579
 Alpha  occ. eigenvalues --   -9.96533  -9.96360  -9.95728  -9.95520  -9.94963
 Alpha  occ. eigenvalues --   -9.94944  -9.94851  -9.94696  -9.94670  -9.94245
 Alpha  occ. eigenvalues --   -9.93970  -9.93747  -9.93606  -9.93561  -9.93435
 Alpha  occ. eigenvalues --   -9.93376  -9.93079  -9.92882  -9.92708  -9.92687
 Alpha  occ. eigenvalues --   -9.92579  -9.92576  -9.92530  -9.92517  -9.92445
 Alpha  occ. eigenvalues --   -9.92425  -9.92239  -9.92130  -9.92049  -9.91698
 Alpha  occ. eigenvalues --   -9.91676  -9.91642  -9.91525  -9.91440  -9.91287
 Alpha  occ. eigenvalues --   -9.91190  -9.90934  -9.90933  -9.90891  -9.90823
 Alpha  occ. eigenvalues --   -9.90813  -9.90792  -9.90778  -9.90622  -9.90520
 Alpha  occ. eigenvalues --   -9.90366  -2.92224  -1.72647  -1.72098  -1.71945
 Alpha  occ. eigenvalues --   -0.98038  -0.97244  -0.90633  -0.90143  -0.89157
 Alpha  occ. eigenvalues --   -0.88813  -0.86884  -0.86008  -0.85179  -0.84374
 Alpha  occ. eigenvalues --   -0.75837  -0.73493  -0.72995  -0.72709  -0.72442
 Alpha  occ. eigenvalues --   -0.71814  -0.71535  -0.71113  -0.70656  -0.70279
 Alpha  occ. eigenvalues --   -0.70049  -0.69119  -0.67805  -0.67646  -0.67191
 Alpha  occ. eigenvalues --   -0.66516  -0.66227  -0.65526  -0.65043  -0.64487
 Alpha  occ. eigenvalues --   -0.64074  -0.62592  -0.62299  -0.61922  -0.61023
 Alpha  occ. eigenvalues --   -0.60769  -0.60172  -0.59833  -0.59125  -0.58839
 Alpha  occ. eigenvalues --   -0.58409  -0.57725  -0.56301  -0.55540  -0.54784
 Alpha  occ. eigenvalues --   -0.54239  -0.54007  -0.53050  -0.52720  -0.51603
 Alpha  occ. eigenvalues --   -0.51053  -0.50700  -0.50564  -0.50343  -0.49454
 Alpha  occ. eigenvalues --   -0.49441  -0.48698  -0.48452  -0.47595  -0.46492
 Alpha  occ. eigenvalues --   -0.46378  -0.46229  -0.45916  -0.45284  -0.45115
 Alpha  occ. eigenvalues --   -0.44873  -0.44037  -0.42910  -0.42759  -0.42393
 Alpha  occ. eigenvalues --   -0.42207  -0.42062  -0.41628  -0.41534  -0.41290
 Alpha  occ. eigenvalues --   -0.40918  -0.40419  -0.40352  -0.40240  -0.39968
 Alpha  occ. eigenvalues --   -0.39893  -0.39829  -0.39658  -0.39406  -0.39364
 Alpha  occ. eigenvalues --   -0.39027  -0.38767  -0.38746  -0.38705  -0.38498
 Alpha  occ. eigenvalues --   -0.38331  -0.38282  -0.37735  -0.37492  -0.37441
 Alpha  occ. eigenvalues --   -0.37175  -0.36891  -0.36804  -0.36736  -0.36556
 Alpha  occ. eigenvalues --   -0.36350  -0.36187  -0.36002  -0.35619  -0.35553
 Alpha  occ. eigenvalues --   -0.35464  -0.35194  -0.35085  -0.34945  -0.34810
 Alpha  occ. eigenvalues --   -0.34521  -0.34416  -0.34370  -0.34223  -0.33925
 Alpha  occ. eigenvalues --   -0.33861  -0.33651  -0.33439  -0.33115  -0.33096
 Alpha  occ. eigenvalues --   -0.33009  -0.32745  -0.32380  -0.32247  -0.32148
 Alpha  occ. eigenvalues --   -0.31986  -0.31858  -0.31726  -0.31559  -0.31470
 Alpha  occ. eigenvalues --   -0.31286  -0.31140  -0.30897  -0.30832  -0.30455
 Alpha  occ. eigenvalues --   -0.30402  -0.30257  -0.29940  -0.29911  -0.29587
 Alpha  occ. eigenvalues --   -0.29468  -0.29285  -0.29217  -0.29162  -0.28834
 Alpha  occ. eigenvalues --   -0.28788  -0.28611  -0.28110  -0.28102  -0.27702
 Alpha  occ. eigenvalues --   -0.27272  -0.26905  -0.26570  -0.26388  -0.26180
 Alpha  occ. eigenvalues --   -0.26164  -0.26096  -0.25898  -0.25248  -0.25204
 Alpha  occ. eigenvalues --   -0.24811  -0.24671  -0.24487  -0.24153  -0.23858
 Alpha  occ. eigenvalues --   -0.23530  -0.22895  -0.22554  -0.22173  -0.20824
 Alpha  occ. eigenvalues --   -0.20254  -0.19231  -0.18833  -0.18015  -0.17493
 Alpha  occ. eigenvalues --   -0.16119
 Alpha virt. eigenvalues --   -0.12083  -0.06662  -0.06415  -0.05203  -0.04097
 Alpha virt. eigenvalues --   -0.03511  -0.02721  -0.01967  -0.01787   0.00211
 Alpha virt. eigenvalues --    0.00917   0.01708   0.01774   0.02109   0.02210

 Mulliken charges:
               1
     1  Mg   0.693187
     2  C   -0.044976
     3  C   -0.043141
     4  C   -0.009973
     5  C   -0.108538
     6  N   -0.230033
     7  C   -0.078072
     8  C    0.005263
     9  C   -0.002084
    10  C    0.027168
    11  C    0.120051
    12  C    0.105860
    13  C    0.074109
    14  C    0.106352
    15  O   -0.168456
    16  O   -0.286049
    17  N   -0.255974
    18  C    0.124664
    19  C   -0.137570
    20  C    0.041252
    21  C    0.087540
    22  C    0.182702
    23  C   -0.093169
    24  O   -0.198498
    25  C    0.134872
    26  N   -0.254695
    27  C    0.002075
    28  C   -0.013161
    29  C    0.049484
    30  C    0.052207
    31  C    0.122019
    32  C    0.089917
    33  C    0.063973
    34  N   -0.224032
    35  C    0.113234
    36  C   -0.192914
    37  C    0.079893
    38  C    0.092393
    39  C    0.193896
    40  C   -0.083801
    41  O   -0.159801
    42  C    0.135880
    43  C    0.142465
    44  O   -0.197316
    45  O   -0.282922
    46  C    0.228221
    47  C    0.318997
    48  C   -0.106598
    49  C   -0.202678
    50  C    0.130721
    51  C    0.176451
    52  C    0.120893
    53  C    0.022857
    54  C   -0.055415
    55  C    0.088880
    56  C    0.114304
    57  C    0.084856
    58  C    0.077913
    59  C   -0.063250
    60  C    0.089403
    61  C    0.102753
    62  C    0.067486
    63  C    0.130146
    64  C   -0.135643
    65  C    0.124685
    66  C    0.055406
    67  H   -0.060487
    68  H   -0.040999
    69  H   -0.059619
    70  H   -0.004697
    71  H   -0.015180
    72  H    0.001257
    73  H   -0.012384
    74  H   -0.001342
    75  H   -0.019810
    76  H   -0.011932
    77  H    0.027700
    78  H    0.000849
    79  H   -0.024886
    80  H   -0.001875
    81  H    0.011722
    82  H   -0.020501
    83  H    0.016623
    84  H    0.012627
    85  H   -0.003225
    86  H   -0.032469
    87  H   -0.014434
    88  H    0.005617
    89  H    0.009654
    90  H   -0.023567
    91  H   -0.022773
    92  H   -0.009875
    93  H   -0.001856
    94  H   -0.002350
    95  H    0.011209
    96  H    0.008490
    97  H   -0.002818
    98  H    0.008141
    99  H    0.013897
   100  H    0.006555
   101  H    0.024017
   102  H    0.003225
   103  H   -0.003020
   104  H   -0.041529
   105  H    0.007177
   106  H   -0.006376
   107  H   -0.006044
   108  H   -0.024815
   109  H   -0.038252
   110  H   -0.015271
   111  H   -0.019414
   112  H   -0.033836
   113  H   -0.038959
   114  H   -0.044280
   115  H   -0.022156
   116  H   -0.018476
   117  H   -0.003175
   118  H   -0.045719
   119  H   -0.033477
   120  H   -0.037345
   121  H   -0.034970
   122  H   -0.041393
   123  H   -0.037376
   124  H   -0.025402
   125  H   -0.019433
   126  H   -0.018105
   127  H   -0.023375
   128  H   -0.031285
   129  H   -0.033212
   130  H   -0.026004
   131  H   -0.039888
   132  H   -0.036349
   133  H   -0.037390
   134  H   -0.041624
   135  H   -0.000997
   136  H   -0.009108
   137  H   -0.028609
   138  H    0.003798
   139  H   -0.011249
   140  H   -0.003233
 Sum of Mulliken charges =  -0.00000

 Dipole moment (field-independent basis, Debye):
    X=             -3.0661    Y=              1.8059    Z=              1.2190  Tot=              3.7614
 Quadrupole moment (field-independent basis, Debye-Ang):
   XX=           -395.4673   YY=           -427.4665   ZZ=           -398.1925
   XY=             -6.1983   XZ=             24.1388   YZ=             -7.8656

 Normal termination of Gaussian 16 at Wed Apr 27 20:29:29 2022.
