 Gaussian 16, Revision A.03,
 Gaussian 16:  ES64L-G16RevA.03 25-Dec-2016

 -----------------------------------
 #p cam-b3lyp/Def2SVP td=(nstates=5)
 -----------------------------------

 --------------------------------------------------------
 step_1301_chromophore_13 TDDFT with cam-b3lyp functional
 --------------------------------------------------------
 Symbolic Z-matrix:
 Charge =  0 Multiplicity = 1

                         Standard orientation:
 ---------------------------------------------------------------------
 Center     Atomic      Atomic             Coordinates (Angstroms)
 Number     Number       Type             X           Y           Z
 ---------------------------------------------------------------------
      1         12           0        5.952426    0.451753    0.288428
      2          6           0        3.666505   -2.169059   -0.072534
      3          6           0        3.738785    2.434212   -1.458118
      4          6           0        8.466454    2.634620    0.016772
      5          6           0        8.297991   -2.002639    1.460968
      6          7           0        3.967652    0.076215   -0.657785
      7          6           0        3.189371   -0.999817   -0.592190
      8          6           0        1.752125   -0.762728   -1.118385
      9          6           0        1.821686    0.730352   -1.686922
     10          6           0        3.227922    1.200745   -1.141683
     11          6           0        1.677788    0.753877   -3.221317
     12          6           0        0.622339   -1.042275   -0.063591
     13          6           0       -0.614166   -1.793841   -0.593633
     14          6           0       -2.034325   -1.354555   -0.259594
     15          8           0       -2.351231   -0.577583    0.617749
     16          8           0       -2.984127   -2.174990   -0.890848
     17          7           0        6.054863    2.375613   -0.544634
     18          6           0        5.045419    3.023505   -1.148644
     19          6           0        5.430914    4.369681   -1.454323
     20          6           0        6.839972    4.484972   -1.045842
     21          6           0        7.189859    3.113657   -0.512165
     22          6           0        4.515929    5.255297   -2.113523
     23          6           0        7.765502    5.633418   -1.054876
     24          8           0        8.991683    5.524340   -0.767470
     25          6           0        7.200518    6.964510   -1.354865
     26          7           0        8.000786    0.366390    0.763018
     27          6           0        8.830332    1.446550    0.669497
     28          6           0       10.243794    1.253489    1.441710
     29          6           0       10.033531   -0.255460    1.927046
     30          6           0        8.731108   -0.713703    1.312199
     31          6           0       11.508699    1.331894    0.492352
     32          6           0       10.124140   -0.548107    3.506422
     33          6           0        9.226118    0.256682    4.398989
     34          7           0        5.971997   -1.585761    0.842171
     35          6           0        6.982329   -2.441699    1.196089
     36          6           0        6.514232   -3.797727    1.244300
     37          6           0        5.225435   -3.729664    0.702794
     38          6           0        4.910556   -2.363095    0.564798
     39          6           0        7.281888   -5.000824    1.722086
     40          6           0        4.097711   -4.532641    0.341601
     41          8           0        4.031797   -5.778712    0.370428
     42          6           0        2.984816   -3.587042   -0.107305
     43          6           0        2.570208   -3.994647   -1.500743
     44          8           0        3.178393   -3.880262   -2.579937
     45          8           0        1.347760   -4.629496   -1.392492
     46          6           0        0.660675   -4.925512   -2.671659
     47          6           0       -4.262745   -2.288956   -0.237612
     48          6           0       -5.266783   -1.501545   -1.117878
     49          6           0       -6.634083   -1.322150   -1.034962
     50          6           0       -7.393484   -1.975038    0.067723
     51          6           0       -7.302734   -0.290517   -1.920576
     52          6           0       -7.467197    1.025612   -1.137746
     53          6           0       -8.916524    1.438302   -0.890078
     54          6           0       -9.318351    2.500339    0.215620
     55          6           0       -8.437254    3.792255    0.176022
     56          6           0       -9.376731    1.948338    1.686517
     57          6           0      -10.573783    2.363116    2.548518
     58          6           0      -11.693315    1.384097    2.522996
     59          6           0      -13.123584    1.916426    2.227598
     60          6           0      -13.434705    2.957711    3.352681
     61          6           0      -14.196155    0.719309    2.269112
     62          6           0      -14.825228    0.447149    0.828935
     63          6           0      -14.545056   -0.875511    0.184101
     64          6           0      -13.738390   -0.760890   -1.142741
     65          6           0      -14.178884   -1.830731   -2.186901
     66          6           0      -12.170095   -0.507438   -0.990946
     67          1           0        2.950988    3.021396   -1.933291
     68          1           0        9.312157    3.325166    0.027628
     69          1           0        9.006010   -2.724411    1.872711
     70          1           0        1.574854   -1.526967   -1.875313
     71          1           0        1.018044    1.354729   -1.296754
     72          1           0        2.618382    0.970854   -3.727968
     73          1           0        0.987299    1.571470   -3.427050
     74          1           0        1.274305   -0.162180   -3.653227
     75          1           0        0.197666   -0.064253    0.162882
     76          1           0        0.973113   -1.507368    0.857934
     77          1           0       -0.427292   -2.741498   -0.087919
     78          1           0       -0.492439   -1.863206   -1.674853
     79          1           0        4.816422    6.301813   -2.162411
     80          1           0        3.558965    5.290347   -1.593472
     81          1           0        4.403494    4.831299   -3.111603
     82          1           0        7.981573    7.720571   -1.439677
     83          1           0        6.527081    7.248080   -0.545996
     84          1           0        6.751210    6.996282   -2.347401
     85          1           0       10.298808    1.984597    2.248007
     86          1           0       10.787061   -0.856714    1.417262
     87          1           0       11.560958    0.431323   -0.119768
     88          1           0       12.358717    1.340760    1.175434
     89          1           0       11.383744    2.115322   -0.254661
     90          1           0       11.128175   -0.267202    3.824825
     91          1           0        9.996084   -1.619436    3.658382
     92          1           0        8.598348    0.724880    3.641811
     93          1           0        9.597594    1.096419    4.985738
     94          1           0        8.654222   -0.435596    5.018079
     95          1           0        7.710560   -5.437892    0.820531
     96          1           0        6.541330   -5.709497    2.091200
     97          1           0        8.036674   -4.767446    2.471979
     98          1           0        2.235302   -3.582651    0.684501
     99          1           0        1.261755   -5.666363   -3.198400
    100          1           0        0.683294   -3.981883   -3.216834
    101          1           0       -0.337940   -5.361115   -2.697608
    102          1           0       -4.224078   -1.870365    0.768774
    103          1           0       -4.614034   -3.312077   -0.103089
    104          1           0       -4.809034   -0.924327   -1.920507
    105          1           0       -7.124799   -1.494203    1.008212
    106          1           0       -7.093317   -3.014994    0.196913
    107          1           0       -8.474130   -1.896617   -0.048727
    108          1           0       -8.186245   -0.818952   -2.279628
    109          1           0       -6.723242   -0.019639   -2.803363
    110          1           0       -6.995523    1.920802   -1.544003
    111          1           0       -7.127588    0.737287   -0.143230
    112          1           0       -9.426509    0.538117   -0.547045
    113          1           0       -9.501827    1.648673   -1.784912
    114          1           0      -10.309551    2.859430   -0.061890
    115          1           0       -9.031193    4.644929    0.505273
    116          1           0       -8.184298    4.050689   -0.852576
    117          1           0       -7.581892    3.676694    0.841465
    118          1           0       -8.532758    2.394905    2.211293
    119          1           0       -9.265044    0.864745    1.648648
    120          1           0      -10.957417    3.335403    2.237163
    121          1           0      -10.236597    2.508639    3.574963
    122          1           0      -11.739128    1.071018    3.566651
    123          1           0      -11.447578    0.497437    1.937085
    124          1           0      -13.064430    2.463388    1.286366
    125          1           0      -12.635822    3.141350    4.070071
    126          1           0      -14.298033    2.755832    3.987359
    127          1           0      -13.589196    3.927090    2.876859
    128          1           0      -15.070622    0.828291    2.910923
    129          1           0      -13.685268   -0.144895    2.693824
    130          1           0      -14.547886    1.252010    0.147487
    131          1           0      -15.894456    0.512119    1.026871
    132          1           0      -15.451228   -1.446471   -0.016726
    133          1           0      -13.912787   -1.415601    0.888922
    134          1           0      -14.014262    0.220840   -1.527955
    135          1           0      -14.932599   -1.431576   -2.866324
    136          1           0      -14.518692   -2.694346   -1.615450
    137          1           0      -13.253568   -2.077864   -2.707129
    138          1           0      -11.939103    0.551863   -1.102897
    139          1           0      -11.595514   -1.108363   -1.696112
    140          1           0      -11.874149   -0.769349    0.025221
 ---------------------------------------------------------------------

 SCF Done:  E(RCAM-B3LYP) =  -3007.15050774     A.U. after   19 cycles

 Excitation energies and oscillator strengths:

 Excited State   1:      Singlet-A      1.6562 eV  748.60 nm  f=0.4190  <S**2>=0.000
     245 -> 248        0.16130
     246 -> 247        0.69029
     245 <- 248        0.10548
 This state for optimization and/or second-order correction.
 Total Energy, E(TD-HF/TD-DFT) =  -3007.08964302
 Copying the excited state density for this state as the 1-particle RhoCI density.

 Excited State   2:      Singlet-A      2.1756 eV  569.89 nm  f=0.1697  <S**2>=0.000
     245 -> 247        0.66018
     246 -> 248       -0.23845

 Excited State   3:      Singlet-A      3.2449 eV  382.08 nm  f=0.0101  <S**2>=0.000
     241 -> 247       -0.19796
     243 -> 247        0.65678

 Excited State   4:      Singlet-A      3.3417 eV  371.02 nm  f=0.0131  <S**2>=0.000
     239 -> 247       -0.24109
     239 -> 249        0.13995
     240 -> 247       -0.22526
     240 -> 249        0.16413
     241 -> 247        0.50559
     242 -> 247       -0.16145
     243 -> 247        0.16028

 Excited State   5:      Singlet-A      3.3828 eV  366.51 nm  f=0.0016  <S**2>=0.000
     239 -> 247        0.23646
     239 -> 249       -0.15164
     240 -> 247        0.40274
     240 -> 249       -0.17124
     241 -> 247        0.28727
     242 -> 247       -0.27276
     243 -> 247        0.10062
     246 -> 248        0.10117

 The electronic state is 1-A.
 Alpha  occ. eigenvalues --  -46.89229 -19.25474 -19.24756 -19.21030 -19.20735
 Alpha  occ. eigenvalues --  -19.19058 -19.17623 -14.42478 -14.42242 -14.39920
 Alpha  occ. eigenvalues --  -14.39683 -10.40616 -10.40486 -10.35046 -10.34082
 Alpha  occ. eigenvalues --  -10.32301 -10.32072 -10.31267 -10.31113 -10.31032
 Alpha  occ. eigenvalues --  -10.30954 -10.30743 -10.30059 -10.29679 -10.29577
 Alpha  occ. eigenvalues --  -10.29306 -10.28963 -10.28919 -10.28918 -10.28353
 Alpha  occ. eigenvalues --  -10.28335 -10.28065 -10.27999 -10.27955 -10.27552
 Alpha  occ. eigenvalues --  -10.27428 -10.26924 -10.26877 -10.26844 -10.26711
 Alpha  occ. eigenvalues --  -10.26452 -10.26391 -10.26353 -10.26253 -10.26217
 Alpha  occ. eigenvalues --  -10.26207 -10.25943 -10.25900 -10.25765 -10.25470
 Alpha  occ. eigenvalues --  -10.25422 -10.25308 -10.25302 -10.25219 -10.25215
 Alpha  occ. eigenvalues --  -10.25163 -10.24892 -10.24638 -10.24621 -10.24540
 Alpha  occ. eigenvalues --  -10.24450 -10.24445 -10.24427 -10.24257 -10.24141
 Alpha  occ. eigenvalues --  -10.24019  -3.17683  -1.92584  -1.92131  -1.91993
 Alpha  occ. eigenvalues --   -1.16579  -1.15907  -1.08746  -1.08546  -1.07224
 Alpha  occ. eigenvalues --   -1.06877  -1.04781  -1.03447  -1.02818  -1.01888
 Alpha  occ. eigenvalues --   -0.93190  -0.90389  -0.89864  -0.89520  -0.89157
 Alpha  occ. eigenvalues --   -0.88412  -0.88226  -0.87774  -0.87235  -0.86852
 Alpha  occ. eigenvalues --   -0.86685  -0.85497  -0.84052  -0.83824  -0.83371
 Alpha  occ. eigenvalues --   -0.82633  -0.82318  -0.81489  -0.80844  -0.80370
 Alpha  occ. eigenvalues --   -0.79881  -0.78304  -0.77914  -0.77484  -0.76520
 Alpha  occ. eigenvalues --   -0.76201  -0.75557  -0.75062  -0.74417  -0.74091
 Alpha  occ. eigenvalues --   -0.73541  -0.72771  -0.71139  -0.70371  -0.69407
 Alpha  occ. eigenvalues --   -0.68963  -0.68665  -0.67475  -0.67182  -0.65821
 Alpha  occ. eigenvalues --   -0.65133  -0.64917  -0.64604  -0.64216  -0.63478
 Alpha  occ. eigenvalues --   -0.63190  -0.62533  -0.62360  -0.61382  -0.60079
 Alpha  occ. eigenvalues --   -0.59981  -0.59868  -0.59297  -0.59040  -0.58629
 Alpha  occ. eigenvalues --   -0.58359  -0.57335  -0.56113  -0.55910  -0.55673
 Alpha  occ. eigenvalues --   -0.55434  -0.55261  -0.54717  -0.54467  -0.54318
 Alpha  occ. eigenvalues --   -0.53866  -0.53284  -0.53000  -0.52903  -0.52733
 Alpha  occ. eigenvalues --   -0.52574  -0.52500  -0.52161  -0.52088  -0.51882
 Alpha  occ. eigenvalues --   -0.51720  -0.51477  -0.51186  -0.51107  -0.51018
 Alpha  occ. eigenvalues --   -0.50720  -0.50642  -0.50228  -0.49963  -0.49777
 Alpha  occ. eigenvalues --   -0.49578  -0.49261  -0.49027  -0.48887  -0.48817
 Alpha  occ. eigenvalues --   -0.48614  -0.48417  -0.48159  -0.48125  -0.47639
 Alpha  occ. eigenvalues --   -0.47562  -0.47270  -0.47164  -0.47047  -0.46682
 Alpha  occ. eigenvalues --   -0.46583  -0.46310  -0.46127  -0.45991  -0.45734
 Alpha  occ. eigenvalues --   -0.45693  -0.45420  -0.45288  -0.45065  -0.44738
 Alpha  occ. eigenvalues --   -0.44656  -0.44472  -0.44311  -0.43899  -0.43653
 Alpha  occ. eigenvalues --   -0.43606  -0.43416  -0.43211  -0.43075  -0.42958
 Alpha  occ. eigenvalues --   -0.42694  -0.42576  -0.42400  -0.42325  -0.42105
 Alpha  occ. eigenvalues --   -0.41936  -0.41697  -0.41600  -0.41188  -0.41115
 Alpha  occ. eigenvalues --   -0.40897  -0.40870  -0.40602  -0.40325  -0.40005
 Alpha  occ. eigenvalues --   -0.39893  -0.39567  -0.39159  -0.39085  -0.38716
 Alpha  occ. eigenvalues --   -0.38096  -0.37761  -0.37466  -0.37372  -0.37067
 Alpha  occ. eigenvalues --   -0.37005  -0.36880  -0.36840  -0.36789  -0.36016
 Alpha  occ. eigenvalues --   -0.35732  -0.35233  -0.35214  -0.35102  -0.35081
 Alpha  occ. eigenvalues --   -0.34602  -0.34594  -0.33050  -0.31525  -0.31178
 Alpha  occ. eigenvalues --   -0.30355  -0.30292  -0.29237  -0.28765  -0.24267
 Alpha  occ. eigenvalues --   -0.21503
 Alpha virt. eigenvalues --   -0.09448  -0.01159  -0.00076   0.01607   0.02355
 Alpha virt. eigenvalues --    0.03776   0.04035   0.04969   0.05656   0.06650
 Alpha virt. eigenvalues --    0.07532   0.07761   0.08306   0.08333   0.08573

 Mulliken charges:
               1
     1  Mg   0.824484
     2  C   -0.073558
     3  C   -0.056753
     4  C   -0.028805
     5  C   -0.114317
     6  N   -0.298929
     7  C   -0.028799
     8  C   -0.038279
     9  C   -0.053104
    10  C    0.043403
    11  C    0.061632
    12  C    0.053836
    13  C    0.004762
    14  C    0.190521
    15  O   -0.208837
    16  O   -0.350990
    17  N   -0.343311
    18  C    0.129264
    19  C   -0.142360
    20  C   -0.027981
    21  C    0.111102
    22  C    0.114695
    23  C   -0.012435
    24  O   -0.243622
    25  C    0.048100
    26  N   -0.324922
    27  C    0.018861
    28  C   -0.059869
    29  C   -0.014143
    30  C    0.071312
    31  C    0.067340
    32  C    0.039506
    33  C    0.001983
    34  N   -0.313514
    35  C    0.120294
    36  C   -0.185527
    37  C    0.002155
    38  C    0.137163
    39  C    0.141456
    40  C    0.014552
    41  O   -0.196459
    42  C    0.056534
    43  C    0.226688
    44  O   -0.232545
    45  O   -0.345851
    46  C    0.187022
    47  C    0.285688
    48  C   -0.123584
    49  C   -0.226763
    50  C    0.068358
    51  C    0.115277
    52  C    0.064343
    53  C   -0.016450
    54  C   -0.106372
    55  C    0.031476
    56  C    0.058561
    57  C    0.030838
    58  C    0.028988
    59  C   -0.115662
    60  C    0.028481
    61  C    0.053187
    62  C    0.008232
    63  C    0.073275
    64  C   -0.189584
    65  C    0.065622
    66  C    0.009160
    67  H   -0.024611
    68  H   -0.001833
    69  H   -0.022831
    70  H    0.022586
    71  H    0.018644
    72  H    0.028369
    73  H    0.011344
    74  H    0.021788
    75  H    0.014601
    76  H    0.018457
    77  H    0.057901
    78  H    0.030128
    79  H    0.003965
    80  H    0.024897
    81  H    0.038729
    82  H    0.015717
    83  H    0.044535
    84  H    0.038973
    85  H    0.029476
    86  H    0.004287
    87  H    0.009029
    88  H    0.028817
    89  H    0.034170
    90  H    0.005066
    91  H    0.004539
    92  H    0.009212
    93  H    0.023003
    94  H    0.021754
    95  H    0.039660
    96  H    0.036731
    97  H    0.021662
    98  H    0.050757
    99  H    0.039198
   100  H    0.027199
   101  H    0.048809
   102  H    0.035270
   103  H    0.023460
   104  H   -0.008975
   105  H    0.030483
   106  H    0.019196
   107  H    0.017231
   108  H    0.004463
   109  H   -0.004725
   110  H    0.012219
   111  H    0.006821
   112  H   -0.015627
   113  H   -0.010716
   114  H   -0.013243
   115  H    0.002421
   116  H    0.005706
   117  H    0.018577
   118  H   -0.015449
   119  H   -0.007364
   120  H   -0.010333
   121  H   -0.004402
   122  H   -0.011683
   123  H   -0.013533
   124  H    0.002317
   125  H    0.004018
   126  H    0.007235
   127  H    0.001454
   128  H   -0.001672
   129  H   -0.005118
   130  H    0.000648
   131  H   -0.008665
   132  H   -0.005258
   133  H   -0.009993
   134  H   -0.009087
   135  H    0.022552
   136  H    0.013281
   137  H   -0.004585
   138  H    0.020826
   139  H    0.010336
   140  H    0.012361
 Sum of Mulliken charges =  -0.00000

 Dipole moment (field-independent basis, Debye):
    X=             -3.2870    Y=              1.6805    Z=              1.3049  Tot=              3.9155
 Quadrupole moment (field-independent basis, Debye-Ang):
   XX=           -396.3454   YY=           -424.2697   ZZ=           -397.5834
   XY=             -7.7739   XZ=             25.3853   YZ=             -9.2847

 Normal termination of Gaussian 16 at Wed Apr 27 19:13:04 2022.
