 Gaussian 16, Revision A.03,
 Gaussian 16:  ES64L-G16RevA.03 25-Dec-2016

 ---------------------------------
 #p PBE1PBE/Def2SVP td=(nstates=5)
 ---------------------------------

 ------------------------------------------------------
 step_1301_chromophore_13 TDDFT with PBE1PBE functional
 ------------------------------------------------------
 Symbolic Z-matrix:
 Charge =  0 Multiplicity = 1

                         Standard orientation:
 ---------------------------------------------------------------------
 Center     Atomic      Atomic             Coordinates (Angstroms)
 Number     Number       Type             X           Y           Z
 ---------------------------------------------------------------------
      1         12           0        5.952426    0.451753    0.288428
      2          6           0        3.666505   -2.169059   -0.072534
      3          6           0        3.738785    2.434212   -1.458118
      4          6           0        8.466454    2.634620    0.016772
      5          6           0        8.297991   -2.002639    1.460968
      6          7           0        3.967652    0.076215   -0.657785
      7          6           0        3.189371   -0.999817   -0.592190
      8          6           0        1.752125   -0.762728   -1.118385
      9          6           0        1.821686    0.730352   -1.686922
     10          6           0        3.227922    1.200745   -1.141683
     11          6           0        1.677788    0.753877   -3.221317
     12          6           0        0.622339   -1.042275   -0.063591
     13          6           0       -0.614166   -1.793841   -0.593633
     14          6           0       -2.034325   -1.354555   -0.259594
     15          8           0       -2.351231   -0.577583    0.617749
     16          8           0       -2.984127   -2.174990   -0.890848
     17          7           0        6.054863    2.375613   -0.544634
     18          6           0        5.045419    3.023505   -1.148644
     19          6           0        5.430914    4.369681   -1.454323
     20          6           0        6.839972    4.484972   -1.045842
     21          6           0        7.189859    3.113657   -0.512165
     22          6           0        4.515929    5.255297   -2.113523
     23          6           0        7.765502    5.633418   -1.054876
     24          8           0        8.991683    5.524340   -0.767470
     25          6           0        7.200518    6.964510   -1.354865
     26          7           0        8.000786    0.366390    0.763018
     27          6           0        8.830332    1.446550    0.669497
     28          6           0       10.243794    1.253489    1.441710
     29          6           0       10.033531   -0.255460    1.927046
     30          6           0        8.731108   -0.713703    1.312199
     31          6           0       11.508699    1.331894    0.492352
     32          6           0       10.124140   -0.548107    3.506422
     33          6           0        9.226118    0.256682    4.398989
     34          7           0        5.971997   -1.585761    0.842171
     35          6           0        6.982329   -2.441699    1.196089
     36          6           0        6.514232   -3.797727    1.244300
     37          6           0        5.225435   -3.729664    0.702794
     38          6           0        4.910556   -2.363095    0.564798
     39          6           0        7.281888   -5.000824    1.722086
     40          6           0        4.097711   -4.532641    0.341601
     41          8           0        4.031797   -5.778712    0.370428
     42          6           0        2.984816   -3.587042   -0.107305
     43          6           0        2.570208   -3.994647   -1.500743
     44          8           0        3.178393   -3.880262   -2.579937
     45          8           0        1.347760   -4.629496   -1.392492
     46          6           0        0.660675   -4.925512   -2.671659
     47          6           0       -4.262745   -2.288956   -0.237612
     48          6           0       -5.266783   -1.501545   -1.117878
     49          6           0       -6.634083   -1.322150   -1.034962
     50          6           0       -7.393484   -1.975038    0.067723
     51          6           0       -7.302734   -0.290517   -1.920576
     52          6           0       -7.467197    1.025612   -1.137746
     53          6           0       -8.916524    1.438302   -0.890078
     54          6           0       -9.318351    2.500339    0.215620
     55          6           0       -8.437254    3.792255    0.176022
     56          6           0       -9.376731    1.948338    1.686517
     57          6           0      -10.573783    2.363116    2.548518
     58          6           0      -11.693315    1.384097    2.522996
     59          6           0      -13.123584    1.916426    2.227598
     60          6           0      -13.434705    2.957711    3.352681
     61          6           0      -14.196155    0.719309    2.269112
     62          6           0      -14.825228    0.447149    0.828935
     63          6           0      -14.545056   -0.875511    0.184101
     64          6           0      -13.738390   -0.760890   -1.142741
     65          6           0      -14.178884   -1.830731   -2.186901
     66          6           0      -12.170095   -0.507438   -0.990946
     67          1           0        2.950988    3.021396   -1.933291
     68          1           0        9.312157    3.325166    0.027628
     69          1           0        9.006010   -2.724411    1.872711
     70          1           0        1.574854   -1.526967   -1.875313
     71          1           0        1.018044    1.354729   -1.296754
     72          1           0        2.618382    0.970854   -3.727968
     73          1           0        0.987299    1.571470   -3.427050
     74          1           0        1.274305   -0.162180   -3.653227
     75          1           0        0.197666   -0.064253    0.162882
     76          1           0        0.973113   -1.507368    0.857934
     77          1           0       -0.427292   -2.741498   -0.087919
     78          1           0       -0.492439   -1.863206   -1.674853
     79          1           0        4.816422    6.301813   -2.162411
     80          1           0        3.558965    5.290347   -1.593472
     81          1           0        4.403494    4.831299   -3.111603
     82          1           0        7.981573    7.720571   -1.439677
     83          1           0        6.527081    7.248080   -0.545996
     84          1           0        6.751210    6.996282   -2.347401
     85          1           0       10.298808    1.984597    2.248007
     86          1           0       10.787061   -0.856714    1.417262
     87          1           0       11.560958    0.431323   -0.119768
     88          1           0       12.358717    1.340760    1.175434
     89          1           0       11.383744    2.115322   -0.254661
     90          1           0       11.128175   -0.267202    3.824825
     91          1           0        9.996084   -1.619436    3.658382
     92          1           0        8.598348    0.724880    3.641811
     93          1           0        9.597594    1.096419    4.985738
     94          1           0        8.654222   -0.435596    5.018079
     95          1           0        7.710560   -5.437892    0.820531
     96          1           0        6.541330   -5.709497    2.091200
     97          1           0        8.036674   -4.767446    2.471979
     98          1           0        2.235302   -3.582651    0.684501
     99          1           0        1.261755   -5.666363   -3.198400
    100          1           0        0.683294   -3.981883   -3.216834
    101          1           0       -0.337940   -5.361115   -2.697608
    102          1           0       -4.224078   -1.870365    0.768774
    103          1           0       -4.614034   -3.312077   -0.103089
    104          1           0       -4.809034   -0.924327   -1.920507
    105          1           0       -7.124799   -1.494203    1.008212
    106          1           0       -7.093317   -3.014994    0.196913
    107          1           0       -8.474130   -1.896617   -0.048727
    108          1           0       -8.186245   -0.818952   -2.279628
    109          1           0       -6.723242   -0.019639   -2.803363
    110          1           0       -6.995523    1.920802   -1.544003
    111          1           0       -7.127588    0.737287   -0.143230
    112          1           0       -9.426509    0.538117   -0.547045
    113          1           0       -9.501827    1.648673   -1.784912
    114          1           0      -10.309551    2.859430   -0.061890
    115          1           0       -9.031193    4.644929    0.505273
    116          1           0       -8.184298    4.050689   -0.852576
    117          1           0       -7.581892    3.676694    0.841465
    118          1           0       -8.532758    2.394905    2.211293
    119          1           0       -9.265044    0.864745    1.648648
    120          1           0      -10.957417    3.335403    2.237163
    121          1           0      -10.236597    2.508639    3.574963
    122          1           0      -11.739128    1.071018    3.566651
    123          1           0      -11.447578    0.497437    1.937085
    124          1           0      -13.064430    2.463388    1.286366
    125          1           0      -12.635822    3.141350    4.070071
    126          1           0      -14.298033    2.755832    3.987359
    127          1           0      -13.589196    3.927090    2.876859
    128          1           0      -15.070622    0.828291    2.910923
    129          1           0      -13.685268   -0.144895    2.693824
    130          1           0      -14.547886    1.252010    0.147487
    131          1           0      -15.894456    0.512119    1.026871
    132          1           0      -15.451228   -1.446471   -0.016726
    133          1           0      -13.912787   -1.415601    0.888922
    134          1           0      -14.014262    0.220840   -1.527955
    135          1           0      -14.932599   -1.431576   -2.866324
    136          1           0      -14.518692   -2.694346   -1.615450
    137          1           0      -13.253568   -2.077864   -2.707129
    138          1           0      -11.939103    0.551863   -1.102897
    139          1           0      -11.595514   -1.108363   -1.696112
    140          1           0      -11.874149   -0.769349    0.025221
 ---------------------------------------------------------------------

 SCF Done:  E(RPBE1PBE) =  -3005.33940673     A.U. after   15 cycles

 Excitation energies and oscillator strengths:

 Excited State   1:      Singlet-A      1.8176 eV  682.13 nm  f=0.4065  <S**2>=0.000
     245 -> 248        0.15220
     246 -> 247        0.69884
     246 <- 247       -0.12266
 This state for optimization and/or second-order correction.
 Total Energy, E(TD-HF/TD-DFT) =  -3005.27261061
 Copying the excited state density for this state as the 1-particle RhoCI density.

 Excited State   2:      Singlet-A      2.1893 eV  566.31 nm  f=0.1497  <S**2>=0.000
     245 -> 247        0.66628
     246 -> 248       -0.21756

 Excited State   3:      Singlet-A      2.7882 eV  444.68 nm  f=0.0013  <S**2>=0.000
     242 -> 247        0.40494
     243 -> 247        0.54758

 Excited State   4:      Singlet-A      2.8920 eV  428.71 nm  f=0.0041  <S**2>=0.000
     240 -> 247        0.43691
     240 -> 249       -0.13079
     241 -> 247        0.43795
     242 -> 247       -0.22303
     243 -> 247        0.16645

 Excited State   5:      Singlet-A      2.9006 eV  427.44 nm  f=0.0099  <S**2>=0.000
     240 -> 247        0.11253
     241 -> 247        0.25657
     242 -> 247        0.50485
     243 -> 247       -0.38281

 The electronic state is 1-A.
 Alpha  occ. eigenvalues --  -46.92642 -19.26049 -19.25456 -19.21275 -19.20883
 Alpha  occ. eigenvalues --  -19.19148 -19.18040 -14.41983 -14.41809 -14.39652
 Alpha  occ. eigenvalues --  -14.39254 -10.37557 -10.37500 -10.32042 -10.31334
 Alpha  occ. eigenvalues --  -10.29715 -10.29236 -10.28985 -10.28924 -10.28823
 Alpha  occ. eigenvalues --  -10.28664 -10.28598 -10.27633 -10.27577 -10.27098
 Alpha  occ. eigenvalues --  -10.26858 -10.26808 -10.26753 -10.26709 -10.25918
 Alpha  occ. eigenvalues --  -10.25814 -10.25812 -10.25795 -10.25743 -10.25247
 Alpha  occ. eigenvalues --  -10.25009 -10.24919 -10.24467 -10.24436 -10.24385
 Alpha  occ. eigenvalues --  -10.24184 -10.23976 -10.23890 -10.23763 -10.23753
 Alpha  occ. eigenvalues --  -10.23699 -10.23650 -10.23316 -10.23268 -10.23169
 Alpha  occ. eigenvalues --  -10.22893 -10.22830 -10.22816 -10.22790 -10.22711
 Alpha  occ. eigenvalues --  -10.22601 -10.22283 -10.22212 -10.22174 -10.21984
 Alpha  occ. eigenvalues --  -10.21948 -10.21925 -10.21847 -10.21787 -10.21561
 Alpha  occ. eigenvalues --  -10.21557  -3.14679  -1.87520  -1.87045  -1.86910
 Alpha  occ. eigenvalues --   -1.11369  -1.10574  -1.03415  -1.03318  -1.01947
 Alpha  occ. eigenvalues --   -1.01727  -0.99337  -0.98255  -0.97418  -0.96517
 Alpha  occ. eigenvalues --   -0.87443  -0.84493  -0.84023  -0.83613  -0.83465
 Alpha  occ. eigenvalues --   -0.82757  -0.82318  -0.82093  -0.81514  -0.80987
 Alpha  occ. eigenvalues --   -0.80924  -0.79783  -0.78250  -0.78059  -0.77654
 Alpha  occ. eigenvalues --   -0.76877  -0.76498  -0.75767  -0.75126  -0.74692
 Alpha  occ. eigenvalues --   -0.74052  -0.72603  -0.72220  -0.71804  -0.70815
 Alpha  occ. eigenvalues --   -0.70333  -0.69631  -0.69456  -0.68549  -0.68256
 Alpha  occ. eigenvalues --   -0.67964  -0.67089  -0.65558  -0.64661  -0.63711
 Alpha  occ. eigenvalues --   -0.63363  -0.62918  -0.61996  -0.61386  -0.60259
 Alpha  occ. eigenvalues --   -0.59661  -0.59174  -0.59113  -0.58731  -0.57712
 Alpha  occ. eigenvalues --   -0.57602  -0.57058  -0.56556  -0.55605  -0.54647
 Alpha  occ. eigenvalues --   -0.54440  -0.54228  -0.53947  -0.53343  -0.53188
 Alpha  occ. eigenvalues --   -0.52819  -0.51963  -0.50647  -0.50325  -0.50141
 Alpha  occ. eigenvalues --   -0.49986  -0.49737  -0.49229  -0.49093  -0.48668
 Alpha  occ. eigenvalues --   -0.48424  -0.47811  -0.47513  -0.47392  -0.47263
 Alpha  occ. eigenvalues --   -0.47107  -0.47003  -0.46687  -0.46596  -0.46424
 Alpha  occ. eigenvalues --   -0.46287  -0.45897  -0.45801  -0.45645  -0.45576
 Alpha  occ. eigenvalues --   -0.45341  -0.45140  -0.44708  -0.44577  -0.44379
 Alpha  occ. eigenvalues --   -0.44199  -0.43917  -0.43587  -0.43479  -0.43371
 Alpha  occ. eigenvalues --   -0.43243  -0.43055  -0.42854  -0.42784  -0.42323
 Alpha  occ. eigenvalues --   -0.42143  -0.41934  -0.41799  -0.41688  -0.41386
 Alpha  occ. eigenvalues --   -0.41305  -0.41071  -0.40781  -0.40535  -0.40512
 Alpha  occ. eigenvalues --   -0.40456  -0.40069  -0.39956  -0.39788  -0.39438
 Alpha  occ. eigenvalues --   -0.39360  -0.39267  -0.39013  -0.38646  -0.38519
 Alpha  occ. eigenvalues --   -0.38361  -0.38283  -0.37989  -0.37859  -0.37644
 Alpha  occ. eigenvalues --   -0.37427  -0.37351  -0.37200  -0.37173  -0.36856
 Alpha  occ. eigenvalues --   -0.36786  -0.36595  -0.36332  -0.35933  -0.35864
 Alpha  occ. eigenvalues --   -0.35769  -0.35732  -0.35516  -0.35081  -0.34955
 Alpha  occ. eigenvalues --   -0.34691  -0.34368  -0.34063  -0.33873  -0.33658
 Alpha  occ. eigenvalues --   -0.33046  -0.32586  -0.32513  -0.32187  -0.32066
 Alpha  occ. eigenvalues --   -0.31939  -0.31886  -0.31718  -0.31693  -0.30883
 Alpha  occ. eigenvalues --   -0.30609  -0.30113  -0.30001  -0.29976  -0.29840
 Alpha  occ. eigenvalues --   -0.29744  -0.29529  -0.28688  -0.27104  -0.26053
 Alpha  occ. eigenvalues --   -0.25776  -0.25223  -0.24992  -0.24070  -0.21207
 Alpha  occ. eigenvalues --   -0.19116
 Alpha virt. eigenvalues --   -0.11811  -0.04797  -0.04266  -0.02760  -0.00860
 Alpha virt. eigenvalues --   -0.00612  -0.00362   0.00687   0.01195   0.03000
 Alpha virt. eigenvalues --    0.03989   0.04371   0.04538   0.04954   0.05025

 Mulliken charges:
               1
     1  Mg   0.970528
     2  C   -0.083198
     3  C   -0.057099
     4  C   -0.030468
     5  C   -0.096409
     6  N   -0.399047
     7  C    0.047296
     8  C   -0.107335
     9  C   -0.130901
    10  C    0.082693
    11  C    0.006633
    12  C    0.009116
    13  C   -0.075215
    14  C    0.255961
    15  O   -0.241854
    16  O   -0.380867
    17  N   -0.463437
    18  C    0.159442
    19  C   -0.177086
    20  C   -0.067723
    21  C    0.150501
    22  C    0.051227
    23  C    0.034114
    24  O   -0.280081
    25  C   -0.023837
    26  N   -0.423288
    27  C    0.056888
    28  C   -0.134321
    29  C   -0.087838
    30  C    0.102097
    31  C    0.008167
    32  C   -0.020617
    33  C   -0.072835
    34  N   -0.441004
    35  C    0.134784
    36  C   -0.199703
    37  C   -0.047642
    38  C    0.196203
    39  C    0.084906
    40  C    0.109233
    41  O   -0.243238
    42  C   -0.054604
    43  C    0.309933
    44  O   -0.267031
    45  O   -0.376435
    46  C    0.130846
    47  C    0.243078
    48  C   -0.122932
    49  C   -0.285545
    50  C    0.009136
    51  C    0.055028
    52  C   -0.005441
    53  C   -0.077341
    54  C   -0.185068
    55  C   -0.029422
    56  C   -0.001290
    57  C   -0.029537
    58  C   -0.029863
    59  C   -0.205759
    60  C   -0.027903
    61  C    0.005823
    62  C   -0.055400
    63  C    0.015386
    64  C   -0.275897
    65  C   -0.000874
    66  C   -0.053987
    67  H    0.006625
    68  H    0.030621
    69  H    0.007672
    70  H    0.065424
    71  H    0.053830
    72  H    0.055721
    73  H    0.038370
    74  H    0.048979
    75  H    0.048085
    76  H    0.050231
    77  H    0.091341
    78  H    0.061431
    79  H    0.032547
    80  H    0.053220
    81  H    0.067833
    82  H    0.044412
    83  H    0.071843
    84  H    0.064844
    85  H    0.064388
    86  H    0.042341
    87  H    0.037078
    88  H    0.057556
    89  H    0.061211
    90  H    0.038737
    91  H    0.036683
    92  H    0.042099
    93  H    0.049613
    94  H    0.049924
    95  H    0.067571
    96  H    0.064163
    97  H    0.046643
    98  H    0.086756
    99  H    0.061420
   100  H    0.048614
   101  H    0.069936
   102  H    0.061786
   103  H    0.050330
   104  H    0.021392
   105  H    0.056967
   106  H    0.047120
   107  H    0.043394
   108  H    0.036807
   109  H    0.027448
   110  H    0.043624
   111  H    0.044812
   112  H    0.026112
   113  H    0.022233
   114  H    0.025828
   115  H    0.030928
   116  H    0.033627
   117  H    0.044938
   118  H    0.017882
   119  H    0.024163
   120  H    0.022716
   121  H    0.027575
   122  H    0.023313
   123  H    0.023333
   124  H    0.038664
   125  H    0.030865
   126  H    0.034376
   127  H    0.029126
   128  H    0.029010
   129  H    0.025145
   130  H    0.031697
   131  H    0.025058
   132  H    0.027098
   133  H    0.023799
   134  H    0.031261
   135  H    0.049838
   136  H    0.041004
   137  H    0.023789
   138  H    0.048864
   139  H    0.036593
   140  H    0.040080
 Sum of Mulliken charges =  -0.00000

 Dipole moment (field-independent basis, Debye):
    X=             -3.1630    Y=              2.0513    Z=              1.3086  Tot=              3.9906
 Quadrupole moment (field-independent basis, Debye-Ang):
   XX=           -390.3364   YY=           -421.4639   ZZ=           -394.6924
   XY=             -6.3931   XZ=             25.6470   YZ=             -9.6844

 Normal termination of Gaussian 16 at Wed Apr 27 19:31:30 2022.
