 Gaussian 16, Revision A.03,
 Gaussian 16:  ES64L-G16RevA.03 25-Dec-2016

 --------------------------------
 #p wB97XD/Def2SVP td=(nstates=5)
 --------------------------------

 -----------------------------------------------------
 step_1301_chromophore_13 TDDFT with wB97XD functional
 -----------------------------------------------------
 Symbolic Z-matrix:
 Charge =  0 Multiplicity = 1

                         Standard orientation:
 ---------------------------------------------------------------------
 Center     Atomic      Atomic             Coordinates (Angstroms)
 Number     Number       Type             X           Y           Z
 ---------------------------------------------------------------------
      1         12           0        5.952426    0.451753    0.288428
      2          6           0        3.666505   -2.169059   -0.072534
      3          6           0        3.738785    2.434212   -1.458118
      4          6           0        8.466454    2.634620    0.016772
      5          6           0        8.297991   -2.002639    1.460968
      6          7           0        3.967652    0.076215   -0.657785
      7          6           0        3.189371   -0.999817   -0.592190
      8          6           0        1.752125   -0.762728   -1.118385
      9          6           0        1.821686    0.730352   -1.686922
     10          6           0        3.227922    1.200745   -1.141683
     11          6           0        1.677788    0.753877   -3.221317
     12          6           0        0.622339   -1.042275   -0.063591
     13          6           0       -0.614166   -1.793841   -0.593633
     14          6           0       -2.034325   -1.354555   -0.259594
     15          8           0       -2.351231   -0.577583    0.617749
     16          8           0       -2.984127   -2.174990   -0.890848
     17          7           0        6.054863    2.375613   -0.544634
     18          6           0        5.045419    3.023505   -1.148644
     19          6           0        5.430914    4.369681   -1.454323
     20          6           0        6.839972    4.484972   -1.045842
     21          6           0        7.189859    3.113657   -0.512165
     22          6           0        4.515929    5.255297   -2.113523
     23          6           0        7.765502    5.633418   -1.054876
     24          8           0        8.991683    5.524340   -0.767470
     25          6           0        7.200518    6.964510   -1.354865
     26          7           0        8.000786    0.366390    0.763018
     27          6           0        8.830332    1.446550    0.669497
     28          6           0       10.243794    1.253489    1.441710
     29          6           0       10.033531   -0.255460    1.927046
     30          6           0        8.731108   -0.713703    1.312199
     31          6           0       11.508699    1.331894    0.492352
     32          6           0       10.124140   -0.548107    3.506422
     33          6           0        9.226118    0.256682    4.398989
     34          7           0        5.971997   -1.585761    0.842171
     35          6           0        6.982329   -2.441699    1.196089
     36          6           0        6.514232   -3.797727    1.244300
     37          6           0        5.225435   -3.729664    0.702794
     38          6           0        4.910556   -2.363095    0.564798
     39          6           0        7.281888   -5.000824    1.722086
     40          6           0        4.097711   -4.532641    0.341601
     41          8           0        4.031797   -5.778712    0.370428
     42          6           0        2.984816   -3.587042   -0.107305
     43          6           0        2.570208   -3.994647   -1.500743
     44          8           0        3.178393   -3.880262   -2.579937
     45          8           0        1.347760   -4.629496   -1.392492
     46          6           0        0.660675   -4.925512   -2.671659
     47          6           0       -4.262745   -2.288956   -0.237612
     48          6           0       -5.266783   -1.501545   -1.117878
     49          6           0       -6.634083   -1.322150   -1.034962
     50          6           0       -7.393484   -1.975038    0.067723
     51          6           0       -7.302734   -0.290517   -1.920576
     52          6           0       -7.467197    1.025612   -1.137746
     53          6           0       -8.916524    1.438302   -0.890078
     54          6           0       -9.318351    2.500339    0.215620
     55          6           0       -8.437254    3.792255    0.176022
     56          6           0       -9.376731    1.948338    1.686517
     57          6           0      -10.573783    2.363116    2.548518
     58          6           0      -11.693315    1.384097    2.522996
     59          6           0      -13.123584    1.916426    2.227598
     60          6           0      -13.434705    2.957711    3.352681
     61          6           0      -14.196155    0.719309    2.269112
     62          6           0      -14.825228    0.447149    0.828935
     63          6           0      -14.545056   -0.875511    0.184101
     64          6           0      -13.738390   -0.760890   -1.142741
     65          6           0      -14.178884   -1.830731   -2.186901
     66          6           0      -12.170095   -0.507438   -0.990946
     67          1           0        2.950988    3.021396   -1.933291
     68          1           0        9.312157    3.325166    0.027628
     69          1           0        9.006010   -2.724411    1.872711
     70          1           0        1.574854   -1.526967   -1.875313
     71          1           0        1.018044    1.354729   -1.296754
     72          1           0        2.618382    0.970854   -3.727968
     73          1           0        0.987299    1.571470   -3.427050
     74          1           0        1.274305   -0.162180   -3.653227
     75          1           0        0.197666   -0.064253    0.162882
     76          1           0        0.973113   -1.507368    0.857934
     77          1           0       -0.427292   -2.741498   -0.087919
     78          1           0       -0.492439   -1.863206   -1.674853
     79          1           0        4.816422    6.301813   -2.162411
     80          1           0        3.558965    5.290347   -1.593472
     81          1           0        4.403494    4.831299   -3.111603
     82          1           0        7.981573    7.720571   -1.439677
     83          1           0        6.527081    7.248080   -0.545996
     84          1           0        6.751210    6.996282   -2.347401
     85          1           0       10.298808    1.984597    2.248007
     86          1           0       10.787061   -0.856714    1.417262
     87          1           0       11.560958    0.431323   -0.119768
     88          1           0       12.358717    1.340760    1.175434
     89          1           0       11.383744    2.115322   -0.254661
     90          1           0       11.128175   -0.267202    3.824825
     91          1           0        9.996084   -1.619436    3.658382
     92          1           0        8.598348    0.724880    3.641811
     93          1           0        9.597594    1.096419    4.985738
     94          1           0        8.654222   -0.435596    5.018079
     95          1           0        7.710560   -5.437892    0.820531
     96          1           0        6.541330   -5.709497    2.091200
     97          1           0        8.036674   -4.767446    2.471979
     98          1           0        2.235302   -3.582651    0.684501
     99          1           0        1.261755   -5.666363   -3.198400
    100          1           0        0.683294   -3.981883   -3.216834
    101          1           0       -0.337940   -5.361115   -2.697608
    102          1           0       -4.224078   -1.870365    0.768774
    103          1           0       -4.614034   -3.312077   -0.103089
    104          1           0       -4.809034   -0.924327   -1.920507
    105          1           0       -7.124799   -1.494203    1.008212
    106          1           0       -7.093317   -3.014994    0.196913
    107          1           0       -8.474130   -1.896617   -0.048727
    108          1           0       -8.186245   -0.818952   -2.279628
    109          1           0       -6.723242   -0.019639   -2.803363
    110          1           0       -6.995523    1.920802   -1.544003
    111          1           0       -7.127588    0.737287   -0.143230
    112          1           0       -9.426509    0.538117   -0.547045
    113          1           0       -9.501827    1.648673   -1.784912
    114          1           0      -10.309551    2.859430   -0.061890
    115          1           0       -9.031193    4.644929    0.505273
    116          1           0       -8.184298    4.050689   -0.852576
    117          1           0       -7.581892    3.676694    0.841465
    118          1           0       -8.532758    2.394905    2.211293
    119          1           0       -9.265044    0.864745    1.648648
    120          1           0      -10.957417    3.335403    2.237163
    121          1           0      -10.236597    2.508639    3.574963
    122          1           0      -11.739128    1.071018    3.566651
    123          1           0      -11.447578    0.497437    1.937085
    124          1           0      -13.064430    2.463388    1.286366
    125          1           0      -12.635822    3.141350    4.070071
    126          1           0      -14.298033    2.755832    3.987359
    127          1           0      -13.589196    3.927090    2.876859
    128          1           0      -15.070622    0.828291    2.910923
    129          1           0      -13.685268   -0.144895    2.693824
    130          1           0      -14.547886    1.252010    0.147487
    131          1           0      -15.894456    0.512119    1.026871
    132          1           0      -15.451228   -1.446471   -0.016726
    133          1           0      -13.912787   -1.415601    0.888922
    134          1           0      -14.014262    0.220840   -1.527955
    135          1           0      -14.932599   -1.431576   -2.866324
    136          1           0      -14.518692   -2.694346   -1.615450
    137          1           0      -13.253568   -2.077864   -2.707129
    138          1           0      -11.939103    0.551863   -1.102897
    139          1           0      -11.595514   -1.108363   -1.696112
    140          1           0      -11.874149   -0.769349    0.025221
 ---------------------------------------------------------------------

 SCF Done:  E(RwB97XD) =  -3007.85279029     A.U. after   19 cycles

 Excitation energies and oscillator strengths:

 Excited State   1:      Singlet-A      1.5996 eV  775.08 nm  f=0.4181  <S**2>=0.000
     245 -> 248        0.16693
     246 -> 247        0.68784
     245 <- 248        0.11454
 This state for optimization and/or second-order correction.
 Total Energy, E(TD-HF/TD-DFT) =  -3007.79400523
 Copying the excited state density for this state as the 1-particle RhoCI density.

 Excited State   2:      Singlet-A      2.1218 eV  584.34 nm  f=0.1658  <S**2>=0.000
     245 -> 247        0.65792
     246 -> 248       -0.24263

 Excited State   3:      Singlet-A      3.2942 eV  376.37 nm  f=0.0063  <S**2>=0.000
     241 -> 247       -0.32559
     243 -> 247        0.59511

 Excited State   4:      Singlet-A      3.3651 eV  368.45 nm  f=0.0133  <S**2>=0.000
     239 -> 247       -0.15985
     239 -> 249        0.10636
     240 -> 247       -0.31999
     240 -> 249        0.23010
     240 -> 250        0.12264
     241 -> 247        0.44303
     243 -> 247        0.24923

 Excited State   5:      Singlet-A      3.4041 eV  364.22 nm  f=0.0040  <S**2>=0.000
     239 -> 247        0.11127
     239 -> 249       -0.10243
     240 -> 247        0.42838
     240 -> 249       -0.19404
     241 -> 247        0.36125
     242 -> 247       -0.15234
     243 -> 247        0.18946
     246 -> 248        0.14071

 The electronic state is 1-A.
 Alpha  occ. eigenvalues --  -46.95578 -19.30730 -19.30041 -19.25985 -19.25726
 Alpha  occ. eigenvalues --  -19.24197 -19.22620 -14.47101 -14.46862 -14.44462
 Alpha  occ. eigenvalues --  -14.44327 -10.44529 -10.44325 -10.39125 -10.37991
 Alpha  occ. eigenvalues --  -10.36204 -10.35846 -10.35305 -10.35138 -10.35040
 Alpha  occ. eigenvalues --  -10.35010 -10.34752 -10.34144 -10.33678 -10.33646
 Alpha  occ. eigenvalues --  -10.33378 -10.33024 -10.33014 -10.32976 -10.32557
 Alpha  occ. eigenvalues --  -10.32278 -10.32156 -10.32130 -10.32020 -10.31595
 Alpha  occ. eigenvalues --  -10.31433 -10.30979 -10.30921 -10.30797 -10.30722
 Alpha  occ. eigenvalues --  -10.30445 -10.30384 -10.30258 -10.30225 -10.30077
 Alpha  occ. eigenvalues --  -10.30060 -10.29947 -10.29732 -10.29711 -10.29440
 Alpha  occ. eigenvalues --  -10.29275 -10.29273 -10.29241 -10.29235 -10.29170
 Alpha  occ. eigenvalues --  -10.29020 -10.28737 -10.28583 -10.28578 -10.28356
 Alpha  occ. eigenvalues --  -10.28351 -10.28341 -10.28292 -10.28156 -10.27986
 Alpha  occ. eigenvalues --  -10.27944  -3.21481  -1.95070  -1.94597  -1.94459
 Alpha  occ. eigenvalues --   -1.18775  -1.18105  -1.11038  -1.10787  -1.09457
 Alpha  occ. eigenvalues --   -1.09029  -1.06870  -1.05445  -1.04831  -1.03901
 Alpha  occ. eigenvalues --   -0.95228  -0.92189  -0.91716  -0.91294  -0.91056
 Alpha  occ. eigenvalues --   -0.90319  -0.89992  -0.89709  -0.89153  -0.88679
 Alpha  occ. eigenvalues --   -0.88602  -0.87400  -0.85914  -0.85709  -0.85277
 Alpha  occ. eigenvalues --   -0.84545  -0.84163  -0.83412  -0.82756  -0.82340
 Alpha  occ. eigenvalues --   -0.81727  -0.80255  -0.79832  -0.79425  -0.78480
 Alpha  occ. eigenvalues --   -0.78035  -0.77348  -0.77002  -0.76236  -0.75930
 Alpha  occ. eigenvalues --   -0.75538  -0.74715  -0.73102  -0.72299  -0.71310
 Alpha  occ. eigenvalues --   -0.70985  -0.70569  -0.69434  -0.69048  -0.67783
 Alpha  occ. eigenvalues --   -0.67152  -0.66767  -0.66618  -0.66180  -0.65288
 Alpha  occ. eigenvalues --   -0.65193  -0.64565  -0.64194  -0.63241  -0.62069
 Alpha  occ. eigenvalues --   -0.61944  -0.61776  -0.61289  -0.61018  -0.60621
 Alpha  occ. eigenvalues --   -0.60300  -0.59315  -0.58096  -0.57810  -0.57612
 Alpha  occ. eigenvalues --   -0.57403  -0.57219  -0.56656  -0.56446  -0.56165
 Alpha  occ. eigenvalues --   -0.55798  -0.55252  -0.54863  -0.54832  -0.54635
 Alpha  occ. eigenvalues --   -0.54479  -0.54401  -0.54043  -0.54011  -0.53767
 Alpha  occ. eigenvalues --   -0.53649  -0.53449  -0.53108  -0.52982  -0.52928
 Alpha  occ. eigenvalues --   -0.52627  -0.52504  -0.52199  -0.51873  -0.51681
 Alpha  occ. eigenvalues --   -0.51496  -0.51197  -0.50908  -0.50829  -0.50736
 Alpha  occ. eigenvalues --   -0.50522  -0.50308  -0.50072  -0.50035  -0.49557
 Alpha  occ. eigenvalues --   -0.49446  -0.49237  -0.49131  -0.48950  -0.48558
 Alpha  occ. eigenvalues --   -0.48502  -0.48257  -0.48012  -0.47819  -0.47683
 Alpha  occ. eigenvalues --   -0.47602  -0.47365  -0.47164  -0.47011  -0.46600
 Alpha  occ. eigenvalues --   -0.46569  -0.46415  -0.46268  -0.45852  -0.45597
 Alpha  occ. eigenvalues --   -0.45487  -0.45372  -0.45074  -0.44980  -0.44840
 Alpha  occ. eigenvalues --   -0.44576  -0.44501  -0.44392  -0.44274  -0.43990
 Alpha  occ. eigenvalues --   -0.43842  -0.43658  -0.43571  -0.43062  -0.42967
 Alpha  occ. eigenvalues --   -0.42831  -0.42770  -0.42568  -0.42174  -0.41969
 Alpha  occ. eigenvalues --   -0.41771  -0.41415  -0.41079  -0.40949  -0.40642
 Alpha  occ. eigenvalues --   -0.39998  -0.39630  -0.39401  -0.39238  -0.39071
 Alpha  occ. eigenvalues --   -0.38970  -0.38903  -0.38810  -0.38699  -0.37885
 Alpha  occ. eigenvalues --   -0.37601  -0.37156  -0.37082  -0.37025  -0.36939
 Alpha  occ. eigenvalues --   -0.36602  -0.36444  -0.35314  -0.33707  -0.33271
 Alpha  occ. eigenvalues --   -0.32588  -0.32166  -0.31367  -0.30820  -0.26193
 Alpha  occ. eigenvalues --   -0.23313
 Alpha virt. eigenvalues --   -0.07812   0.00774   0.01961   0.03730   0.05464
 Alpha virt. eigenvalues --    0.06022   0.06114   0.07333   0.07872   0.09451
 Alpha virt. eigenvalues --    0.10594   0.11045   0.11105   0.11636   0.11696

 Mulliken charges:
               1
     1  Mg   0.961339
     2  C   -0.086020
     3  C   -0.066699
     4  C   -0.040142
     5  C   -0.119039
     6  N   -0.367135
     7  C    0.015670
     8  C   -0.073947
     9  C   -0.103590
    10  C    0.064017
    11  C    0.015284
    12  C    0.016932
    13  C   -0.055025
    14  C    0.246836
    15  O   -0.238937
    16  O   -0.380686
    17  N   -0.427236
    18  C    0.144590
    19  C   -0.162228
    20  C   -0.067682
    21  C    0.135772
    22  C    0.063842
    23  C    0.031843
    24  O   -0.275519
    25  C   -0.014511
    26  N   -0.394100
    27  C    0.040434
    28  C   -0.113375
    29  C   -0.058093
    30  C    0.091927
    31  C    0.020281
    32  C   -0.007806
    33  C   -0.052790
    34  N   -0.403237
    35  C    0.132976
    36  C   -0.195487
    37  C   -0.042310
    38  C    0.177430
    39  C    0.096432
    40  C    0.089327
    41  O   -0.230970
    42  C   -0.013428
    43  C    0.286313
    44  O   -0.260018
    45  O   -0.374771
    46  C    0.146414
    47  C    0.260323
    48  C   -0.140181
    49  C   -0.258637
    50  C    0.018746
    51  C    0.066963
    52  C    0.017961
    53  C   -0.047584
    54  C   -0.160922
    55  C   -0.016405
    56  C    0.019512
    57  C   -0.016132
    58  C   -0.001741
    59  C   -0.174319
    60  C   -0.017761
    61  C    0.016896
    62  C   -0.037498
    63  C    0.030320
    64  C   -0.244764
    65  C    0.015277
    66  C   -0.033712
    67  H    0.000371
    68  H    0.024183
    69  H    0.002108
    70  H    0.040388
    71  H    0.044947
    72  H    0.050007
    73  H    0.033120
    74  H    0.043427
    75  H    0.038687
    76  H    0.043226
    77  H    0.083077
    78  H    0.054002
    79  H    0.026698
    80  H    0.047227
    81  H    0.061977
    82  H    0.042315
    83  H    0.066968
    84  H    0.058910
    85  H    0.056358
    86  H    0.030700
    87  H    0.029726
    88  H    0.051491
    89  H    0.056260
    90  H    0.030981
    91  H    0.028301
    92  H    0.026994
    93  H    0.045880
    94  H    0.045047
    95  H    0.063777
    96  H    0.060701
    97  H    0.042953
    98  H    0.079893
    99  H    0.057666
   100  H    0.043473
   101  H    0.067842
   102  H    0.056481
   103  H    0.045601
   104  H    0.016658
   105  H    0.051130
   106  H    0.041798
   107  H    0.038681
   108  H    0.028927
   109  H    0.022295
   110  H    0.036865
   111  H    0.028168
   112  H   -0.002586
   113  H    0.014412
   114  H    0.012757
   115  H    0.025149
   116  H    0.027478
   117  H    0.038022
   118  H    0.008618
   119  H    0.013878
   120  H    0.010939
   121  H    0.021371
   122  H    0.011887
   123  H    0.003251
   124  H    0.025101
   125  H    0.023408
   126  H    0.029101
   127  H    0.023773
   128  H    0.022407
   129  H    0.015750
   130  H    0.019698
   131  H    0.018589
   132  H    0.020095
   133  H    0.011613
   134  H    0.017015
   135  H    0.044974
   136  H    0.034024
   137  H    0.016652
   138  H    0.038929
   139  H    0.030326
   140  H    0.027859
 Sum of Mulliken charges =  -0.00000

 Dipole moment (field-independent basis, Debye):
    X=             -3.3391    Y=              1.6180    Z=              1.3803  Tot=              3.9589
 Quadrupole moment (field-independent basis, Debye-Ang):
   XX=           -392.0886   YY=           -420.0493   ZZ=           -394.3069
   XY=             -8.6514   XZ=             26.3035   YZ=             -9.7316

 Normal termination of Gaussian 16 at Wed Apr 27 20:10:38 2022.
