 Gaussian 16, Revision A.03,
 Gaussian 16:  ES64L-G16RevA.03 25-Dec-2016

 --------------------
 #p ZINDO=(nstates=5)
 --------------------

 ------------------------------
 step_1301_chromophore_13 ZINDO
 ------------------------------
 Symbolic Z-matrix:
 Charge =  0 Multiplicity = 1

                         Standard orientation:
 ---------------------------------------------------------------------
 Center     Atomic      Atomic             Coordinates (Angstroms)
 Number     Number       Type             X           Y           Z
 ---------------------------------------------------------------------
      1         12           0        5.952426    0.451753    0.288428
      2          6           0        3.666505   -2.169059   -0.072534
      3          6           0        3.738785    2.434212   -1.458118
      4          6           0        8.466454    2.634620    0.016772
      5          6           0        8.297991   -2.002639    1.460968
      6          7           0        3.967652    0.076215   -0.657785
      7          6           0        3.189371   -0.999817   -0.592190
      8          6           0        1.752125   -0.762728   -1.118385
      9          6           0        1.821686    0.730352   -1.686922
     10          6           0        3.227922    1.200745   -1.141683
     11          6           0        1.677788    0.753877   -3.221317
     12          6           0        0.622339   -1.042275   -0.063591
     13          6           0       -0.614166   -1.793841   -0.593633
     14          6           0       -2.034325   -1.354555   -0.259594
     15          8           0       -2.351231   -0.577583    0.617749
     16          8           0       -2.984127   -2.174990   -0.890848
     17          7           0        6.054863    2.375613   -0.544634
     18          6           0        5.045419    3.023505   -1.148644
     19          6           0        5.430914    4.369681   -1.454323
     20          6           0        6.839972    4.484972   -1.045842
     21          6           0        7.189859    3.113657   -0.512165
     22          6           0        4.515929    5.255297   -2.113523
     23          6           0        7.765502    5.633418   -1.054876
     24          8           0        8.991683    5.524340   -0.767470
     25          6           0        7.200518    6.964510   -1.354865
     26          7           0        8.000786    0.366390    0.763018
     27          6           0        8.830332    1.446550    0.669497
     28          6           0       10.243794    1.253489    1.441710
     29          6           0       10.033531   -0.255460    1.927046
     30          6           0        8.731108   -0.713703    1.312199
     31          6           0       11.508699    1.331894    0.492352
     32          6           0       10.124140   -0.548107    3.506422
     33          6           0        9.226118    0.256682    4.398989
     34          7           0        5.971997   -1.585761    0.842171
     35          6           0        6.982329   -2.441699    1.196089
     36          6           0        6.514232   -3.797727    1.244300
     37          6           0        5.225435   -3.729664    0.702794
     38          6           0        4.910556   -2.363095    0.564798
     39          6           0        7.281888   -5.000824    1.722086
     40          6           0        4.097711   -4.532641    0.341601
     41          8           0        4.031797   -5.778712    0.370428
     42          6           0        2.984816   -3.587042   -0.107305
     43          6           0        2.570208   -3.994647   -1.500743
     44          8           0        3.178393   -3.880262   -2.579937
     45          8           0        1.347760   -4.629496   -1.392492
     46          6           0        0.660675   -4.925512   -2.671659
     47          6           0       -4.262745   -2.288956   -0.237612
     48          6           0       -5.266783   -1.501545   -1.117878
     49          6           0       -6.634083   -1.322150   -1.034962
     50          6           0       -7.393484   -1.975038    0.067723
     51          6           0       -7.302734   -0.290517   -1.920576
     52          6           0       -7.467197    1.025612   -1.137746
     53          6           0       -8.916524    1.438302   -0.890078
     54          6           0       -9.318351    2.500339    0.215620
     55          6           0       -8.437254    3.792255    0.176022
     56          6           0       -9.376731    1.948338    1.686517
     57          6           0      -10.573783    2.363116    2.548518
     58          6           0      -11.693315    1.384097    2.522996
     59          6           0      -13.123584    1.916426    2.227598
     60          6           0      -13.434705    2.957711    3.352681
     61          6           0      -14.196155    0.719309    2.269112
     62          6           0      -14.825228    0.447149    0.828935
     63          6           0      -14.545056   -0.875511    0.184101
     64          6           0      -13.738390   -0.760890   -1.142741
     65          6           0      -14.178884   -1.830731   -2.186901
     66          6           0      -12.170095   -0.507438   -0.990946
     67          1           0        2.950988    3.021396   -1.933291
     68          1           0        9.312157    3.325166    0.027628
     69          1           0        9.006010   -2.724411    1.872711
     70          1           0        1.574854   -1.526967   -1.875313
     71          1           0        1.018044    1.354729   -1.296754
     72          1           0        2.618382    0.970854   -3.727968
     73          1           0        0.987299    1.571470   -3.427050
     74          1           0        1.274305   -0.162180   -3.653227
     75          1           0        0.197666   -0.064253    0.162882
     76          1           0        0.973113   -1.507368    0.857934
     77          1           0       -0.427292   -2.741498   -0.087919
     78          1           0       -0.492439   -1.863206   -1.674853
     79          1           0        4.816422    6.301813   -2.162411
     80          1           0        3.558965    5.290347   -1.593472
     81          1           0        4.403494    4.831299   -3.111603
     82          1           0        7.981573    7.720571   -1.439677
     83          1           0        6.527081    7.248080   -0.545996
     84          1           0        6.751210    6.996282   -2.347401
     85          1           0       10.298808    1.984597    2.248007
     86          1           0       10.787061   -0.856714    1.417262
     87          1           0       11.560958    0.431323   -0.119768
     88          1           0       12.358717    1.340760    1.175434
     89          1           0       11.383744    2.115322   -0.254661
     90          1           0       11.128175   -0.267202    3.824825
     91          1           0        9.996084   -1.619436    3.658382
     92          1           0        8.598348    0.724880    3.641811
     93          1           0        9.597594    1.096419    4.985738
     94          1           0        8.654222   -0.435596    5.018079
     95          1           0        7.710560   -5.437892    0.820531
     96          1           0        6.541330   -5.709497    2.091200
     97          1           0        8.036674   -4.767446    2.471979
     98          1           0        2.235302   -3.582651    0.684501
     99          1           0        1.261755   -5.666363   -3.198400
    100          1           0        0.683294   -3.981883   -3.216834
    101          1           0       -0.337940   -5.361115   -2.697608
    102          1           0       -4.224078   -1.870365    0.768774
    103          1           0       -4.614034   -3.312077   -0.103089
    104          1           0       -4.809034   -0.924327   -1.920507
    105          1           0       -7.124799   -1.494203    1.008212
    106          1           0       -7.093317   -3.014994    0.196913
    107          1           0       -8.474130   -1.896617   -0.048727
    108          1           0       -8.186245   -0.818952   -2.279628
    109          1           0       -6.723242   -0.019639   -2.803363
    110          1           0       -6.995523    1.920802   -1.544003
    111          1           0       -7.127588    0.737287   -0.143230
    112          1           0       -9.426509    0.538117   -0.547045
    113          1           0       -9.501827    1.648673   -1.784912
    114          1           0      -10.309551    2.859430   -0.061890
    115          1           0       -9.031193    4.644929    0.505273
    116          1           0       -8.184298    4.050689   -0.852576
    117          1           0       -7.581892    3.676694    0.841465
    118          1           0       -8.532758    2.394905    2.211293
    119          1           0       -9.265044    0.864745    1.648648
    120          1           0      -10.957417    3.335403    2.237163
    121          1           0      -10.236597    2.508639    3.574963
    122          1           0      -11.739128    1.071018    3.566651
    123          1           0      -11.447578    0.497437    1.937085
    124          1           0      -13.064430    2.463388    1.286366
    125          1           0      -12.635822    3.141350    4.070071
    126          1           0      -14.298033    2.755832    3.987359
    127          1           0      -13.589196    3.927090    2.876859
    128          1           0      -15.070622    0.828291    2.910923
    129          1           0      -13.685268   -0.144895    2.693824
    130          1           0      -14.547886    1.252010    0.147487
    131          1           0      -15.894456    0.512119    1.026871
    132          1           0      -15.451228   -1.446471   -0.016726
    133          1           0      -13.912787   -1.415601    0.888922
    134          1           0      -14.014262    0.220840   -1.527955
    135          1           0      -14.932599   -1.431576   -2.866324
    136          1           0      -14.518692   -2.694346   -1.615450
    137          1           0      -13.253568   -2.077864   -2.707129
    138          1           0      -11.939103    0.551863   -1.102897
    139          1           0      -11.595514   -1.108363   -1.696112
    140          1           0      -11.874149   -0.769349    0.025221
 ---------------------------------------------------------------------

 SCF Done:  E(RZINDO/S) =  -474.029444044     A.U. after   19 cycles

 Excitation energies and oscillator strengths:

 Excited State   1:      Singlet-A      1.2166 eV 1019.06 nm  f=0.6396  <S**2>=0.000
     175 ->178         0.15558
     176 ->177         0.66952
 This state for optimization and/or second-order correction.
 Total Energy, E(CIS/TDA) =  -473.984733084
 Copying the excited state density for this state as the 1-particle RhoCI density.

 Excited State   2:      Singlet-A      1.8908 eV  655.74 nm  f=0.1416  <S**2>=0.000
     175 ->177         0.59869
     176 ->178        -0.31135
     176 ->179         0.14164

 Excited State   3:      Singlet-A      2.8452 eV  435.77 nm  f=0.0016  <S**2>=0.000
     168 ->177         0.37925
     168 ->178        -0.25527
     168 ->179        -0.36443
     168 ->182         0.17262
     168 ->186         0.15693
     168 ->195         0.10469
     171 ->177         0.11744

 Excited State   4:      Singlet-A      2.9984 eV  413.50 nm  f=0.0023  <S**2>=0.000
     170 ->177         0.29748
     170 ->179         0.25676
     170 ->180         0.39760
     170 ->182         0.19295
     170 ->186        -0.16583
     170 ->187         0.17067
     170 ->188        -0.12938

 Excited State   5:      Singlet-A      3.0395 eV  407.92 nm  f=0.6928  <S**2>=0.000
     171 ->177        -0.12940
     173 ->177         0.18591
     175 ->177         0.26352
     176 ->178         0.57794

 The electronic state is 1-A.
 Alpha  occ. eigenvalues --   -1.86000  -1.78742  -1.77875  -1.73127  -1.71677
 Alpha  occ. eigenvalues --   -1.69498  -1.64968  -1.59967  -1.59235  -1.55879
 Alpha  occ. eigenvalues --   -1.55544  -1.51323  -1.48693  -1.48098  -1.46344
 Alpha  occ. eigenvalues --   -1.44005  -1.43369  -1.40300  -1.39169  -1.37952
 Alpha  occ. eigenvalues --   -1.36422  -1.34999  -1.32500  -1.30603  -1.29861
 Alpha  occ. eigenvalues --   -1.26491  -1.24139  -1.22268  -1.19821  -1.18099
 Alpha  occ. eigenvalues --   -1.17633  -1.17021  -1.15262  -1.13429  -1.12136
 Alpha  occ. eigenvalues --   -1.11997  -1.10313  -1.09877  -1.04808  -1.04103
 Alpha  occ. eigenvalues --   -1.03351  -1.01387  -0.99137  -0.98265  -0.97150
 Alpha  occ. eigenvalues --   -0.96669  -0.94273  -0.93718  -0.93414  -0.92217
 Alpha  occ. eigenvalues --   -0.89623  -0.88496  -0.88108  -0.87249  -0.85180
 Alpha  occ. eigenvalues --   -0.84664  -0.84191  -0.83198  -0.81491  -0.81167
 Alpha  occ. eigenvalues --   -0.80434  -0.79173  -0.77822  -0.77372  -0.76744
 Alpha  occ. eigenvalues --   -0.75950  -0.75303  -0.75051  -0.74983  -0.74146
 Alpha  occ. eigenvalues --   -0.73824  -0.73165  -0.72117  -0.71715  -0.70399
 Alpha  occ. eigenvalues --   -0.69898  -0.69255  -0.68912  -0.68685  -0.67869
 Alpha  occ. eigenvalues --   -0.67546  -0.67036  -0.66725  -0.66570  -0.65777
 Alpha  occ. eigenvalues --   -0.65079  -0.64575  -0.64511  -0.64022  -0.63994
 Alpha  occ. eigenvalues --   -0.63635  -0.63311  -0.63074  -0.62700  -0.62445
 Alpha  occ. eigenvalues --   -0.61633  -0.61252  -0.60796  -0.60147  -0.59935
 Alpha  occ. eigenvalues --   -0.59426  -0.59237  -0.58904  -0.58680  -0.58524
 Alpha  occ. eigenvalues --   -0.57871  -0.57473  -0.57418  -0.56720  -0.56509
 Alpha  occ. eigenvalues --   -0.56090  -0.55724  -0.55135  -0.54916  -0.54538
 Alpha  occ. eigenvalues --   -0.54284  -0.54018  -0.53472  -0.52858  -0.52631
 Alpha  occ. eigenvalues --   -0.52432  -0.52101  -0.52021  -0.51655  -0.51392
 Alpha  occ. eigenvalues --   -0.51239  -0.50836  -0.50786  -0.50629  -0.50262
 Alpha  occ. eigenvalues --   -0.49988  -0.49770  -0.49634  -0.49351  -0.48874
 Alpha  occ. eigenvalues --   -0.48752  -0.48625  -0.48338  -0.48293  -0.47789
 Alpha  occ. eigenvalues --   -0.47596  -0.47398  -0.46760  -0.46494  -0.46143
 Alpha  occ. eigenvalues --   -0.46043  -0.45930  -0.45878  -0.45564  -0.45101
 Alpha  occ. eigenvalues --   -0.45085  -0.44874  -0.44303  -0.43958  -0.43742
 Alpha  occ. eigenvalues --   -0.43131  -0.43023  -0.42913  -0.42553  -0.42344
 Alpha  occ. eigenvalues --   -0.42323  -0.41925  -0.41837  -0.39690  -0.39612
 Alpha  occ. eigenvalues --   -0.38821  -0.37518  -0.35997  -0.34710  -0.34075
 Alpha  occ. eigenvalues --   -0.33843  -0.32655  -0.31281  -0.31083  -0.26843
 Alpha  occ. eigenvalues --   -0.22208
 Alpha virt. eigenvalues --   -0.09339  -0.01651  -0.00939   0.00905   0.00943
 Alpha virt. eigenvalues --    0.01737   0.02042   0.02667   0.04494   0.04941
 Alpha virt. eigenvalues --    0.06186   0.06563   0.07473   0.07617   0.07848

 Mulliken charges:
               1
     1  Mg   0.429992
     2  C   -0.062660
     3  C   -0.054929
     4  C   -0.061454
     5  C   -0.070330
     6  N   -0.283799
     7  C    0.169823
     8  C   -0.004698
     9  C    0.003355
    10  C    0.070414
    11  C   -0.048989
    12  C   -0.033124
    13  C    0.002168
    14  C    0.467924
    15  O   -0.501311
    16  O   -0.280873
    17  N   -0.289482
    18  C    0.073131
    19  C    0.007772
    20  C   -0.082296
    21  C    0.127540
    22  C   -0.034100
    23  C    0.330747
    24  O   -0.563322
    25  C   -0.028446
    26  N   -0.282825
    27  C    0.113200
    28  C   -0.004006
    29  C   -0.001919
    30  C    0.151999
    31  C   -0.053318
    32  C   -0.021787
    33  C   -0.059295
    34  N   -0.325488
    35  C    0.129143
    36  C    0.052688
    37  C   -0.044888
    38  C    0.131694
    39  C   -0.036152
    40  C    0.336986
    41  O   -0.528546
    42  C    0.056480
    43  C    0.494058
    44  O   -0.519984
    45  O   -0.273890
    46  C    0.070136
    47  C    0.111667
    48  C   -0.112036
    49  C   -0.004025
    50  C   -0.038344
    51  C   -0.011587
    52  C   -0.023802
    53  C   -0.041812
    54  C   -0.016936
    55  C   -0.059646
    56  C   -0.034750
    57  C   -0.026515
    58  C   -0.032882
    59  C   -0.010103
    60  C   -0.062305
    61  C   -0.043213
    62  C   -0.039619
    63  C   -0.026883
    64  C   -0.029169
    65  C   -0.058663
    66  C   -0.060033
    67  H    0.027364
    68  H    0.044883
    69  H    0.031153
    70  H    0.036325
    71  H    0.033123
    72  H    0.027257
    73  H    0.014522
    74  H    0.023198
    75  H    0.026988
    76  H    0.030473
    77  H    0.048692
    78  H    0.042140
    79  H    0.019000
    80  H    0.026023
    81  H    0.036591
    82  H    0.027007
    83  H    0.041175
    84  H    0.035302
    85  H    0.044545
    86  H    0.025324
    87  H    0.017042
    88  H    0.027846
    89  H    0.037806
    90  H    0.013052
    91  H    0.023581
    92  H    0.019315
    93  H    0.030158
    94  H    0.020256
    95  H    0.042578
    96  H    0.037271
    97  H    0.031780
    98  H    0.064362
    99  H    0.043427
   100  H    0.037576
   101  H    0.044838
   102  H    0.054498
   103  H    0.041788
   104  H    0.025164
   105  H    0.029164
   106  H    0.024709
   107  H    0.020672
   108  H    0.026248
   109  H    0.019494
   110  H    0.033605
   111  H    0.028424
   112  H    0.001876
   113  H    0.015903
   114  H    0.015552
   115  H    0.012454
   116  H    0.015985
   117  H    0.026655
   118  H    0.013424
   119  H    0.021796
   120  H    0.017190
   121  H    0.015262
   122  H    0.008576
   123  H    0.017425
   124  H    0.030657
   125  H    0.017887
   126  H    0.018905
   127  H    0.009883
   128  H    0.022884
   129  H    0.020631
   130  H    0.024226
   131  H    0.011108
   132  H    0.021472
   133  H    0.017112
   134  H    0.009208
   135  H    0.027994
   136  H    0.023027
   137  H    0.018323
   138  H    0.022418
   139  H    0.022701
   140  H    0.017040
 Sum of Mulliken charges =  -0.00000

 Dipole moment (field-independent basis, Debye):
    X=             -4.8613    Y=             -0.0199    Z=              2.6829  Tot=              5.5526
 N-N= 4.266572408924D+03 E-N= 0.000000000000D+00  KE=-9.207113263298D+03
 Leave Link  601 at Wed Apr 27 20:29:36 2022, MaxMem=  6710886400 cpu:               0.8 elap:               0.1
 (Enter /sw/apps/gaussian-16.0/g16/l9999.exe)
 1\1\GINC-BP1-COMPUTE198\SP\RZINDO CIS\STO-3G\C55H74Mg1N4O6\OF15641\27-
 Apr-2022\0\\#p ZINDO=(nstates=5)\\step_1301_chromophore_13 ZINDO\\0,1\
 Mg,0,45.811,24.689,28.59\C,0,46.304,26.808,31.327\C,0,45.875,22.048,30
 .804\C,0,46.103,22.73,25.9\C,0,46.461,27.539,26.503\N,0,46.105,24.538,
 30.796\C,0,46.175,25.503,31.708\C,0,46.066,24.992,33.166\C,0,46.046,23
 .403,32.987\C,0,45.873,23.273,31.422\C,0,47.325,22.758,33.556\C,0,44.8
 7,25.605,33.979\C,0,45.188,26.008,35.432\C,0,44.263,25.658,36.591\O,0,

 Normal termination of Gaussian 16 at Wed Apr 27 20:29:36 2022.
