 Gaussian 16, Revision A.03,
 Gaussian 16:  ES64L-G16RevA.03 25-Dec-2016

 ------------------------------
 #p blyp/Def2SVP td=(nstates=5)
 ------------------------------

 -------------------------------------------------
 step_101_chromophore_6 TDDFT with blyp functional
 -------------------------------------------------
 Symbolic Z-matrix:
 Charge =  0 Multiplicity = 1

                         Standard orientation:
 ---------------------------------------------------------------------
 Center     Atomic      Atomic             Coordinates (Angstroms)
 Number     Number       Type             X           Y           Z
 ---------------------------------------------------------------------
      1         12           0       -5.898213    0.961469   -0.413524
      2          6           0       -5.067573   -2.305049    0.090446
      3          6           0       -2.425116    1.621110   -0.797240
      4          6           0       -6.470067    4.300059   -0.223065
      5          6           0       -9.197315    0.247301    0.316230
      6          7           0       -3.925406   -0.206525   -0.180497
      7          6           0       -3.861692   -1.563059   -0.041155
      8          6           0       -2.408190   -2.113321   -0.077002
      9          6           0       -1.530983   -0.804882   -0.167781
     10          6           0       -2.730731    0.280215   -0.455689
     11          6           0       -0.827690   -0.497113    1.195001
     12          6           0       -2.176538   -3.013658   -1.365944
     13          6           0       -0.769817   -3.517480   -1.600174
     14          6           0        0.341245   -3.570365   -0.457972
     15          8           0        0.129809   -3.639666    0.760178
     16          8           0        1.634748   -3.464202   -1.026883
     17          7           0       -4.630370    2.677446   -0.617220
     18          6           0       -3.282188    2.726742   -0.832677
     19          6           0       -2.878526    4.115702   -0.961940
     20          6           0       -4.034624    4.937104   -0.654203
     21          6           0       -5.111756    4.031855   -0.477467
     22          6           0       -1.459936    4.527440   -1.275387
     23          6           0       -4.093527    6.510374   -0.612514
     24          8           0       -5.168498    7.129601   -0.490683
     25          6           0       -2.846993    7.300100   -0.587240
     26          7           0       -7.643458    2.143814   -0.038651
     27          6           0       -7.666207    3.489040   -0.069942
     28          6           0       -9.063501    4.105382    0.355411
     29          6           0       -9.944907    2.766507    0.439405
     30          6           0       -8.878354    1.619879    0.183770
     31          6           0       -9.059558    5.032694    1.618950
     32          6           0      -11.001159    2.645866   -0.708659
     33          6           0      -12.298040    2.064840   -0.175861
     34          7           0       -7.047574   -0.656870   -0.091075
     35          6           0       -8.353836   -0.819573    0.250781
     36          6           0       -8.648408   -2.236656    0.417454
     37          6           0       -7.309442   -2.819843    0.370265
     38          6           0       -6.371060   -1.820525    0.082938
     39          6           0      -10.046085   -2.793359    0.595346
     40          6           0       -6.632804   -4.114606    0.477490
     41          8           0       -7.167348   -5.170168    0.807845
     42          6           0       -5.136635   -3.848552    0.251767
     43          6           0       -4.371697   -4.411474    1.463356
     44          8           0       -4.432628   -3.947741    2.600405
     45          8           0       -3.656729   -5.503966    1.117047
     46          6           0       -2.914863   -6.226763    2.208048
     47          6           0        2.698967   -3.307615   -0.056048
     48          6           0        3.928773   -3.227012   -0.844501
     49          6           0        5.173209   -3.734462   -0.597674
     50          6           0        5.624180   -4.249396    0.770720
     51          6           0        6.388672   -3.588038   -1.502277
     52          6           0        7.243952   -2.316651   -1.402227
     53          6           0        8.783151   -2.478137   -1.363872
     54          6           0        9.557858   -1.193180   -1.562662
     55          6           0        9.324499   -0.606681   -2.938424
     56          6           0       11.105962   -1.585018   -1.324675
     57          6           0       11.738810   -1.242558    0.037958
     58          6           0       13.304436   -1.183785   -0.070293
     59          6           0       13.808538    0.275381   -0.172518
     60          6           0       14.678319    0.473367   -1.398222
     61          6           0       14.438329    0.757090    1.149688
     62          6           0       13.889494    2.154422    1.508284
     63          6           0       14.944178    3.004407    2.001004
     64          6           0       14.752806    4.488446    1.795399
     65          6           0       14.938493    5.295288    3.098195
     66          6           0       15.768233    5.023022    0.680825
     67          1           0       -1.359725    1.726568   -1.008688
     68          1           0       -6.742843    5.348834   -0.084769
     69          1           0      -10.236152    0.119079    0.627064
     70          1           0       -2.226401   -2.708673    0.818140
     71          1           0       -0.719319   -0.626578   -0.872176
     72          1           0       -0.977106   -1.368622    1.832051
     73          1           0       -1.202589    0.426065    1.637126
     74          1           0        0.239944   -0.302509    1.094733
     75          1           0       -2.588157   -2.460968   -2.210449
     76          1           0       -2.797892   -3.904254   -1.277488
     77          1           0       -0.392790   -3.062368   -2.515418
     78          1           0       -0.819497   -4.571827   -1.872044
     79          1           0       -0.955541    5.133992   -0.523573
     80          1           0       -1.545982    5.239764   -2.094799
     81          1           0       -0.788862    3.710062   -1.541069
     82          1           0       -2.293158    7.001144    0.302691
     83          1           0       -3.163647    8.343178   -0.628804
     84          1           0       -2.147739    7.268286   -1.422491
     85          1           0       -9.278403    4.720724   -0.518708
     86          1           0      -10.412578    2.712071    1.422716
     87          1           0       -8.147518    4.954736    2.210212
     88          1           0       -9.869586    4.844279    2.323027
     89          1           0       -9.158428    6.043642    1.223271
     90          1           0      -10.567853    2.045292   -1.509213
     91          1           0      -11.103449    3.662251   -1.087258
     92          1           0      -12.682338    1.270025   -0.814548
     93          1           0      -13.128080    2.769209   -0.125937
     94          1           0      -12.120998    1.595990    0.792346
     95          1           0      -10.651800   -2.142670    1.226520
     96          1           0      -10.020428   -3.631348    1.291149
     97          1           0      -10.499055   -3.173156   -0.321154
     98          1           0       -4.787300   -4.356678   -0.646665
     99          1           0       -3.644924   -6.534782    2.956547
    100          1           0       -2.261065   -5.529836    2.733033
    101          1           0       -2.331910   -7.093388    1.897248
    102          1           0        2.765288   -4.221474    0.534872
    103          1           0        2.642268   -2.469907    0.637529
    104          1           0        3.779647   -2.912817   -1.877736
    105          1           0        4.902357   -3.996645    1.547228
    106          1           0        6.521985   -3.748060    1.132004
    107          1           0        5.804907   -5.313183    0.617015
    108          1           0        5.927165   -3.609816   -2.490067
    109          1           0        7.036024   -4.453646   -1.363167
    110          1           0        6.993565   -1.771913   -0.491832
    111          1           0        6.862071   -1.613451   -2.143081
    112          1           0        9.199247   -3.189474   -2.077407
    113          1           0        8.978254   -2.824205   -0.347877
    114          1           0        9.214496   -0.430946   -0.863352
    115          1           0       10.200208   -0.089960   -3.330642
    116          1           0        8.495576    0.099703   -2.893367
    117          1           0        9.001751   -1.439007   -3.564556
    118          1           0       11.674064   -1.139187   -2.140570
    119          1           0       11.161871   -2.667028   -1.447164
    120          1           0       11.388691   -2.027497    0.707146
    121          1           0       11.334355   -0.267587    0.310260
    122          1           0       13.612489   -1.747730   -0.950559
    123          1           0       13.668039   -1.712957    0.810740
    124          1           0       13.009399    0.985260   -0.390166
    125          1           0       14.768595    1.517243   -1.700528
    126          1           0       14.425252   -0.060413   -2.314556
    127          1           0       15.739684    0.267318   -1.264375
    128          1           0       15.516311    0.729307    0.997107
    129          1           0       14.085624    0.014201    1.864866
    130          1           0       13.212858    2.013873    2.351933
    131          1           0       13.263268    2.682567    0.789095
    132          1           0       15.943804    2.612533    1.810162
    133          1           0       14.822018    2.770632    3.058944
    134          1           0       13.758848    4.687691    1.394788
    135          1           0       14.060759    5.906764    3.305603
    136          1           0       15.877895    5.840131    3.196122
    137          1           0       15.035382    4.588252    3.921667
    138          1           0       16.598724    4.327205    0.562639
    139          1           0       16.206441    5.994982    0.905372
    140          1           0       15.311659    5.099245   -0.306141
 ---------------------------------------------------------------------

 SCF Done:  E(RB-LYP) =  -3007.37502366     A.U. after   21 cycles

 Excitation energies and oscillator strengths:

 Excited State   1:      Singlet-A      1.8685 eV  663.55 nm  f=0.2796  <S**2>=0.000
     245 -> 248       -0.21115
     246 -> 247        0.67183
     246 <- 247       -0.12956
 This state for optimization and/or second-order correction.
 Total Energy, E(TD-HF/TD-DFT) =  -3007.30635768
 Copying the excited state density for this state as the 1-particle RhoCI density.

 Excited State   2:      Singlet-A      1.9360 eV  640.42 nm  f=0.0162  <S**2>=0.000
     244 -> 247        0.60027
     245 -> 247        0.35136
     246 -> 248        0.10294

 Excited State   3:      Singlet-A      2.0432 eV  606.82 nm  f=0.0472  <S**2>=0.000
     244 -> 247       -0.36213
     245 -> 247        0.53726
     246 -> 248        0.23009

 Excited State   4:      Singlet-A      2.2285 eV  556.35 nm  f=0.0019  <S**2>=0.000
     243 -> 247        0.69974

 Excited State   5:      Singlet-A      2.5383 eV  488.45 nm  f=0.0030  <S**2>=0.000
     242 -> 247        0.68253

 The electronic state is 1-A.
 Alpha  occ. eigenvalues --  -46.27083 -18.83152 -18.82283 -18.78891 -18.75934
 Alpha  occ. eigenvalues --  -18.75864 -18.74947 -14.03136 -14.02921 -14.00560
 Alpha  occ. eigenvalues --  -14.00439 -10.06121 -10.03682 -10.00529  -9.98839
 Alpha  occ. eigenvalues --   -9.98308  -9.97778  -9.96545  -9.96437  -9.96269
 Alpha  occ. eigenvalues --   -9.96218  -9.95591  -9.95255  -9.94814  -9.94775
 Alpha  occ. eigenvalues --   -9.94372  -9.94349  -9.94325  -9.94069  -9.94043
 Alpha  occ. eigenvalues --   -9.93978  -9.93772  -9.93772  -9.93718  -9.93592
 Alpha  occ. eigenvalues --   -9.93267  -9.93041  -9.92941  -9.92460  -9.92314
 Alpha  occ. eigenvalues --   -9.92305  -9.92209  -9.92194  -9.92164  -9.92154
 Alpha  occ. eigenvalues --   -9.92154  -9.92143  -9.92138  -9.91906  -9.91886
 Alpha  occ. eigenvalues --   -9.91865  -9.91709  -9.91661  -9.91525  -9.91384
 Alpha  occ. eigenvalues --   -9.91316  -9.91162  -9.91100  -9.91080  -9.90847
 Alpha  occ. eigenvalues --   -9.90819  -9.90781  -9.90592  -9.90563  -9.90515
 Alpha  occ. eigenvalues --   -9.89791  -2.91652  -1.72080  -1.71572  -1.71329
 Alpha  occ. eigenvalues --   -0.97819  -0.97155  -0.90850  -0.90658  -0.90319
 Alpha  occ. eigenvalues --   -0.88664  -0.86468  -0.85802  -0.85046  -0.83448
 Alpha  occ. eigenvalues --   -0.75288  -0.74013  -0.73756  -0.72779  -0.72363
 Alpha  occ. eigenvalues --   -0.71628  -0.71358  -0.70727  -0.69954  -0.69648
 Alpha  occ. eigenvalues --   -0.69165  -0.68828  -0.68029  -0.67285  -0.67134
 Alpha  occ. eigenvalues --   -0.66531  -0.65808  -0.65674  -0.65161  -0.64531
 Alpha  occ. eigenvalues --   -0.64146  -0.62272  -0.61960  -0.61429  -0.60679
 Alpha  occ. eigenvalues --   -0.60577  -0.60048  -0.59866  -0.59606  -0.59007
 Alpha  occ. eigenvalues --   -0.58067  -0.57060  -0.56201  -0.55660  -0.54093
 Alpha  occ. eigenvalues --   -0.53763  -0.53259  -0.52421  -0.52195  -0.51329
 Alpha  occ. eigenvalues --   -0.51187  -0.51034  -0.50586  -0.50474  -0.50246
 Alpha  occ. eigenvalues --   -0.49911  -0.49309  -0.48871  -0.48537  -0.46263
 Alpha  occ. eigenvalues --   -0.46194  -0.45433  -0.45231  -0.44796  -0.44240
 Alpha  occ. eigenvalues --   -0.43753  -0.43483  -0.43093  -0.42674  -0.42474
 Alpha  occ. eigenvalues --   -0.42229  -0.41915  -0.41731  -0.41481  -0.40828
 Alpha  occ. eigenvalues --   -0.40661  -0.40561  -0.40349  -0.40233  -0.39898
 Alpha  occ. eigenvalues --   -0.39788  -0.39606  -0.39418  -0.39372  -0.39197
 Alpha  occ. eigenvalues --   -0.38896  -0.38766  -0.38603  -0.38299  -0.38110
 Alpha  occ. eigenvalues --   -0.37925  -0.37707  -0.37643  -0.37580  -0.37294
 Alpha  occ. eigenvalues --   -0.37134  -0.36750  -0.36690  -0.36471  -0.36190
 Alpha  occ. eigenvalues --   -0.36057  -0.35940  -0.35913  -0.35714  -0.35256
 Alpha  occ. eigenvalues --   -0.35237  -0.35062  -0.34996  -0.34778  -0.34582
 Alpha  occ. eigenvalues --   -0.34489  -0.34170  -0.34009  -0.33844  -0.33736
 Alpha  occ. eigenvalues --   -0.33504  -0.33365  -0.33132  -0.33067  -0.32871
 Alpha  occ. eigenvalues --   -0.32747  -0.32526  -0.32386  -0.32160  -0.32085
 Alpha  occ. eigenvalues --   -0.32028  -0.31952  -0.31729  -0.31452  -0.31251
 Alpha  occ. eigenvalues --   -0.31180  -0.30989  -0.30905  -0.30767  -0.30357
 Alpha  occ. eigenvalues --   -0.30251  -0.30193  -0.30188  -0.30011  -0.29616
 Alpha  occ. eigenvalues --   -0.29512  -0.29340  -0.29177  -0.29096  -0.28697
 Alpha  occ. eigenvalues --   -0.28522  -0.28403  -0.28233  -0.28094  -0.27851
 Alpha  occ. eigenvalues --   -0.27600  -0.27412  -0.27110  -0.26920  -0.26393
 Alpha  occ. eigenvalues --   -0.26289  -0.26217  -0.25938  -0.25877  -0.25777
 Alpha  occ. eigenvalues --   -0.24785  -0.24679  -0.24450  -0.24061  -0.23287
 Alpha  occ. eigenvalues --   -0.23151  -0.23048  -0.21616  -0.20991  -0.20443
 Alpha  occ. eigenvalues --   -0.19951  -0.19709  -0.19024  -0.18031  -0.16773
 Alpha  occ. eigenvalues --   -0.15579
 Alpha virt. eigenvalues --   -0.10933  -0.07011  -0.05891  -0.04558  -0.04494
 Alpha virt. eigenvalues --   -0.02336  -0.01868  -0.01751  -0.01213  -0.00187
 Alpha virt. eigenvalues --    0.01325   0.01836   0.02238   0.02473   0.02658

 Mulliken charges:
               1
     1  Mg   0.692204
     2  C   -0.055254
     3  C   -0.065484
     4  C   -0.027967
     5  C   -0.088796
     6  N   -0.155506
     7  C   -0.073043
     8  C    0.057369
     9  C   -0.043635
    10  C   -0.031785
    11  C    0.115084
    12  C    0.107938
    13  C    0.118175
    14  C    0.115192
    15  O   -0.198111
    16  O   -0.290961
    17  N   -0.303311
    18  C    0.179683
    19  C   -0.147719
    20  C    0.040854
    21  C    0.120459
    22  C    0.173424
    23  C   -0.037041
    24  O   -0.177667
    25  C    0.116232
    26  N   -0.200969
    27  C   -0.050410
    28  C    0.025014
    29  C   -0.031814
    30  C    0.012912
    31  C    0.123597
    32  C    0.110249
    33  C    0.073687
    34  N   -0.306045
    35  C    0.165267
    36  C   -0.151465
    37  C    0.040274
    38  C    0.187365
    39  C    0.174302
    40  C   -0.060776
    41  O   -0.139043
    42  C    0.079568
    43  C    0.107209
    44  O   -0.194070
    45  O   -0.268495
    46  C    0.223393
    47  C    0.344802
    48  C   -0.113283
    49  C   -0.174077
    50  C    0.120004
    51  C    0.169214
    52  C    0.087608
    53  C    0.081207
    54  C   -0.084437
    55  C    0.117304
    56  C    0.070848
    57  C    0.073687
    58  C    0.135096
    59  C   -0.066468
    60  C    0.082722
    61  C    0.141058
    62  C    0.064341
    63  C    0.111798
    64  C   -0.072852
    65  C    0.112135
    66  C    0.086875
    67  H   -0.078268
    68  H   -0.051334
    69  H   -0.075247
    70  H    0.012860
    71  H   -0.024716
    72  H    0.011179
    73  H   -0.007231
    74  H   -0.021741
    75  H   -0.019184
    76  H   -0.017526
    77  H   -0.001663
    78  H    0.002980
    79  H   -0.007661
    80  H   -0.005166
    81  H   -0.007802
    82  H    0.021677
    83  H   -0.004588
    84  H   -0.000750
    85  H   -0.014639
    86  H   -0.017148
    87  H    0.003188
    88  H   -0.008524
    89  H    0.003025
    90  H   -0.011255
    91  H   -0.025178
    92  H   -0.016477
    93  H   -0.006773
    94  H   -0.000491
    95  H   -0.012819
    96  H   -0.010010
    97  H    0.017875
    98  H    0.003638
    99  H    0.017846
   100  H    0.020727
   101  H    0.022642
   102  H   -0.003036
   103  H    0.012757
   104  H   -0.038491
   105  H   -0.017928
   106  H   -0.001596
   107  H    0.006466
   108  H   -0.032863
   109  H   -0.037927
   110  H   -0.043240
   111  H   -0.039795
   112  H   -0.020417
   113  H   -0.031007
   114  H   -0.047235
   115  H   -0.013382
   116  H   -0.015143
   117  H   -0.020757
   118  H   -0.041950
   119  H   -0.036661
   120  H   -0.035460
   121  H   -0.023578
   122  H   -0.038650
   123  H   -0.037271
   124  H   -0.029597
   125  H   -0.034423
   126  H   -0.015968
   127  H   -0.035694
   128  H   -0.022412
   129  H   -0.036815
   130  H   -0.041286
   131  H   -0.027993
   132  H   -0.034018
   133  H   -0.050677
   134  H   -0.034458
   135  H   -0.011076
   136  H   -0.016587
   137  H   -0.035995
   138  H   -0.020678
   139  H   -0.016598
   140  H   -0.017670
 Sum of Mulliken charges =  -0.00000

 Dipole moment (field-independent basis, Debye):
    X=              4.7128    Y=              1.0370    Z=             -2.3876  Tot=              5.3839
 Quadrupole moment (field-independent basis, Debye-Ang):
   XX=           -388.6574   YY=           -424.2656   ZZ=           -408.6514
   XY=            -22.7742   XZ=             13.1369   YZ=              6.8098

 Normal termination of Gaussian 16 at Wed Apr 27 02:23:41 2022.
