 Gaussian 16, Revision A.03,
 Gaussian 16:  ES64L-G16RevA.03 25-Dec-2016

 -----------------------------------
 #p cam-b3lyp/Def2SVP td=(nstates=5)
 -----------------------------------

 ------------------------------------------------------
 step_101_chromophore_6 TDDFT with cam-b3lyp functional
 ------------------------------------------------------
 Symbolic Z-matrix:
 Charge =  0 Multiplicity = 1

                         Standard orientation:
 ---------------------------------------------------------------------
 Center     Atomic      Atomic             Coordinates (Angstroms)
 Number     Number       Type             X           Y           Z
 ---------------------------------------------------------------------
      1         12           0       -5.898213    0.961469   -0.413524
      2          6           0       -5.067573   -2.305049    0.090446
      3          6           0       -2.425116    1.621110   -0.797240
      4          6           0       -6.470067    4.300059   -0.223065
      5          6           0       -9.197315    0.247301    0.316230
      6          7           0       -3.925406   -0.206525   -0.180497
      7          6           0       -3.861692   -1.563059   -0.041155
      8          6           0       -2.408190   -2.113321   -0.077002
      9          6           0       -1.530983   -0.804882   -0.167781
     10          6           0       -2.730731    0.280215   -0.455689
     11          6           0       -0.827690   -0.497113    1.195001
     12          6           0       -2.176538   -3.013658   -1.365944
     13          6           0       -0.769817   -3.517480   -1.600174
     14          6           0        0.341245   -3.570365   -0.457972
     15          8           0        0.129809   -3.639666    0.760178
     16          8           0        1.634748   -3.464202   -1.026883
     17          7           0       -4.630370    2.677446   -0.617220
     18          6           0       -3.282188    2.726742   -0.832677
     19          6           0       -2.878526    4.115702   -0.961940
     20          6           0       -4.034624    4.937104   -0.654203
     21          6           0       -5.111756    4.031855   -0.477467
     22          6           0       -1.459936    4.527440   -1.275387
     23          6           0       -4.093527    6.510374   -0.612514
     24          8           0       -5.168498    7.129601   -0.490683
     25          6           0       -2.846993    7.300100   -0.587240
     26          7           0       -7.643458    2.143814   -0.038651
     27          6           0       -7.666207    3.489040   -0.069942
     28          6           0       -9.063501    4.105382    0.355411
     29          6           0       -9.944907    2.766507    0.439405
     30          6           0       -8.878354    1.619879    0.183770
     31          6           0       -9.059558    5.032694    1.618950
     32          6           0      -11.001159    2.645866   -0.708659
     33          6           0      -12.298040    2.064840   -0.175861
     34          7           0       -7.047574   -0.656870   -0.091075
     35          6           0       -8.353836   -0.819573    0.250781
     36          6           0       -8.648408   -2.236656    0.417454
     37          6           0       -7.309442   -2.819843    0.370265
     38          6           0       -6.371060   -1.820525    0.082938
     39          6           0      -10.046085   -2.793359    0.595346
     40          6           0       -6.632804   -4.114606    0.477490
     41          8           0       -7.167348   -5.170168    0.807845
     42          6           0       -5.136635   -3.848552    0.251767
     43          6           0       -4.371697   -4.411474    1.463356
     44          8           0       -4.432628   -3.947741    2.600405
     45          8           0       -3.656729   -5.503966    1.117047
     46          6           0       -2.914863   -6.226763    2.208048
     47          6           0        2.698967   -3.307615   -0.056048
     48          6           0        3.928773   -3.227012   -0.844501
     49          6           0        5.173209   -3.734462   -0.597674
     50          6           0        5.624180   -4.249396    0.770720
     51          6           0        6.388672   -3.588038   -1.502277
     52          6           0        7.243952   -2.316651   -1.402227
     53          6           0        8.783151   -2.478137   -1.363872
     54          6           0        9.557858   -1.193180   -1.562662
     55          6           0        9.324499   -0.606681   -2.938424
     56          6           0       11.105962   -1.585018   -1.324675
     57          6           0       11.738810   -1.242558    0.037958
     58          6           0       13.304436   -1.183785   -0.070293
     59          6           0       13.808538    0.275381   -0.172518
     60          6           0       14.678319    0.473367   -1.398222
     61          6           0       14.438329    0.757090    1.149688
     62          6           0       13.889494    2.154422    1.508284
     63          6           0       14.944178    3.004407    2.001004
     64          6           0       14.752806    4.488446    1.795399
     65          6           0       14.938493    5.295288    3.098195
     66          6           0       15.768233    5.023022    0.680825
     67          1           0       -1.359725    1.726568   -1.008688
     68          1           0       -6.742843    5.348834   -0.084769
     69          1           0      -10.236152    0.119079    0.627064
     70          1           0       -2.226401   -2.708673    0.818140
     71          1           0       -0.719319   -0.626578   -0.872176
     72          1           0       -0.977106   -1.368622    1.832051
     73          1           0       -1.202589    0.426065    1.637126
     74          1           0        0.239944   -0.302509    1.094733
     75          1           0       -2.588157   -2.460968   -2.210449
     76          1           0       -2.797892   -3.904254   -1.277488
     77          1           0       -0.392790   -3.062368   -2.515418
     78          1           0       -0.819497   -4.571827   -1.872044
     79          1           0       -0.955541    5.133992   -0.523573
     80          1           0       -1.545982    5.239764   -2.094799
     81          1           0       -0.788862    3.710062   -1.541069
     82          1           0       -2.293158    7.001144    0.302691
     83          1           0       -3.163647    8.343178   -0.628804
     84          1           0       -2.147739    7.268286   -1.422491
     85          1           0       -9.278403    4.720724   -0.518708
     86          1           0      -10.412578    2.712071    1.422716
     87          1           0       -8.147518    4.954736    2.210212
     88          1           0       -9.869586    4.844279    2.323027
     89          1           0       -9.158428    6.043642    1.223271
     90          1           0      -10.567853    2.045292   -1.509213
     91          1           0      -11.103449    3.662251   -1.087258
     92          1           0      -12.682338    1.270025   -0.814548
     93          1           0      -13.128080    2.769209   -0.125937
     94          1           0      -12.120998    1.595990    0.792346
     95          1           0      -10.651800   -2.142670    1.226520
     96          1           0      -10.020428   -3.631348    1.291149
     97          1           0      -10.499055   -3.173156   -0.321154
     98          1           0       -4.787300   -4.356678   -0.646665
     99          1           0       -3.644924   -6.534782    2.956547
    100          1           0       -2.261065   -5.529836    2.733033
    101          1           0       -2.331910   -7.093388    1.897248
    102          1           0        2.765288   -4.221474    0.534872
    103          1           0        2.642268   -2.469907    0.637529
    104          1           0        3.779647   -2.912817   -1.877736
    105          1           0        4.902357   -3.996645    1.547228
    106          1           0        6.521985   -3.748060    1.132004
    107          1           0        5.804907   -5.313183    0.617015
    108          1           0        5.927165   -3.609816   -2.490067
    109          1           0        7.036024   -4.453646   -1.363167
    110          1           0        6.993565   -1.771913   -0.491832
    111          1           0        6.862071   -1.613451   -2.143081
    112          1           0        9.199247   -3.189474   -2.077407
    113          1           0        8.978254   -2.824205   -0.347877
    114          1           0        9.214496   -0.430946   -0.863352
    115          1           0       10.200208   -0.089960   -3.330642
    116          1           0        8.495576    0.099703   -2.893367
    117          1           0        9.001751   -1.439007   -3.564556
    118          1           0       11.674064   -1.139187   -2.140570
    119          1           0       11.161871   -2.667028   -1.447164
    120          1           0       11.388691   -2.027497    0.707146
    121          1           0       11.334355   -0.267587    0.310260
    122          1           0       13.612489   -1.747730   -0.950559
    123          1           0       13.668039   -1.712957    0.810740
    124          1           0       13.009399    0.985260   -0.390166
    125          1           0       14.768595    1.517243   -1.700528
    126          1           0       14.425252   -0.060413   -2.314556
    127          1           0       15.739684    0.267318   -1.264375
    128          1           0       15.516311    0.729307    0.997107
    129          1           0       14.085624    0.014201    1.864866
    130          1           0       13.212858    2.013873    2.351933
    131          1           0       13.263268    2.682567    0.789095
    132          1           0       15.943804    2.612533    1.810162
    133          1           0       14.822018    2.770632    3.058944
    134          1           0       13.758848    4.687691    1.394788
    135          1           0       14.060759    5.906764    3.305603
    136          1           0       15.877895    5.840131    3.196122
    137          1           0       15.035382    4.588252    3.921667
    138          1           0       16.598724    4.327205    0.562639
    139          1           0       16.206441    5.994982    0.905372
    140          1           0       15.311659    5.099245   -0.306141
 ---------------------------------------------------------------------

 SCF Done:  E(RCAM-B3LYP) =  -3007.15839936     A.U. after   19 cycles

 Excitation energies and oscillator strengths:

 Excited State   1:      Singlet-A      1.7915 eV  692.07 nm  f=0.3631  <S**2>=0.000
     245 -> 248       -0.20798
     246 -> 247        0.67574
     245 <- 248       -0.10916
 This state for optimization and/or second-order correction.
 Total Energy, E(TD-HF/TD-DFT) =  -3007.09256347
 Copying the excited state density for this state as the 1-particle RhoCI density.

 Excited State   2:      Singlet-A      2.2513 eV  550.72 nm  f=0.0835  <S**2>=0.000
     245 -> 247        0.62368
     246 -> 248        0.31658

 Excited State   3:      Singlet-A      3.3656 eV  368.39 nm  f=0.1310  <S**2>=0.000
     243 -> 247        0.51665
     244 -> 247       -0.28676
     245 -> 247        0.12871
     246 -> 248       -0.34691

 Excited State   4:      Singlet-A      3.4805 eV  356.23 nm  f=0.1538  <S**2>=0.000
     241 -> 247        0.21203
     241 -> 249        0.12583
     242 -> 247       -0.15598
     244 -> 247        0.50117
     245 -> 247        0.13459
     246 -> 248       -0.32014

 Excited State   5:      Singlet-A      3.5699 eV  347.30 nm  f=0.0407  <S**2>=0.000
     240 -> 247       -0.16502
     241 -> 247        0.37832
     241 -> 249        0.22613
     241 -> 250       -0.17103
     242 -> 247       -0.26998
     242 -> 249       -0.16169
     242 -> 250        0.12228
     244 -> 247       -0.27277
     246 -> 248        0.15751

 The electronic state is 1-A.
 Alpha  occ. eigenvalues --  -46.88598 -19.26051 -19.25169 -19.21934 -19.19356
 Alpha  occ. eigenvalues --  -19.18862 -19.18067 -14.41918 -14.41841 -14.39027
 Alpha  occ. eigenvalues --  -14.38708 -10.41655 -10.39074 -10.35981 -10.34040
 Alpha  occ. eigenvalues --  -10.32285 -10.31804 -10.31069 -10.31013 -10.30889
 Alpha  occ. eigenvalues --  -10.30484 -10.30155 -10.29744 -10.28866 -10.28798
 Alpha  occ. eigenvalues --  -10.28729 -10.28501 -10.28488 -10.28482 -10.28416
 Alpha  occ. eigenvalues --  -10.28099 -10.27983 -10.27906 -10.27733 -10.27649
 Alpha  occ. eigenvalues --  -10.27595 -10.27446 -10.27080 -10.26498 -10.26370
 Alpha  occ. eigenvalues --  -10.26361 -10.26198 -10.25980 -10.25927 -10.25897
 Alpha  occ. eigenvalues --  -10.25896 -10.25891 -10.25854 -10.25748 -10.25621
 Alpha  occ. eigenvalues --  -10.25574 -10.25397 -10.25215 -10.25201 -10.25045
 Alpha  occ. eigenvalues --  -10.25017 -10.24836 -10.24832 -10.24762 -10.24724
 Alpha  occ. eigenvalues --  -10.24435 -10.24433 -10.24172 -10.24159 -10.24086
 Alpha  occ. eigenvalues --  -10.23338  -3.17070  -1.91977  -1.91553  -1.91343
 Alpha  occ. eigenvalues --   -1.16242  -1.15606  -1.09207  -1.08716  -1.08628
 Alpha  occ. eigenvalues --   -1.06522  -1.04145  -1.03380  -1.02573  -1.01034
 Alpha  occ. eigenvalues --   -0.92356  -0.90886  -0.90609  -0.89548  -0.89119
 Alpha  occ. eigenvalues --   -0.88241  -0.87962  -0.87385  -0.86524  -0.86359
 Alpha  occ. eigenvalues --   -0.85497  -0.85163  -0.84304  -0.83423  -0.83266
 Alpha  occ. eigenvalues --   -0.82687  -0.82119  -0.81604  -0.80996  -0.80306
 Alpha  occ. eigenvalues --   -0.79962  -0.78016  -0.77530  -0.76936  -0.76068
 Alpha  occ. eigenvalues --   -0.75968  -0.75381  -0.75199  -0.74856  -0.74235
 Alpha  occ. eigenvalues --   -0.73099  -0.71989  -0.71077  -0.70464  -0.68610
 Alpha  occ. eigenvalues --   -0.68315  -0.67786  -0.66838  -0.66656  -0.65458
 Alpha  occ. eigenvalues --   -0.65312  -0.65231  -0.64685  -0.64378  -0.64211
 Alpha  occ. eigenvalues --   -0.63905  -0.63276  -0.62762  -0.62152  -0.59985
 Alpha  occ. eigenvalues --   -0.59778  -0.58942  -0.58712  -0.58038  -0.57757
 Alpha  occ. eigenvalues --   -0.57142  -0.56934  -0.56266  -0.55931  -0.55523
 Alpha  occ. eigenvalues --   -0.55414  -0.54912  -0.54654  -0.54377  -0.53942
 Alpha  occ. eigenvalues --   -0.53746  -0.53243  -0.53148  -0.52780  -0.52737
 Alpha  occ. eigenvalues --   -0.52436  -0.52260  -0.52105  -0.51979  -0.51873
 Alpha  occ. eigenvalues --   -0.51429  -0.51128  -0.50936  -0.50758  -0.50485
 Alpha  occ. eigenvalues --   -0.50184  -0.50054  -0.49947  -0.49785  -0.49692
 Alpha  occ. eigenvalues --   -0.49442  -0.49347  -0.49095  -0.48923  -0.48711
 Alpha  occ. eigenvalues --   -0.48463  -0.48292  -0.47941  -0.47926  -0.47757
 Alpha  occ. eigenvalues --   -0.47436  -0.46987  -0.46830  -0.46757  -0.46479
 Alpha  occ. eigenvalues --   -0.46243  -0.46077  -0.46010  -0.45574  -0.45446
 Alpha  occ. eigenvalues --   -0.45366  -0.45184  -0.44933  -0.44743  -0.44579
 Alpha  occ. eigenvalues --   -0.44444  -0.44228  -0.44091  -0.43985  -0.43730
 Alpha  occ. eigenvalues --   -0.43611  -0.43540  -0.43314  -0.43065  -0.42932
 Alpha  occ. eigenvalues --   -0.42844  -0.42542  -0.42297  -0.42121  -0.41709
 Alpha  occ. eigenvalues --   -0.41662  -0.41575  -0.41429  -0.41283  -0.41133
 Alpha  occ. eigenvalues --   -0.41015  -0.40658  -0.40528  -0.40166  -0.40016
 Alpha  occ. eigenvalues --   -0.39488  -0.39355  -0.39312  -0.39013  -0.38887
 Alpha  occ. eigenvalues --   -0.38462  -0.38224  -0.38060  -0.37768  -0.37669
 Alpha  occ. eigenvalues --   -0.37133  -0.37104  -0.36822  -0.36592  -0.36423
 Alpha  occ. eigenvalues --   -0.36176  -0.35629  -0.35141  -0.34865  -0.33893
 Alpha  occ. eigenvalues --   -0.33780  -0.33587  -0.33234  -0.31547  -0.30604
 Alpha  occ. eigenvalues --   -0.30048  -0.30020  -0.29291  -0.28884  -0.23455
 Alpha  occ. eigenvalues --   -0.20870
 Alpha virt. eigenvalues --   -0.07884  -0.01920   0.00592   0.02475   0.03166
 Alpha virt. eigenvalues --    0.03468   0.05170   0.05672   0.06035   0.06926
 Alpha virt. eigenvalues --    0.07993   0.08330   0.08679   0.08809   0.08905

 Mulliken charges:
               1
     1  Mg   0.823592
     2  C   -0.078435
     3  C   -0.086791
     4  C   -0.050951
     5  C   -0.090312
     6  N   -0.224819
     7  C   -0.030026
     8  C    0.003070
     9  C   -0.092300
    10  C   -0.008157
    11  C    0.061549
    12  C    0.063699
    13  C    0.048169
    14  C    0.193884
    15  O   -0.239059
    16  O   -0.355638
    17  N   -0.390460
    18  C    0.192988
    19  C   -0.155010
    20  C   -0.022777
    21  C    0.140250
    22  C    0.115112
    23  C    0.045476
    24  O   -0.217195
    25  C    0.030881
    26  N   -0.271613
    27  C   -0.020388
    28  C   -0.025961
    29  C   -0.084167
    30  C    0.026908
    31  C    0.062345
    32  C    0.054559
    33  C    0.008947
    34  N   -0.398334
    35  C    0.161784
    36  C   -0.144805
    37  C   -0.036954
    38  C    0.214618
    39  C    0.122185
    40  C    0.038153
    41  O   -0.178054
    42  C    0.003697
    43  C    0.193205
    44  O   -0.231032
    45  O   -0.333381
    46  C    0.183440
    47  C    0.308469
    48  C   -0.130106
    49  C   -0.191994
    50  C    0.056873
    51  C    0.107210
    52  C    0.033960
    53  C    0.028537
    54  C   -0.140774
    55  C    0.057605
    56  C    0.023526
    57  C    0.025342
    58  C    0.072564
    59  C   -0.123155
    60  C    0.029082
    61  C    0.087128
    62  C    0.011463
    63  C    0.051579
    64  C   -0.138205
    65  C    0.052401
    66  C    0.032382
    67  H   -0.043378
    68  H   -0.011390
    69  H   -0.040002
    70  H    0.045531
    71  H    0.008573
    72  H    0.036021
    73  H    0.019413
    74  H    0.001400
    75  H    0.012088
    76  H    0.009925
    77  H    0.032288
    78  H    0.036126
    79  H    0.019771
    80  H    0.019918
    81  H    0.021016
    82  H    0.048135
    83  H    0.031551
    84  H    0.028975
    85  H    0.019293
    86  H    0.016631
    87  H    0.028833
    88  H    0.016444
    89  H    0.026130
    90  H    0.019311
    91  H    0.003671
    92  H    0.008853
    93  H    0.018380
    94  H    0.018349
    95  H    0.012012
    96  H    0.018327
    97  H    0.043267
    98  H    0.046135
    99  H    0.042080
   100  H    0.044094
   101  H    0.046092
   102  H    0.025677
   103  H    0.038509
   104  H   -0.003927
   105  H    0.006019
   106  H    0.021051
   107  H    0.031161
   108  H   -0.002389
   109  H   -0.006888
   110  H   -0.013619
   111  H   -0.010656
   112  H    0.006094
   113  H   -0.004514
   114  H   -0.015254
   115  H    0.011896
   116  H    0.008687
   117  H    0.002998
   118  H   -0.016328
   119  H   -0.008493
   120  H   -0.007392
   121  H    0.001669
   122  H   -0.008163
   123  H   -0.006850
   124  H    0.000427
   125  H   -0.009597
   126  H    0.007660
   127  H   -0.011263
   128  H    0.004287
   129  H   -0.006042
   130  H   -0.011813
   131  H   -0.001732
   132  H   -0.005102
   133  H   -0.018859
   134  H   -0.001517
   135  H    0.013125
   136  H    0.007719
   137  H   -0.010624
   138  H    0.001685
   139  H    0.007276
   140  H    0.005439
 Sum of Mulliken charges =  -0.00000

 Dipole moment (field-independent basis, Debye):
    X=              5.1597    Y=              1.6336    Z=             -2.6142  Tot=              6.0104
 Quadrupole moment (field-independent basis, Debye-Ang):
   XX=           -390.7314   YY=           -419.6605   ZZ=           -408.6533
   XY=            -24.7666   XZ=             13.2732   YZ=              6.5311

 Normal termination of Gaussian 16 at Wed Apr 27 01:30:32 2022.
