 Gaussian 16, Revision A.03,
 Gaussian 16:  ES64L-G16RevA.03 25-Dec-2016

 ---------------------------------
 #p PBE1PBE/Def2SVP td=(nstates=5)
 ---------------------------------

 ----------------------------------------------------
 step_101_chromophore_6 TDDFT with PBE1PBE functional
 ----------------------------------------------------
 Symbolic Z-matrix:
 Charge =  0 Multiplicity = 1

                         Standard orientation:
 ---------------------------------------------------------------------
 Center     Atomic      Atomic             Coordinates (Angstroms)
 Number     Number       Type             X           Y           Z
 ---------------------------------------------------------------------
      1         12           0       -5.898213    0.961469   -0.413524
      2          6           0       -5.067573   -2.305049    0.090446
      3          6           0       -2.425116    1.621110   -0.797240
      4          6           0       -6.470067    4.300059   -0.223065
      5          6           0       -9.197315    0.247301    0.316230
      6          7           0       -3.925406   -0.206525   -0.180497
      7          6           0       -3.861692   -1.563059   -0.041155
      8          6           0       -2.408190   -2.113321   -0.077002
      9          6           0       -1.530983   -0.804882   -0.167781
     10          6           0       -2.730731    0.280215   -0.455689
     11          6           0       -0.827690   -0.497113    1.195001
     12          6           0       -2.176538   -3.013658   -1.365944
     13          6           0       -0.769817   -3.517480   -1.600174
     14          6           0        0.341245   -3.570365   -0.457972
     15          8           0        0.129809   -3.639666    0.760178
     16          8           0        1.634748   -3.464202   -1.026883
     17          7           0       -4.630370    2.677446   -0.617220
     18          6           0       -3.282188    2.726742   -0.832677
     19          6           0       -2.878526    4.115702   -0.961940
     20          6           0       -4.034624    4.937104   -0.654203
     21          6           0       -5.111756    4.031855   -0.477467
     22          6           0       -1.459936    4.527440   -1.275387
     23          6           0       -4.093527    6.510374   -0.612514
     24          8           0       -5.168498    7.129601   -0.490683
     25          6           0       -2.846993    7.300100   -0.587240
     26          7           0       -7.643458    2.143814   -0.038651
     27          6           0       -7.666207    3.489040   -0.069942
     28          6           0       -9.063501    4.105382    0.355411
     29          6           0       -9.944907    2.766507    0.439405
     30          6           0       -8.878354    1.619879    0.183770
     31          6           0       -9.059558    5.032694    1.618950
     32          6           0      -11.001159    2.645866   -0.708659
     33          6           0      -12.298040    2.064840   -0.175861
     34          7           0       -7.047574   -0.656870   -0.091075
     35          6           0       -8.353836   -0.819573    0.250781
     36          6           0       -8.648408   -2.236656    0.417454
     37          6           0       -7.309442   -2.819843    0.370265
     38          6           0       -6.371060   -1.820525    0.082938
     39          6           0      -10.046085   -2.793359    0.595346
     40          6           0       -6.632804   -4.114606    0.477490
     41          8           0       -7.167348   -5.170168    0.807845
     42          6           0       -5.136635   -3.848552    0.251767
     43          6           0       -4.371697   -4.411474    1.463356
     44          8           0       -4.432628   -3.947741    2.600405
     45          8           0       -3.656729   -5.503966    1.117047
     46          6           0       -2.914863   -6.226763    2.208048
     47          6           0        2.698967   -3.307615   -0.056048
     48          6           0        3.928773   -3.227012   -0.844501
     49          6           0        5.173209   -3.734462   -0.597674
     50          6           0        5.624180   -4.249396    0.770720
     51          6           0        6.388672   -3.588038   -1.502277
     52          6           0        7.243952   -2.316651   -1.402227
     53          6           0        8.783151   -2.478137   -1.363872
     54          6           0        9.557858   -1.193180   -1.562662
     55          6           0        9.324499   -0.606681   -2.938424
     56          6           0       11.105962   -1.585018   -1.324675
     57          6           0       11.738810   -1.242558    0.037958
     58          6           0       13.304436   -1.183785   -0.070293
     59          6           0       13.808538    0.275381   -0.172518
     60          6           0       14.678319    0.473367   -1.398222
     61          6           0       14.438329    0.757090    1.149688
     62          6           0       13.889494    2.154422    1.508284
     63          6           0       14.944178    3.004407    2.001004
     64          6           0       14.752806    4.488446    1.795399
     65          6           0       14.938493    5.295288    3.098195
     66          6           0       15.768233    5.023022    0.680825
     67          1           0       -1.359725    1.726568   -1.008688
     68          1           0       -6.742843    5.348834   -0.084769
     69          1           0      -10.236152    0.119079    0.627064
     70          1           0       -2.226401   -2.708673    0.818140
     71          1           0       -0.719319   -0.626578   -0.872176
     72          1           0       -0.977106   -1.368622    1.832051
     73          1           0       -1.202589    0.426065    1.637126
     74          1           0        0.239944   -0.302509    1.094733
     75          1           0       -2.588157   -2.460968   -2.210449
     76          1           0       -2.797892   -3.904254   -1.277488
     77          1           0       -0.392790   -3.062368   -2.515418
     78          1           0       -0.819497   -4.571827   -1.872044
     79          1           0       -0.955541    5.133992   -0.523573
     80          1           0       -1.545982    5.239764   -2.094799
     81          1           0       -0.788862    3.710062   -1.541069
     82          1           0       -2.293158    7.001144    0.302691
     83          1           0       -3.163647    8.343178   -0.628804
     84          1           0       -2.147739    7.268286   -1.422491
     85          1           0       -9.278403    4.720724   -0.518708
     86          1           0      -10.412578    2.712071    1.422716
     87          1           0       -8.147518    4.954736    2.210212
     88          1           0       -9.869586    4.844279    2.323027
     89          1           0       -9.158428    6.043642    1.223271
     90          1           0      -10.567853    2.045292   -1.509213
     91          1           0      -11.103449    3.662251   -1.087258
     92          1           0      -12.682338    1.270025   -0.814548
     93          1           0      -13.128080    2.769209   -0.125937
     94          1           0      -12.120998    1.595990    0.792346
     95          1           0      -10.651800   -2.142670    1.226520
     96          1           0      -10.020428   -3.631348    1.291149
     97          1           0      -10.499055   -3.173156   -0.321154
     98          1           0       -4.787300   -4.356678   -0.646665
     99          1           0       -3.644924   -6.534782    2.956547
    100          1           0       -2.261065   -5.529836    2.733033
    101          1           0       -2.331910   -7.093388    1.897248
    102          1           0        2.765288   -4.221474    0.534872
    103          1           0        2.642268   -2.469907    0.637529
    104          1           0        3.779647   -2.912817   -1.877736
    105          1           0        4.902357   -3.996645    1.547228
    106          1           0        6.521985   -3.748060    1.132004
    107          1           0        5.804907   -5.313183    0.617015
    108          1           0        5.927165   -3.609816   -2.490067
    109          1           0        7.036024   -4.453646   -1.363167
    110          1           0        6.993565   -1.771913   -0.491832
    111          1           0        6.862071   -1.613451   -2.143081
    112          1           0        9.199247   -3.189474   -2.077407
    113          1           0        8.978254   -2.824205   -0.347877
    114          1           0        9.214496   -0.430946   -0.863352
    115          1           0       10.200208   -0.089960   -3.330642
    116          1           0        8.495576    0.099703   -2.893367
    117          1           0        9.001751   -1.439007   -3.564556
    118          1           0       11.674064   -1.139187   -2.140570
    119          1           0       11.161871   -2.667028   -1.447164
    120          1           0       11.388691   -2.027497    0.707146
    121          1           0       11.334355   -0.267587    0.310260
    122          1           0       13.612489   -1.747730   -0.950559
    123          1           0       13.668039   -1.712957    0.810740
    124          1           0       13.009399    0.985260   -0.390166
    125          1           0       14.768595    1.517243   -1.700528
    126          1           0       14.425252   -0.060413   -2.314556
    127          1           0       15.739684    0.267318   -1.264375
    128          1           0       15.516311    0.729307    0.997107
    129          1           0       14.085624    0.014201    1.864866
    130          1           0       13.212858    2.013873    2.351933
    131          1           0       13.263268    2.682567    0.789095
    132          1           0       15.943804    2.612533    1.810162
    133          1           0       14.822018    2.770632    3.058944
    134          1           0       13.758848    4.687691    1.394788
    135          1           0       14.060759    5.906764    3.305603
    136          1           0       15.877895    5.840131    3.196122
    137          1           0       15.035382    4.588252    3.921667
    138          1           0       16.598724    4.327205    0.562639
    139          1           0       16.206441    5.994982    0.905372
    140          1           0       15.311659    5.099245   -0.306141
 ---------------------------------------------------------------------

 SCF Done:  E(RPBE1PBE) =  -3005.34701585     A.U. after   15 cycles

 Excitation energies and oscillator strengths:

 Excited State   1:      Singlet-A      1.9391 eV  639.39 nm  f=0.3536  <S**2>=0.000
     245 -> 248       -0.19916
     246 -> 247        0.68118
 This state for optimization and/or second-order correction.
 Total Energy, E(TD-HF/TD-DFT) =  -3005.27575467
 Copying the excited state density for this state as the 1-particle RhoCI density.

 Excited State   2:      Singlet-A      2.2552 eV  549.78 nm  f=0.0848  <S**2>=0.000
     245 -> 247        0.63822
     246 -> 248        0.28482

 Excited State   3:      Singlet-A      3.0208 eV  410.44 nm  f=0.0001  <S**2>=0.000
     242 -> 247        0.45938
     242 -> 249        0.14729
     244 -> 247        0.49843

 Excited State   4:      Singlet-A      3.0842 eV  402.00 nm  f=0.0194  <S**2>=0.000
     242 -> 247        0.32574
     243 -> 247        0.45420
     244 -> 247       -0.33871
     246 -> 248       -0.22736

 Excited State   5:      Singlet-A      3.1700 eV  391.11 nm  f=0.0041  <S**2>=0.000
     242 -> 247       -0.35923
     243 -> 247        0.42529
     244 -> 247        0.35039
     246 -> 248       -0.21279

 The electronic state is 1-A.
 Alpha  occ. eigenvalues --  -46.92005 -19.26760 -19.25859 -19.22204 -19.19474
 Alpha  occ. eigenvalues --  -19.19144 -19.18374 -14.41442 -14.41302 -14.38699
 Alpha  occ. eigenvalues --  -14.38431 -10.38731 -10.36151 -10.33030 -10.31274
 Alpha  occ. eigenvalues --  -10.29668 -10.29054 -10.28834 -10.28749 -10.28541
 Alpha  occ. eigenvalues --  -10.28383 -10.27740 -10.27269 -10.26567 -10.26365
 Alpha  occ. eigenvalues --  -10.26347 -10.26338 -10.26294 -10.26278 -10.26111
 Alpha  occ. eigenvalues --  -10.25930 -10.25870 -10.25758 -10.25638 -10.25271
 Alpha  occ. eigenvalues --  -10.25169 -10.25122 -10.24419 -10.24166 -10.23969
 Alpha  occ. eigenvalues --  -10.23813 -10.23596 -10.23580 -10.23579 -10.23442
 Alpha  occ. eigenvalues --  -10.23432 -10.23372 -10.23323 -10.23317 -10.23262
 Alpha  occ. eigenvalues --  -10.23121 -10.22961 -10.22910 -10.22674 -10.22644
 Alpha  occ. eigenvalues --  -10.22591 -10.22466 -10.22431 -10.22426 -10.22299
 Alpha  occ. eigenvalues --  -10.21844 -10.21822 -10.21602 -10.21565 -10.21545
 Alpha  occ. eigenvalues --  -10.20870  -3.14061  -1.86908  -1.86463  -1.86256
 Alpha  occ. eigenvalues --   -1.11035  -1.10420  -1.03821  -1.03572  -1.03441
 Alpha  occ. eigenvalues --   -1.01384  -0.98801  -0.98059  -0.97256  -0.95600
 Alpha  occ. eigenvalues --   -0.86787  -0.84998  -0.84739  -0.83710  -0.83281
 Alpha  occ. eigenvalues --   -0.82518  -0.82091  -0.81672  -0.80813  -0.80551
 Alpha  occ. eigenvalues --   -0.79752  -0.79499  -0.78490  -0.77615  -0.77566
 Alpha  occ. eigenvalues --   -0.76950  -0.76234  -0.75790  -0.75302  -0.74521
 Alpha  occ. eigenvalues --   -0.74297  -0.72309  -0.71818  -0.71269  -0.70313
 Alpha  occ. eigenvalues --   -0.70190  -0.69512  -0.69280  -0.69218  -0.68434
 Alpha  occ. eigenvalues --   -0.67424  -0.66459  -0.65543  -0.64757  -0.62978
 Alpha  occ. eigenvalues --   -0.62575  -0.62288  -0.61183  -0.60941  -0.59911
 Alpha  occ. eigenvalues --   -0.59697  -0.59435  -0.58940  -0.58804  -0.58697
 Alpha  occ. eigenvalues --   -0.58479  -0.57425  -0.56972  -0.56799  -0.54458
 Alpha  occ. eigenvalues --   -0.54232  -0.53487  -0.53305  -0.52696  -0.52310
 Alpha  occ. eigenvalues --   -0.51597  -0.51362  -0.50717  -0.50483  -0.50044
 Alpha  occ. eigenvalues --   -0.49877  -0.49501  -0.49026  -0.48892  -0.48490
 Alpha  occ. eigenvalues --   -0.48270  -0.47731  -0.47658  -0.47248  -0.47203
 Alpha  occ. eigenvalues --   -0.46933  -0.46761  -0.46691  -0.46494  -0.46440
 Alpha  occ. eigenvalues --   -0.45991  -0.45699  -0.45552  -0.45350  -0.45122
 Alpha  occ. eigenvalues --   -0.44742  -0.44679  -0.44570  -0.44374  -0.44240
 Alpha  occ. eigenvalues --   -0.43954  -0.43923  -0.43671  -0.43429  -0.43307
 Alpha  occ. eigenvalues --   -0.43084  -0.42942  -0.42595  -0.42507  -0.42373
 Alpha  occ. eigenvalues --   -0.42150  -0.41727  -0.41509  -0.41434  -0.41167
 Alpha  occ. eigenvalues --   -0.40842  -0.40784  -0.40673  -0.40332  -0.40106
 Alpha  occ. eigenvalues --   -0.40044  -0.39948  -0.39688  -0.39376  -0.39365
 Alpha  occ. eigenvalues --   -0.39231  -0.38932  -0.38858  -0.38788  -0.38483
 Alpha  occ. eigenvalues --   -0.38451  -0.38241  -0.37989  -0.37817  -0.37700
 Alpha  occ. eigenvalues --   -0.37580  -0.37414  -0.37156  -0.36853  -0.36587
 Alpha  occ. eigenvalues --   -0.36504  -0.36435  -0.36199  -0.36137  -0.35958
 Alpha  occ. eigenvalues --   -0.35864  -0.35416  -0.35396  -0.34959  -0.34857
 Alpha  occ. eigenvalues --   -0.34265  -0.34244  -0.34169  -0.33849  -0.33736
 Alpha  occ. eigenvalues --   -0.33246  -0.33080  -0.33014  -0.32708  -0.32473
 Alpha  occ. eigenvalues --   -0.32190  -0.31947  -0.31889  -0.31455  -0.31255
 Alpha  occ. eigenvalues --   -0.31153  -0.30712  -0.30053  -0.29820  -0.29215
 Alpha  occ. eigenvalues --   -0.29089  -0.28483  -0.28213  -0.26307  -0.26161
 Alpha  occ. eigenvalues --   -0.25352  -0.25008  -0.24863  -0.24559  -0.20429
 Alpha  occ. eigenvalues --   -0.18506
 Alpha virt. eigenvalues --   -0.10428  -0.05375  -0.03630  -0.01921  -0.01243
 Alpha virt. eigenvalues --    0.00490   0.00656   0.01286   0.01582   0.02763
 Alpha virt. eigenvalues --    0.04343   0.04539   0.05082   0.05458   0.05642

 Mulliken charges:
               1
     1  Mg   0.969980
     2  C   -0.073851
     3  C   -0.081114
     4  C   -0.051116
     5  C   -0.081926
     6  N   -0.326077
     7  C    0.048865
     8  C   -0.078077
     9  C   -0.161067
    10  C    0.032206
    11  C    0.009178
    12  C    0.016119
    13  C   -0.023752
    14  C    0.252941
    15  O   -0.270462
    16  O   -0.385731
    17  N   -0.500082
    18  C    0.220191
    19  C   -0.188448
    20  C   -0.066275
    21  C    0.159972
    22  C    0.055537
    23  C    0.094803
    24  O   -0.253716
    25  C   -0.039801
    26  N   -0.376449
    27  C    0.022457
    28  C   -0.094490
    29  C   -0.165575
    30  C    0.063727
    31  C    0.002864
    32  C   -0.000245
    33  C   -0.063567
    34  N   -0.531102
    35  C    0.179506
    36  C   -0.153400
    37  C   -0.094363
    38  C    0.252066
    39  C    0.068986
    40  C    0.140224
    41  O   -0.223441
    42  C   -0.110275
    43  C    0.285515
    44  O   -0.265248
    45  O   -0.366735
    46  C    0.127504
    47  C    0.265977
    48  C   -0.140252
    49  C   -0.232940
    50  C   -0.007080
    51  C    0.038638
    52  C   -0.021509
    53  C   -0.035805
    54  C   -0.224605
    55  C   -0.001192
    56  C   -0.028131
    57  C   -0.039429
    58  C    0.013143
    59  C   -0.208544
    60  C   -0.026051
    61  C    0.033035
    62  C   -0.049409
    63  C   -0.001891
    64  C   -0.235453
    65  C   -0.006426
    66  C   -0.024496
    67  H   -0.009937
    68  H    0.021636
    69  H   -0.004759
    70  H    0.083402
    71  H    0.043605
    72  H    0.062446
    73  H    0.047372
    74  H    0.028798
    75  H    0.044553
    76  H    0.046103
    77  H    0.062591
    78  H    0.068871
    79  H    0.046838
    80  H    0.048730
    81  H    0.047466
    82  H    0.074547
    83  H    0.058184
    84  H    0.053828
    85  H    0.055585
    86  H    0.052525
    87  H    0.056331
    88  H    0.043517
    89  H    0.052658
    90  H    0.051958
    91  H    0.037543
    92  H    0.037162
    93  H    0.046751
    94  H    0.043310
    95  H    0.038247
    96  H    0.046976
    97  H    0.070735
    98  H    0.083019
    99  H    0.063966
   100  H    0.065266
   101  H    0.067622
   102  H    0.053506
   103  H    0.064758
   104  H    0.026454
   105  H    0.033216
   106  H    0.048765
   107  H    0.059627
   108  H    0.031218
   109  H    0.026138
   110  H    0.019838
   111  H    0.021390
   112  H    0.037749
   113  H    0.031498
   114  H    0.021705
   115  H    0.039269
   116  H    0.036320
   117  H    0.031387
   118  H    0.016940
   119  H    0.024410
   120  H    0.025480
   121  H    0.034349
   122  H    0.024189
   123  H    0.025311
   124  H    0.038644
   125  H    0.018961
   126  H    0.034314
   127  H    0.016280
   128  H    0.035251
   129  H    0.027691
   130  H    0.022684
   131  H    0.028180
   132  H    0.025284
   133  H    0.014995
   134  H    0.035630
   135  H    0.040357
   136  H    0.034301
   137  H    0.016957
   138  H    0.028545
   139  H    0.034074
   140  H    0.033053
 Sum of Mulliken charges =  -0.00000

 Dipole moment (field-independent basis, Debye):
    X=              5.0302    Y=              1.4628    Z=             -2.5351  Tot=              5.8197
 Quadrupole moment (field-independent basis, Debye-Ang):
   XX=           -382.8609   YY=           -417.6041   ZZ=           -406.1487
   XY=            -24.3574   XZ=             12.7438   YZ=              6.5759

 Normal termination of Gaussian 16 at Wed Apr 27 01:45:43 2022.
