 Gaussian 16, Revision A.03,
 Gaussian 16:  ES64L-G16RevA.03 25-Dec-2016

 --------------------------------
 #p wB97XD/Def2SVP td=(nstates=5)
 --------------------------------

 ---------------------------------------------------
 step_101_chromophore_6 TDDFT with wB97XD functional
 ---------------------------------------------------
 Symbolic Z-matrix:
 Charge =  0 Multiplicity = 1

                         Standard orientation:
 ---------------------------------------------------------------------
 Center     Atomic      Atomic             Coordinates (Angstroms)
 Number     Number       Type             X           Y           Z
 ---------------------------------------------------------------------
      1         12           0       -5.898213    0.961469   -0.413524
      2          6           0       -5.067573   -2.305049    0.090446
      3          6           0       -2.425116    1.621110   -0.797240
      4          6           0       -6.470067    4.300059   -0.223065
      5          6           0       -9.197315    0.247301    0.316230
      6          7           0       -3.925406   -0.206525   -0.180497
      7          6           0       -3.861692   -1.563059   -0.041155
      8          6           0       -2.408190   -2.113321   -0.077002
      9          6           0       -1.530983   -0.804882   -0.167781
     10          6           0       -2.730731    0.280215   -0.455689
     11          6           0       -0.827690   -0.497113    1.195001
     12          6           0       -2.176538   -3.013658   -1.365944
     13          6           0       -0.769817   -3.517480   -1.600174
     14          6           0        0.341245   -3.570365   -0.457972
     15          8           0        0.129809   -3.639666    0.760178
     16          8           0        1.634748   -3.464202   -1.026883
     17          7           0       -4.630370    2.677446   -0.617220
     18          6           0       -3.282188    2.726742   -0.832677
     19          6           0       -2.878526    4.115702   -0.961940
     20          6           0       -4.034624    4.937104   -0.654203
     21          6           0       -5.111756    4.031855   -0.477467
     22          6           0       -1.459936    4.527440   -1.275387
     23          6           0       -4.093527    6.510374   -0.612514
     24          8           0       -5.168498    7.129601   -0.490683
     25          6           0       -2.846993    7.300100   -0.587240
     26          7           0       -7.643458    2.143814   -0.038651
     27          6           0       -7.666207    3.489040   -0.069942
     28          6           0       -9.063501    4.105382    0.355411
     29          6           0       -9.944907    2.766507    0.439405
     30          6           0       -8.878354    1.619879    0.183770
     31          6           0       -9.059558    5.032694    1.618950
     32          6           0      -11.001159    2.645866   -0.708659
     33          6           0      -12.298040    2.064840   -0.175861
     34          7           0       -7.047574   -0.656870   -0.091075
     35          6           0       -8.353836   -0.819573    0.250781
     36          6           0       -8.648408   -2.236656    0.417454
     37          6           0       -7.309442   -2.819843    0.370265
     38          6           0       -6.371060   -1.820525    0.082938
     39          6           0      -10.046085   -2.793359    0.595346
     40          6           0       -6.632804   -4.114606    0.477490
     41          8           0       -7.167348   -5.170168    0.807845
     42          6           0       -5.136635   -3.848552    0.251767
     43          6           0       -4.371697   -4.411474    1.463356
     44          8           0       -4.432628   -3.947741    2.600405
     45          8           0       -3.656729   -5.503966    1.117047
     46          6           0       -2.914863   -6.226763    2.208048
     47          6           0        2.698967   -3.307615   -0.056048
     48          6           0        3.928773   -3.227012   -0.844501
     49          6           0        5.173209   -3.734462   -0.597674
     50          6           0        5.624180   -4.249396    0.770720
     51          6           0        6.388672   -3.588038   -1.502277
     52          6           0        7.243952   -2.316651   -1.402227
     53          6           0        8.783151   -2.478137   -1.363872
     54          6           0        9.557858   -1.193180   -1.562662
     55          6           0        9.324499   -0.606681   -2.938424
     56          6           0       11.105962   -1.585018   -1.324675
     57          6           0       11.738810   -1.242558    0.037958
     58          6           0       13.304436   -1.183785   -0.070293
     59          6           0       13.808538    0.275381   -0.172518
     60          6           0       14.678319    0.473367   -1.398222
     61          6           0       14.438329    0.757090    1.149688
     62          6           0       13.889494    2.154422    1.508284
     63          6           0       14.944178    3.004407    2.001004
     64          6           0       14.752806    4.488446    1.795399
     65          6           0       14.938493    5.295288    3.098195
     66          6           0       15.768233    5.023022    0.680825
     67          1           0       -1.359725    1.726568   -1.008688
     68          1           0       -6.742843    5.348834   -0.084769
     69          1           0      -10.236152    0.119079    0.627064
     70          1           0       -2.226401   -2.708673    0.818140
     71          1           0       -0.719319   -0.626578   -0.872176
     72          1           0       -0.977106   -1.368622    1.832051
     73          1           0       -1.202589    0.426065    1.637126
     74          1           0        0.239944   -0.302509    1.094733
     75          1           0       -2.588157   -2.460968   -2.210449
     76          1           0       -2.797892   -3.904254   -1.277488
     77          1           0       -0.392790   -3.062368   -2.515418
     78          1           0       -0.819497   -4.571827   -1.872044
     79          1           0       -0.955541    5.133992   -0.523573
     80          1           0       -1.545982    5.239764   -2.094799
     81          1           0       -0.788862    3.710062   -1.541069
     82          1           0       -2.293158    7.001144    0.302691
     83          1           0       -3.163647    8.343178   -0.628804
     84          1           0       -2.147739    7.268286   -1.422491
     85          1           0       -9.278403    4.720724   -0.518708
     86          1           0      -10.412578    2.712071    1.422716
     87          1           0       -8.147518    4.954736    2.210212
     88          1           0       -9.869586    4.844279    2.323027
     89          1           0       -9.158428    6.043642    1.223271
     90          1           0      -10.567853    2.045292   -1.509213
     91          1           0      -11.103449    3.662251   -1.087258
     92          1           0      -12.682338    1.270025   -0.814548
     93          1           0      -13.128080    2.769209   -0.125937
     94          1           0      -12.120998    1.595990    0.792346
     95          1           0      -10.651800   -2.142670    1.226520
     96          1           0      -10.020428   -3.631348    1.291149
     97          1           0      -10.499055   -3.173156   -0.321154
     98          1           0       -4.787300   -4.356678   -0.646665
     99          1           0       -3.644924   -6.534782    2.956547
    100          1           0       -2.261065   -5.529836    2.733033
    101          1           0       -2.331910   -7.093388    1.897248
    102          1           0        2.765288   -4.221474    0.534872
    103          1           0        2.642268   -2.469907    0.637529
    104          1           0        3.779647   -2.912817   -1.877736
    105          1           0        4.902357   -3.996645    1.547228
    106          1           0        6.521985   -3.748060    1.132004
    107          1           0        5.804907   -5.313183    0.617015
    108          1           0        5.927165   -3.609816   -2.490067
    109          1           0        7.036024   -4.453646   -1.363167
    110          1           0        6.993565   -1.771913   -0.491832
    111          1           0        6.862071   -1.613451   -2.143081
    112          1           0        9.199247   -3.189474   -2.077407
    113          1           0        8.978254   -2.824205   -0.347877
    114          1           0        9.214496   -0.430946   -0.863352
    115          1           0       10.200208   -0.089960   -3.330642
    116          1           0        8.495576    0.099703   -2.893367
    117          1           0        9.001751   -1.439007   -3.564556
    118          1           0       11.674064   -1.139187   -2.140570
    119          1           0       11.161871   -2.667028   -1.447164
    120          1           0       11.388691   -2.027497    0.707146
    121          1           0       11.334355   -0.267587    0.310260
    122          1           0       13.612489   -1.747730   -0.950559
    123          1           0       13.668039   -1.712957    0.810740
    124          1           0       13.009399    0.985260   -0.390166
    125          1           0       14.768595    1.517243   -1.700528
    126          1           0       14.425252   -0.060413   -2.314556
    127          1           0       15.739684    0.267318   -1.264375
    128          1           0       15.516311    0.729307    0.997107
    129          1           0       14.085624    0.014201    1.864866
    130          1           0       13.212858    2.013873    2.351933
    131          1           0       13.263268    2.682567    0.789095
    132          1           0       15.943804    2.612533    1.810162
    133          1           0       14.822018    2.770632    3.058944
    134          1           0       13.758848    4.687691    1.394788
    135          1           0       14.060759    5.906764    3.305603
    136          1           0       15.877895    5.840131    3.196122
    137          1           0       15.035382    4.588252    3.921667
    138          1           0       16.598724    4.327205    0.562639
    139          1           0       16.206441    5.994982    0.905372
    140          1           0       15.311659    5.099245   -0.306141
 ---------------------------------------------------------------------

 SCF Done:  E(RwB97XD) =  -3007.85461288     A.U. after   19 cycles

 Excitation energies and oscillator strengths:

 Excited State   1:      Singlet-A      1.7371 eV  713.74 nm  f=0.3608  <S**2>=0.000
     245 -> 248       -0.21322
     246 -> 247        0.67391
     245 <- 248       -0.11866
 This state for optimization and/or second-order correction.
 Total Energy, E(TD-HF/TD-DFT) =  -3007.79077547
 Copying the excited state density for this state as the 1-particle RhoCI density.

 Excited State   2:      Singlet-A      2.1954 eV  564.76 nm  f=0.0813  <S**2>=0.000
     245 -> 247        0.62181
     246 -> 248        0.31761

 Excited State   3:      Singlet-A      3.3699 eV  367.92 nm  f=0.1322  <S**2>=0.000
     243 -> 247        0.53179
     244 -> 247       -0.24898
     245 -> 247        0.12253
     246 -> 248       -0.34770

 Excited State   4:      Singlet-A      3.5004 eV  354.20 nm  f=0.1829  <S**2>=0.000
     242 -> 247        0.22207
     242 -> 249        0.15314
     242 -> 250       -0.11631
     244 -> 247        0.50229
     245 -> 247        0.14501
     246 -> 248       -0.33397

 Excited State   5:      Singlet-A      3.5991 eV  344.48 nm  f=0.0795  <S**2>=0.000
     240 -> 247       -0.10855
     242 -> 247        0.46866
     242 -> 249        0.30140
     242 -> 250       -0.23184
     244 -> 247       -0.21396
     246 -> 248        0.19054

 The electronic state is 1-A.
 Alpha  occ. eigenvalues --  -46.94935 -19.31306 -19.30386 -19.26862 -19.24421
 Alpha  occ. eigenvalues --  -19.23803 -19.23099 -14.46483 -14.46437 -14.43690
 Alpha  occ. eigenvalues --  -14.43293 -10.45504 -10.42932 -10.39999 -10.38035
 Alpha  occ. eigenvalues --  -10.36159 -10.35541 -10.35145 -10.35041 -10.34954
 Alpha  occ. eigenvalues --  -10.34484 -10.34263 -10.33823 -10.33008 -10.32777
 Alpha  occ. eigenvalues --  -10.32687 -10.32568 -10.32555 -10.32474 -10.32465
 Alpha  occ. eigenvalues --  -10.32168 -10.32096 -10.32028 -10.31792 -10.31746
 Alpha  occ. eigenvalues --  -10.31618 -10.31463 -10.31054 -10.30554 -10.30466
 Alpha  occ. eigenvalues --  -10.30269 -10.30223 -10.29853 -10.29842 -10.29836
 Alpha  occ. eigenvalues --  -10.29829 -10.29817 -10.29721 -10.29610 -10.29601
 Alpha  occ. eigenvalues --  -10.29524 -10.29347 -10.29184 -10.29032 -10.28961
 Alpha  occ. eigenvalues --  -10.28872 -10.28799 -10.28789 -10.28777 -10.28656
 Alpha  occ. eigenvalues --  -10.28264 -10.28258 -10.27989 -10.27987 -10.27973
 Alpha  occ. eigenvalues --  -10.27230  -3.20859  -1.94455  -1.94010  -1.93797
 Alpha  occ. eigenvalues --   -1.18411  -1.17776  -1.11451  -1.10912  -1.10839
 Alpha  occ. eigenvalues --   -1.08709  -1.06137  -1.05383  -1.04594  -1.03116
 Alpha  occ. eigenvalues --   -0.94325  -0.92661  -0.92398  -0.91364  -0.90936
 Alpha  occ. eigenvalues --   -0.90096  -0.89743  -0.89327  -0.88490  -0.88306
 Alpha  occ. eigenvalues --   -0.87375  -0.87073  -0.86145  -0.85273  -0.85158
 Alpha  occ. eigenvalues --   -0.84615  -0.84065  -0.83442  -0.82911  -0.82173
 Alpha  occ. eigenvalues --   -0.81917  -0.80004  -0.79427  -0.78872  -0.77918
 Alpha  occ. eigenvalues --   -0.77866  -0.77190  -0.76983  -0.76801  -0.76092
 Alpha  occ. eigenvalues --   -0.75027  -0.73974  -0.73073  -0.72377  -0.70514
 Alpha  occ. eigenvalues --   -0.70205  -0.69790  -0.68803  -0.68572  -0.67414
 Alpha  occ. eigenvalues --   -0.67221  -0.67087  -0.66485  -0.66376  -0.66186
 Alpha  occ. eigenvalues --   -0.65917  -0.65099  -0.64601  -0.64149  -0.62014
 Alpha  occ. eigenvalues --   -0.61721  -0.60906  -0.60695  -0.60024  -0.59716
 Alpha  occ. eigenvalues --   -0.59071  -0.58846  -0.58169  -0.57945  -0.57439
 Alpha  occ. eigenvalues --   -0.57314  -0.56884  -0.56487  -0.56287  -0.55874
 Alpha  occ. eigenvalues --   -0.55642  -0.55112  -0.55070  -0.54728  -0.54602
 Alpha  occ. eigenvalues --   -0.54382  -0.54192  -0.54048  -0.53866  -0.53768
 Alpha  occ. eigenvalues --   -0.53343  -0.53030  -0.52852  -0.52681  -0.52394
 Alpha  occ. eigenvalues --   -0.52057  -0.51976  -0.51873  -0.51699  -0.51591
 Alpha  occ. eigenvalues --   -0.51394  -0.51251  -0.51005  -0.50893  -0.50658
 Alpha  occ. eigenvalues --   -0.50408  -0.50213  -0.49845  -0.49806  -0.49666
 Alpha  occ. eigenvalues --   -0.49365  -0.48890  -0.48718  -0.48687  -0.48392
 Alpha  occ. eigenvalues --   -0.48089  -0.48052  -0.47919  -0.47487  -0.47341
 Alpha  occ. eigenvalues --   -0.47271  -0.47111  -0.46834  -0.46599  -0.46516
 Alpha  occ. eigenvalues --   -0.46370  -0.46115  -0.46029  -0.45918  -0.45658
 Alpha  occ. eigenvalues --   -0.45550  -0.45425  -0.45188  -0.44979  -0.44816
 Alpha  occ. eigenvalues --   -0.44728  -0.44489  -0.44223  -0.43968  -0.43691
 Alpha  occ. eigenvalues --   -0.43597  -0.43509  -0.43319  -0.43171  -0.43142
 Alpha  occ. eigenvalues --   -0.42937  -0.42515  -0.42419  -0.42021  -0.41905
 Alpha  occ. eigenvalues --   -0.41346  -0.41217  -0.41200  -0.40860  -0.40833
 Alpha  occ. eigenvalues --   -0.40300  -0.40065  -0.40000  -0.39745  -0.39514
 Alpha  occ. eigenvalues --   -0.39110  -0.38956  -0.38890  -0.38428  -0.38274
 Alpha  occ. eigenvalues --   -0.38196  -0.37556  -0.37066  -0.36719  -0.35988
 Alpha  occ. eigenvalues --   -0.35856  -0.35425  -0.35255  -0.33509  -0.32830
 Alpha  occ. eigenvalues --   -0.32076  -0.31998  -0.31506  -0.31034  -0.25385
 Alpha  occ. eigenvalues --   -0.22684
 Alpha virt. eigenvalues --   -0.06236  -0.00028   0.02633   0.04570   0.05656
 Alpha virt. eigenvalues --    0.06310   0.07348   0.08158   0.08224   0.09370
 Alpha virt. eigenvalues --    0.10694   0.11384   0.11842   0.12216   0.12400

 Mulliken charges:
               1
     1  Mg   0.961549
     2  C   -0.082853
     3  C   -0.099668
     4  C   -0.063637
     5  C   -0.094876
     6  N   -0.292189
     7  C    0.012504
     8  C   -0.043795
     9  C   -0.141268
    10  C    0.018400
    11  C    0.017187
    12  C    0.027434
    13  C   -0.009825
    14  C    0.242689
    15  O   -0.267134
    16  O   -0.384772
    17  N   -0.471424
    18  C    0.213701
    19  C   -0.175693
    20  C   -0.061576
    21  C    0.158675
    22  C    0.068646
    23  C    0.092330
    24  O   -0.247543
    25  C   -0.031081
    26  N   -0.342278
    27  C    0.006252
    28  C   -0.072329
    29  C   -0.135832
    30  C    0.050776
    31  C    0.012957
    32  C    0.011350
    33  C   -0.047729
    34  N   -0.491913
    35  C    0.171563
    36  C   -0.155121
    37  C   -0.084719
    38  C    0.238186
    39  C    0.080243
    40  C    0.117254
    41  O   -0.214176
    42  C   -0.067800
    43  C    0.258328
    44  O   -0.259238
    45  O   -0.364883
    46  C    0.142689
    47  C    0.278370
    48  C   -0.148973
    49  C   -0.218515
    50  C    0.005709
    51  C    0.060078
    52  C   -0.010227
    53  C   -0.012588
    54  C   -0.198284
    55  C    0.008852
    56  C   -0.011062
    57  C   -0.019892
    58  C    0.029485
    59  C   -0.177583
    60  C   -0.014864
    61  C    0.047767
    62  C   -0.032591
    63  C    0.015199
    64  C   -0.207582
    65  C    0.006093
    66  C   -0.012328
    67  H   -0.017637
    68  H    0.015601
    69  H   -0.016109
    70  H    0.068933
    71  H    0.034287
    72  H    0.057484
    73  H    0.041230
    74  H    0.023726
    75  H    0.037570
    76  H    0.033920
    77  H    0.058262
    78  H    0.063376
    79  H    0.042305
    80  H    0.041135
    81  H    0.044766
    82  H    0.069558
    83  H    0.057447
    84  H    0.050205
    85  H    0.045048
    86  H    0.041003
    87  H    0.050268
    88  H    0.038745
    89  H    0.047601
    90  H    0.043492
    91  H    0.028771
    92  H    0.031676
    93  H    0.041943
    94  H    0.035621
    95  H    0.032663
    96  H    0.042120
    97  H    0.066532
    98  H    0.075990
    99  H    0.059777
   100  H    0.061783
   101  H    0.064866
   102  H    0.046865
   103  H    0.060754
   104  H    0.022624
   105  H    0.027693
   106  H    0.042219
   107  H    0.054016
   108  H    0.023201
   109  H    0.017921
   110  H    0.009887
   111  H    0.013140
   112  H    0.026953
   113  H    0.019439
   114  H    0.011072
   115  H    0.034313
   116  H    0.030673
   117  H    0.023737
   118  H    0.004072
   119  H    0.014208
   120  H    0.018241
   121  H    0.022727
   122  H    0.014775
   123  H    0.017962
   124  H    0.021901
   125  H    0.012374
   126  H    0.028434
   127  H    0.009508
   128  H    0.025053
   129  H    0.018560
   130  H    0.014621
   131  H    0.017404
   132  H    0.015313
   133  H    0.004179
   134  H    0.025447
   135  H    0.035577
   136  H    0.028551
   137  H    0.009524
   138  H    0.021357
   139  H    0.028073
   140  H    0.027252
 Sum of Mulliken charges =  -0.00000

 Dipole moment (field-independent basis, Debye):
    X=              5.2792    Y=              1.7895    Z=             -2.6400  Tot=              6.1678
 Quadrupole moment (field-independent basis, Debye-Ang):
   XX=           -385.9167   YY=           -415.3104   ZZ=           -405.8404
   XY=            -25.1100   XZ=             13.2131   YZ=              6.4054

 Normal termination of Gaussian 16 at Wed Apr 27 02:12:20 2022.
