 Gaussian 16, Revision A.03,
 Gaussian 16:  ES64L-G16RevA.03 25-Dec-2016

 --------------------
 #p ZINDO=(nstates=5)
 --------------------

 ----------------------------
 step_101_chromophore_6 ZINDO
 ----------------------------
 Symbolic Z-matrix:
 Charge =  0 Multiplicity = 1

                         Standard orientation:
 ---------------------------------------------------------------------
 Center     Atomic      Atomic             Coordinates (Angstroms)
 Number     Number       Type             X           Y           Z
 ---------------------------------------------------------------------
      1         12           0       -5.898213    0.961469   -0.413524
      2          6           0       -5.067573   -2.305049    0.090446
      3          6           0       -2.425116    1.621110   -0.797240
      4          6           0       -6.470067    4.300059   -0.223065
      5          6           0       -9.197315    0.247301    0.316230
      6          7           0       -3.925406   -0.206525   -0.180497
      7          6           0       -3.861692   -1.563059   -0.041155
      8          6           0       -2.408190   -2.113321   -0.077002
      9          6           0       -1.530983   -0.804882   -0.167781
     10          6           0       -2.730731    0.280215   -0.455689
     11          6           0       -0.827690   -0.497113    1.195001
     12          6           0       -2.176538   -3.013658   -1.365944
     13          6           0       -0.769817   -3.517480   -1.600174
     14          6           0        0.341245   -3.570365   -0.457972
     15          8           0        0.129809   -3.639666    0.760178
     16          8           0        1.634748   -3.464202   -1.026883
     17          7           0       -4.630370    2.677446   -0.617220
     18          6           0       -3.282188    2.726742   -0.832677
     19          6           0       -2.878526    4.115702   -0.961940
     20          6           0       -4.034624    4.937104   -0.654203
     21          6           0       -5.111756    4.031855   -0.477467
     22          6           0       -1.459936    4.527440   -1.275387
     23          6           0       -4.093527    6.510374   -0.612514
     24          8           0       -5.168498    7.129601   -0.490683
     25          6           0       -2.846993    7.300100   -0.587240
     26          7           0       -7.643458    2.143814   -0.038651
     27          6           0       -7.666207    3.489040   -0.069942
     28          6           0       -9.063501    4.105382    0.355411
     29          6           0       -9.944907    2.766507    0.439405
     30          6           0       -8.878354    1.619879    0.183770
     31          6           0       -9.059558    5.032694    1.618950
     32          6           0      -11.001159    2.645866   -0.708659
     33          6           0      -12.298040    2.064840   -0.175861
     34          7           0       -7.047574   -0.656870   -0.091075
     35          6           0       -8.353836   -0.819573    0.250781
     36          6           0       -8.648408   -2.236656    0.417454
     37          6           0       -7.309442   -2.819843    0.370265
     38          6           0       -6.371060   -1.820525    0.082938
     39          6           0      -10.046085   -2.793359    0.595346
     40          6           0       -6.632804   -4.114606    0.477490
     41          8           0       -7.167348   -5.170168    0.807845
     42          6           0       -5.136635   -3.848552    0.251767
     43          6           0       -4.371697   -4.411474    1.463356
     44          8           0       -4.432628   -3.947741    2.600405
     45          8           0       -3.656729   -5.503966    1.117047
     46          6           0       -2.914863   -6.226763    2.208048
     47          6           0        2.698967   -3.307615   -0.056048
     48          6           0        3.928773   -3.227012   -0.844501
     49          6           0        5.173209   -3.734462   -0.597674
     50          6           0        5.624180   -4.249396    0.770720
     51          6           0        6.388672   -3.588038   -1.502277
     52          6           0        7.243952   -2.316651   -1.402227
     53          6           0        8.783151   -2.478137   -1.363872
     54          6           0        9.557858   -1.193180   -1.562662
     55          6           0        9.324499   -0.606681   -2.938424
     56          6           0       11.105962   -1.585018   -1.324675
     57          6           0       11.738810   -1.242558    0.037958
     58          6           0       13.304436   -1.183785   -0.070293
     59          6           0       13.808538    0.275381   -0.172518
     60          6           0       14.678319    0.473367   -1.398222
     61          6           0       14.438329    0.757090    1.149688
     62          6           0       13.889494    2.154422    1.508284
     63          6           0       14.944178    3.004407    2.001004
     64          6           0       14.752806    4.488446    1.795399
     65          6           0       14.938493    5.295288    3.098195
     66          6           0       15.768233    5.023022    0.680825
     67          1           0       -1.359725    1.726568   -1.008688
     68          1           0       -6.742843    5.348834   -0.084769
     69          1           0      -10.236152    0.119079    0.627064
     70          1           0       -2.226401   -2.708673    0.818140
     71          1           0       -0.719319   -0.626578   -0.872176
     72          1           0       -0.977106   -1.368622    1.832051
     73          1           0       -1.202589    0.426065    1.637126
     74          1           0        0.239944   -0.302509    1.094733
     75          1           0       -2.588157   -2.460968   -2.210449
     76          1           0       -2.797892   -3.904254   -1.277488
     77          1           0       -0.392790   -3.062368   -2.515418
     78          1           0       -0.819497   -4.571827   -1.872044
     79          1           0       -0.955541    5.133992   -0.523573
     80          1           0       -1.545982    5.239764   -2.094799
     81          1           0       -0.788862    3.710062   -1.541069
     82          1           0       -2.293158    7.001144    0.302691
     83          1           0       -3.163647    8.343178   -0.628804
     84          1           0       -2.147739    7.268286   -1.422491
     85          1           0       -9.278403    4.720724   -0.518708
     86          1           0      -10.412578    2.712071    1.422716
     87          1           0       -8.147518    4.954736    2.210212
     88          1           0       -9.869586    4.844279    2.323027
     89          1           0       -9.158428    6.043642    1.223271
     90          1           0      -10.567853    2.045292   -1.509213
     91          1           0      -11.103449    3.662251   -1.087258
     92          1           0      -12.682338    1.270025   -0.814548
     93          1           0      -13.128080    2.769209   -0.125937
     94          1           0      -12.120998    1.595990    0.792346
     95          1           0      -10.651800   -2.142670    1.226520
     96          1           0      -10.020428   -3.631348    1.291149
     97          1           0      -10.499055   -3.173156   -0.321154
     98          1           0       -4.787300   -4.356678   -0.646665
     99          1           0       -3.644924   -6.534782    2.956547
    100          1           0       -2.261065   -5.529836    2.733033
    101          1           0       -2.331910   -7.093388    1.897248
    102          1           0        2.765288   -4.221474    0.534872
    103          1           0        2.642268   -2.469907    0.637529
    104          1           0        3.779647   -2.912817   -1.877736
    105          1           0        4.902357   -3.996645    1.547228
    106          1           0        6.521985   -3.748060    1.132004
    107          1           0        5.804907   -5.313183    0.617015
    108          1           0        5.927165   -3.609816   -2.490067
    109          1           0        7.036024   -4.453646   -1.363167
    110          1           0        6.993565   -1.771913   -0.491832
    111          1           0        6.862071   -1.613451   -2.143081
    112          1           0        9.199247   -3.189474   -2.077407
    113          1           0        8.978254   -2.824205   -0.347877
    114          1           0        9.214496   -0.430946   -0.863352
    115          1           0       10.200208   -0.089960   -3.330642
    116          1           0        8.495576    0.099703   -2.893367
    117          1           0        9.001751   -1.439007   -3.564556
    118          1           0       11.674064   -1.139187   -2.140570
    119          1           0       11.161871   -2.667028   -1.447164
    120          1           0       11.388691   -2.027497    0.707146
    121          1           0       11.334355   -0.267587    0.310260
    122          1           0       13.612489   -1.747730   -0.950559
    123          1           0       13.668039   -1.712957    0.810740
    124          1           0       13.009399    0.985260   -0.390166
    125          1           0       14.768595    1.517243   -1.700528
    126          1           0       14.425252   -0.060413   -2.314556
    127          1           0       15.739684    0.267318   -1.264375
    128          1           0       15.516311    0.729307    0.997107
    129          1           0       14.085624    0.014201    1.864866
    130          1           0       13.212858    2.013873    2.351933
    131          1           0       13.263268    2.682567    0.789095
    132          1           0       15.943804    2.612533    1.810162
    133          1           0       14.822018    2.770632    3.058944
    134          1           0       13.758848    4.687691    1.394788
    135          1           0       14.060759    5.906764    3.305603
    136          1           0       15.877895    5.840131    3.196122
    137          1           0       15.035382    4.588252    3.921667
    138          1           0       16.598724    4.327205    0.562639
    139          1           0       16.206441    5.994982    0.905372
    140          1           0       15.311659    5.099245   -0.306141
 ---------------------------------------------------------------------

 SCF Done:  E(RZINDO/S) =  -474.044750096     A.U. after   19 cycles

 Excitation energies and oscillator strengths:

 Excited State   1:      Singlet-A      1.2971 eV  955.85 nm  f=0.5545  <S**2>=0.000
     175 ->178        -0.21427
     176 ->177         0.65597
 This state for optimization and/or second-order correction.
 Total Energy, E(CIS/TDA) =  -473.997082357
 Copying the excited state density for this state as the 1-particle RhoCI density.

 Excited State   2:      Singlet-A      1.9071 eV  650.11 nm  f=0.0136  <S**2>=0.000
     175 ->177         0.51663
     176 ->178         0.46030

 Excited State   3:      Singlet-A      2.9831 eV  415.63 nm  f=0.0843  <S**2>=0.000
     170 ->177         0.29221
     170 ->178        -0.10206
     170 ->179         0.36186
     170 ->181        -0.31570
     170 ->186         0.18345
     170 ->187         0.18305
     170 ->201        -0.13380
     175 ->177         0.10353
     176 ->178        -0.13059

 Excited State   4:      Singlet-A      3.0214 eV  410.36 nm  f=0.8323  <S**2>=0.000
     168 ->177         0.13726
     168 ->179        -0.21447
     168 ->181        -0.19515
     168 ->186        -0.13066
     171 ->177         0.12262
     175 ->177        -0.33755
     176 ->178         0.39783

 Excited State   5:      Singlet-A      3.0284 eV  409.41 nm  f=0.2607  <S**2>=0.000
     168 ->177         0.13075
     168 ->179        -0.19195
     168 ->181        -0.17102
     168 ->186        -0.11736
     175 ->177         0.18837
     176 ->178        -0.20438
     176 ->179         0.48833
     176 ->181        -0.11297

 The electronic state is 1-A.
 Alpha  occ. eigenvalues --   -1.83740  -1.78362  -1.77304  -1.71522  -1.70464
 Alpha  occ. eigenvalues --   -1.68529  -1.66898  -1.62995  -1.57845  -1.57681
 Alpha  occ. eigenvalues --   -1.56088  -1.52766  -1.49342  -1.46890  -1.46757
 Alpha  occ. eigenvalues --   -1.42712  -1.42413  -1.39655  -1.38631  -1.37680
 Alpha  occ. eigenvalues --   -1.35186  -1.33095  -1.32097  -1.31882  -1.28856
 Alpha  occ. eigenvalues --   -1.27542  -1.23973  -1.21908  -1.21045  -1.17852
 Alpha  occ. eigenvalues --   -1.16246  -1.15954  -1.15641  -1.14794  -1.14398
 Alpha  occ. eigenvalues --   -1.11936  -1.10493  -1.10133  -1.04607  -1.03331
 Alpha  occ. eigenvalues --   -1.02237  -1.00554  -0.99080  -0.97360  -0.96444
 Alpha  occ. eigenvalues --   -0.96147  -0.95449  -0.93663  -0.92964  -0.92470
 Alpha  occ. eigenvalues --   -0.90536  -0.90322  -0.88621  -0.87857  -0.87232
 Alpha  occ. eigenvalues --   -0.86115  -0.86023  -0.82810  -0.81808  -0.79754
 Alpha  occ. eigenvalues --   -0.79218  -0.78461  -0.77653  -0.76793  -0.76689
 Alpha  occ. eigenvalues --   -0.75207  -0.74683  -0.74411  -0.73852  -0.73434
 Alpha  occ. eigenvalues --   -0.72826  -0.72358  -0.72282  -0.71750  -0.71274
 Alpha  occ. eigenvalues --   -0.70092  -0.69437  -0.69011  -0.68317  -0.67596
 Alpha  occ. eigenvalues --   -0.67281  -0.66792  -0.66253  -0.65978  -0.65747
 Alpha  occ. eigenvalues --   -0.64989  -0.64869  -0.64303  -0.63768  -0.63439
 Alpha  occ. eigenvalues --   -0.63125  -0.62686  -0.62329  -0.62100  -0.61688
 Alpha  occ. eigenvalues --   -0.61113  -0.60940  -0.60293  -0.59950  -0.59696
 Alpha  occ. eigenvalues --   -0.59445  -0.59050  -0.58759  -0.58323  -0.58070
 Alpha  occ. eigenvalues --   -0.57882  -0.57664  -0.57144  -0.57090  -0.57013
 Alpha  occ. eigenvalues --   -0.56364  -0.55292  -0.55234  -0.54806  -0.54274
 Alpha  occ. eigenvalues --   -0.54109  -0.53946  -0.53254  -0.52632  -0.52519
 Alpha  occ. eigenvalues --   -0.52241  -0.51944  -0.51529  -0.51352  -0.51286
 Alpha  occ. eigenvalues --   -0.51005  -0.50920  -0.50311  -0.50195  -0.49847
 Alpha  occ. eigenvalues --   -0.49566  -0.49283  -0.49225  -0.49096  -0.49028
 Alpha  occ. eigenvalues --   -0.48629  -0.48435  -0.48261  -0.48025  -0.47698
 Alpha  occ. eigenvalues --   -0.47577  -0.47398  -0.47204  -0.47137  -0.47130
 Alpha  occ. eigenvalues --   -0.46368  -0.46313  -0.45860  -0.45799  -0.45617
 Alpha  occ. eigenvalues --   -0.44892  -0.44788  -0.44610  -0.44331  -0.44286
 Alpha  occ. eigenvalues --   -0.44000  -0.43303  -0.43077  -0.42706  -0.42171
 Alpha  occ. eigenvalues --   -0.41311  -0.40918  -0.40074  -0.39844  -0.38979
 Alpha  occ. eigenvalues --   -0.37800  -0.36965  -0.35940  -0.35326  -0.34184
 Alpha  occ. eigenvalues --   -0.32738  -0.32220  -0.32101  -0.31293  -0.26096
 Alpha  occ. eigenvalues --   -0.21457
 Alpha virt. eigenvalues --   -0.07806  -0.02345  -0.00385   0.00627   0.01458
 Alpha virt. eigenvalues --    0.02692   0.03150   0.03266   0.04132   0.04716
 Alpha virt. eigenvalues --    0.06281   0.06745   0.06988   0.07276   0.07829

 Mulliken charges:
               1
     1  Mg   0.426920
     2  C   -0.044627
     3  C   -0.093247
     4  C   -0.057686
     5  C   -0.054105
     6  N   -0.267709
     7  C    0.107774
     8  C    0.015506
     9  C   -0.009761
    10  C    0.138712
    11  C   -0.055531
    12  C   -0.020549
    13  C    0.010358
    14  C    0.455794
    15  O   -0.505792
    16  O   -0.269826
    17  N   -0.357768
    18  C    0.139003
    19  C    0.005022
    20  C   -0.036717
    21  C    0.130581
    22  C   -0.043981
    23  C    0.332857
    24  O   -0.521473
    25  C   -0.028835
    26  N   -0.243513
    27  C    0.127522
    28  C   -0.004053
    29  C   -0.006178
    30  C    0.096719
    31  C   -0.047776
    32  C   -0.024889
    33  C   -0.054636
    34  N   -0.323119
    35  C    0.101075
    36  C    0.014919
    37  C   -0.060272
    38  C    0.119920
    39  C   -0.038578
    40  C    0.331687
    41  O   -0.525733
    42  C    0.054990
    43  C    0.489494
    44  O   -0.523399
    45  O   -0.266300
    46  C    0.073232
    47  C    0.119105
    48  C   -0.084068
    49  C   -0.020160
    50  C   -0.049981
    51  C   -0.018567
    52  C   -0.032497
    53  C   -0.023527
    54  C   -0.016153
    55  C   -0.055540
    56  C   -0.046379
    57  C   -0.038899
    58  C   -0.033182
    59  C   -0.009453
    60  C   -0.059164
    61  C   -0.036121
    62  C   -0.027161
    63  C   -0.028651
    64  C   -0.006033
    65  C   -0.060106
    66  C   -0.065603
    67  H    0.021837
    68  H    0.037083
    69  H    0.023654
    70  H    0.059492
    71  H    0.039566
    72  H    0.036468
    73  H    0.022746
    74  H    0.015074
    75  H    0.026263
    76  H    0.020035
    77  H    0.035308
    78  H    0.038798
    79  H    0.029321
    80  H    0.024585
    81  H    0.028471
    82  H    0.043662
    83  H    0.035737
    84  H    0.036549
    85  H    0.035299
    86  H    0.038860
    87  H    0.028355
    88  H    0.021829
    89  H    0.023530
    90  H    0.028745
    91  H    0.019376
    92  H    0.012579
    93  H    0.022115
    94  H    0.022072
    95  H    0.027919
    96  H    0.025097
    97  H    0.043982
    98  H    0.053456
    99  H    0.044663
   100  H    0.044816
   101  H    0.041783
   102  H    0.046543
   103  H    0.058598
   104  H    0.023957
   105  H    0.017557
   106  H    0.024221
   107  H    0.034690
   108  H    0.014065
   109  H    0.023242
   110  H    0.012027
   111  H    0.018566
   112  H    0.025363
   113  H    0.011399
   114  H    0.019854
   115  H    0.021694
   116  H    0.013331
   117  H    0.019138
   118  H    0.016627
   119  H    0.015893
   120  H    0.020040
   121  H    0.022554
   122  H    0.020397
   123  H    0.018754
   124  H    0.020956
   125  H    0.006311
   126  H    0.017616
   127  H    0.009575
   128  H    0.030294
   129  H    0.023680
   130  H    0.007969
   131  H    0.023985
   132  H    0.023935
   133  H    0.005793
   134  H    0.023420
   135  H    0.020969
   136  H    0.023614
   137  H    0.010203
   138  H    0.016426
   139  H    0.018876
   140  H    0.014851
 Sum of Mulliken charges =  -0.00000

 Dipole moment (field-independent basis, Debye):
    X=              7.4022    Y=              2.6100    Z=             -5.0224  Tot=              9.3182
 N-N= 4.176662040156D+03 E-N= 0.000000000000D+00  KE=-9.027774899606D+03
 Leave Link  601 at Wed Apr 27 02:23:48 2022, MaxMem=  6710886400 cpu:               0.7 elap:               0.0
 (Enter /sw/apps/gaussian-16.0/g16/l9999.exe)
 1\1\GINC-BP1-COMPUTE163\SP\RZINDO CIS\STO-3G\C55H74Mg1N4O6\OF15641\27-
 Apr-2022\0\\#p ZINDO=(nstates=5)\\step_101_chromophore_6 ZINDO\\0,1\Mg
 ,0,16.48,-2.027,27.111\C,0,15.782,-0.126,29.852\C,0,18.318,-4.177,29.2
 66\C,0,17.846,-3.606,24.437\C,0,14.957,0.317,25.083\N,0,17.143,-2.035,
 29.318\C,0,16.656,-1.172,30.257\C,0,17.137,-1.502,31.698\C,0,18.128,-2
 .71,31.478\C,0,17.791,-3.025,29.901\C,0,19.617,-2.26,31.642\C,0,15.918
 ,-1.958,32.61\C,0,16.253,-2.431,34.007\C,0,17.631,-2.097,34.736\O,0,18

 Normal termination of Gaussian 16 at Wed Apr 27 02:23:48 2022.
