 Gaussian 16, Revision A.03,
 Gaussian 16:  ES64L-G16RevA.03 25-Dec-2016

 ------------------------------
 #p blyp/Def2SVP td=(nstates=5)
 ------------------------------

 ---------------------------------------------------
 step_1651_chromophore_13 TDDFT with blyp functional
 ---------------------------------------------------
 Symbolic Z-matrix:
 Charge =  0 Multiplicity = 1

                         Standard orientation:
 ---------------------------------------------------------------------
 Center     Atomic      Atomic             Coordinates (Angstroms)
 Number     Number       Type             X           Y           Z
 ---------------------------------------------------------------------
      1         12           0       -6.162632    0.140384   -0.046973
      2          6           0       -3.823441   -2.310616    0.067665
      3          6           0       -3.632282    2.562261    0.633461
      4          6           0       -8.618094    2.634654    0.292443
      5          6           0       -8.718030   -2.055815   -0.845351
      6          7           0       -3.985802    0.156469    0.398628
      7          6           0       -3.258638   -1.032067    0.337182
      8          6           0       -1.826106   -0.729716    0.569137
      9          6           0       -1.866392    0.793105    0.971652
     10          6           0       -3.228719    1.259793    0.571972
     11          6           0       -1.558093    1.062672    2.461543
     12          6           0       -0.784035   -1.143879   -0.463602
     13          6           0        0.633621   -1.525484    0.122346
     14          6           0        1.888355   -1.190665   -0.717430
     15          8           0        1.951417   -0.468489   -1.657815
     16          8           0        2.960369   -1.951503   -0.372813
     17          7           0       -6.080187    2.266153    0.343331
     18          6           0       -4.940513    3.030860    0.591696
     19          6           0       -5.351761    4.402764    0.833750
     20          6           0       -6.779009    4.453995    0.809175
     21          6           0       -7.241490    3.033497    0.469060
     22          6           0       -4.338937    5.543495    0.902544
     23          6           0       -7.667197    5.680478    1.176570
     24          8           0       -8.870859    5.669517    1.260734
     25          6           0       -6.928654    7.090708    1.308229
     26          7           0       -8.441434    0.219214   -0.109542
     27          6           0       -9.144864    1.358583   -0.021146
     28          6           0      -10.619636    1.230619   -0.438050
     29          6           0      -10.474063   -0.200448   -1.182847
     30          6           0       -9.121402   -0.765820   -0.728605
     31          6           0      -11.636230    1.103251    0.689311
     32          6           0      -10.630148   -0.127912   -2.768162
     33          6           0       -9.544829    0.573391   -3.610880
     34          7           0       -6.338261   -1.777392   -0.168045
     35          6           0       -7.408748   -2.592217   -0.582203
     36          6           0       -6.879984   -3.928973   -0.771829
     37          6           0       -5.524730   -3.886128   -0.470818
     38          6           0       -5.252420   -2.557482   -0.077325
     39          6           0       -7.727178   -5.136052   -1.172129
     40          6           0       -4.321064   -4.620555   -0.324159
     41          8           0       -4.114610   -5.813418   -0.608755
     42          6           0       -3.190073   -3.637907    0.192678
     43          6           0       -2.726657   -3.948140    1.511688
     44          8           0       -3.352675   -3.704626    2.525355
     45          8           0       -1.431582   -4.327927    1.455859
     46          6           0       -0.730540   -4.569585    2.714118
     47          6           0        4.127523   -1.841606   -1.244165
     48          6           0        5.128916   -0.821034   -0.603712
     49          6           0        6.460487   -0.877320   -0.717305
     50          6           0        7.423618   -1.686338   -1.634946
     51          6           0        7.311675    0.121840    0.123711
     52          6           0        7.573319    1.484621   -0.547434
     53          6           0        8.869244    2.163304   -0.044457
     54          6           0        9.913156    2.492266   -1.130026
     55          6           0        9.451334    3.629525   -2.047257
     56          6           0       10.434704    1.306770   -1.949466
     57          6           0       11.859374    1.525012   -2.481384
     58          6           0       13.014415    0.439005   -2.190418
     59          6           0       14.272575    1.052781   -1.530817
     60          6           0       15.307536    1.499448   -2.560560
     61          6           0       14.793976    0.150709   -0.429500
     62          6           0       14.483927    0.529791    1.052770
     63          6           0       14.211958   -0.778178    1.898383
     64          6           0       12.998491   -0.534074    2.927439
     65          6           0       13.471444   -0.726124    4.387756
     66          6           0       11.640435   -1.285892    2.653690
     67          1           0       -2.827692    3.232043    0.943191
     68          1           0       -9.340724    3.453285    0.326892
     69          1           0       -9.395776   -2.769944   -1.319010
     70          1           0       -1.538051   -1.330955    1.431804
     71          1           0       -1.146101    1.368787    0.390721
     72          1           0       -0.883788    0.323027    2.892667
     73          1           0       -2.492141    1.055620    3.023622
     74          1           0       -0.981034    1.978789    2.584220
     75          1           0       -0.697777   -0.479091   -1.323622
     76          1           0       -1.170520   -2.026430   -0.973388
     77          1           0        0.513191   -2.608777    0.097878
     78          1           0        0.786212   -1.164645    1.139453
     79          1           0       -4.352767    5.942097   -0.111827
     80          1           0       -3.306852    5.200256    0.834427
     81          1           0       -4.355599    6.288501    1.698070
     82          1           0       -6.213941    7.255835    0.502029
     83          1           0       -6.355601    7.080650    2.236019
     84          1           0       -7.667228    7.889797    1.364147
     85          1           0      -10.889294    2.055264   -1.097106
     86          1           0      -11.306593   -0.800705   -0.815989
     87          1           0      -12.282152    0.227924    0.635908
     88          1           0      -12.130075    2.065797    0.824009
     89          1           0      -10.985126    0.924467    1.544814
     90          1           0      -11.449408    0.590925   -2.794308
     91          1           0      -11.038154   -0.996266   -3.284967
     92          1           0       -8.822541    1.068544   -2.961621
     93          1           0       -9.987410    1.335304   -4.251721
     94          1           0       -9.079585   -0.079932   -4.348747
     95          1           0       -7.066926   -5.824545   -1.698854
     96          1           0       -8.532953   -4.755266   -1.799408
     97          1           0       -8.165099   -5.627917   -0.304076
     98          1           0       -2.422803   -3.762368   -0.570869
     99          1           0       -0.619340   -5.626558    2.953779
    100          1           0       -1.096302   -4.023828    3.583900
    101          1           0        0.277235   -4.183734    2.559761
    102          1           0        4.069305   -1.623642   -2.310885
    103          1           0        4.683801   -2.778309   -1.283211
    104          1           0        4.734371   -0.096970    0.110337
    105          1           0        6.843548   -2.238588   -2.374026
    106          1           0        8.101367   -2.217106   -0.965941
    107          1           0        8.212335   -1.071161   -2.069949
    108          1           0        8.270892   -0.274001    0.456893
    109          1           0        6.735932    0.322965    1.027831
    110          1           0        6.799982    2.180054   -0.221440
    111          1           0        7.590876    1.333394   -1.626485
    112          1           0        9.499913    1.658862    0.687098
    113          1           0        8.581197    3.125226    0.379505
    114          1           0       10.818404    2.847608   -0.639148
    115          1           0        9.491056    3.293305   -3.083213
    116          1           0       10.093189    4.488245   -1.850405
    117          1           0        8.429446    3.970621   -1.883943
    118          1           0        9.742936    1.063493   -2.755848
    119          1           0       10.358223    0.357881   -1.418171
    120          1           0       12.225972    2.508414   -2.186343
    121          1           0       11.774379    1.463806   -3.566110
    122          1           0       13.347669   -0.125758   -3.060235
    123          1           0       12.551794   -0.271834   -1.505663
    124          1           0       14.004432    1.882493   -0.877092
    125          1           0       15.491806    2.533481   -2.272391
    126          1           0       14.770180    1.639353   -3.498705
    127          1           0       16.154966    0.814251   -2.567274
    128          1           0       15.883559    0.173124   -0.402989
    129          1           0       14.611045   -0.883238   -0.722884
    130          1           0       13.595690    1.160577    1.020686
    131          1           0       15.342017    1.009077    1.522654
    132          1           0       15.040035   -1.036534    2.557763
    133          1           0       13.994920   -1.621608    1.243506
    134          1           0       12.683183    0.508752    2.924278
    135          1           0       12.876526   -1.515026    4.846651
    136          1           0       13.137101    0.167372    4.915854
    137          1           0       14.537758   -0.929635    4.485668
    138          1           0       10.963831   -0.441875    2.519563
    139          1           0       11.286372   -1.990065    3.406317
    140          1           0       11.770824   -1.822134    1.714605
 ---------------------------------------------------------------------

 SCF Done:  E(RB-LYP) =  -3007.34823921     A.U. after   21 cycles

 Excitation energies and oscillator strengths:

 Excited State   1:      Singlet-A      1.8329 eV  676.43 nm  f=0.2941  <S**2>=0.000
     245 -> 248        0.20034
     246 -> 247        0.68485
     246 <- 247       -0.14279
 This state for optimization and/or second-order correction.
 Total Energy, E(TD-HF/TD-DFT) =  -3007.28088032
 Copying the excited state density for this state as the 1-particle RhoCI density.

 Excited State   2:      Singlet-A      1.9301 eV  642.36 nm  f=0.0058  <S**2>=0.000
     244 -> 247        0.66072
     245 -> 247       -0.22261

 Excited State   3:      Singlet-A      1.9911 eV  622.68 nm  f=0.0235  <S**2>=0.000
     243 -> 247        0.58366
     244 -> 247        0.20109
     245 -> 247        0.31793
     246 -> 248       -0.10564

 Excited State   4:      Singlet-A      2.0827 eV  595.31 nm  f=0.0602  <S**2>=0.000
     243 -> 247       -0.37977
     244 -> 247        0.14115
     245 -> 247        0.52217
     246 -> 248       -0.23465

 Excited State   5:      Singlet-A      2.3054 eV  537.81 nm  f=0.0000  <S**2>=0.000
     242 -> 247        0.70711

 The electronic state is 1-A.
 Alpha  occ. eigenvalues --  -46.27050 -18.83094 -18.82420 -18.76928 -18.76518
 Alpha  occ. eigenvalues --  -18.76360 -18.75516 -14.03141 -14.02777 -14.01715
 Alpha  occ. eigenvalues --  -14.01184 -10.04346 -10.03833 -10.00628  -9.99551
 Alpha  occ. eigenvalues --   -9.98438  -9.98139  -9.97003  -9.96864  -9.96429
 Alpha  occ. eigenvalues --   -9.96089  -9.96076  -9.95971  -9.95942  -9.94981
 Alpha  occ. eigenvalues --   -9.94484  -9.94456  -9.94127  -9.94032  -9.93813
 Alpha  occ. eigenvalues --   -9.93813  -9.93666  -9.93621  -9.93466  -9.93461
 Alpha  occ. eigenvalues --   -9.93385  -9.93347  -9.92987  -9.92983  -9.92918
 Alpha  occ. eigenvalues --   -9.92899  -9.92833  -9.92805  -9.92649  -9.92203
 Alpha  occ. eigenvalues --   -9.92028  -9.91980  -9.91873  -9.91872  -9.91819
 Alpha  occ. eigenvalues --   -9.91742  -9.91613  -9.91590  -9.91585  -9.91501
 Alpha  occ. eigenvalues --   -9.91460  -9.91395  -9.91217  -9.91164  -9.91127
 Alpha  occ. eigenvalues --   -9.91035  -9.90859  -9.90830  -9.90557  -9.90449
 Alpha  occ. eigenvalues --   -9.90387  -2.91725  -1.72149  -1.71623  -1.71432
 Alpha  occ. eigenvalues --   -0.99489  -0.98916  -0.92611  -0.90892  -0.90600
 Alpha  occ. eigenvalues --   -0.90085  -0.86672  -0.86149  -0.85604  -0.83763
 Alpha  occ. eigenvalues --   -0.76139  -0.73522  -0.72923  -0.72699  -0.72099
 Alpha  occ. eigenvalues --   -0.71820  -0.71591  -0.71221  -0.70454  -0.70213
 Alpha  occ. eigenvalues --   -0.69725  -0.69110  -0.68202  -0.67878  -0.67196
 Alpha  occ. eigenvalues --   -0.66554  -0.66015  -0.65480  -0.65000  -0.64028
 Alpha  occ. eigenvalues --   -0.63691  -0.62738  -0.62191  -0.61837  -0.61086
 Alpha  occ. eigenvalues --   -0.60551  -0.60026  -0.60001  -0.59648  -0.58972
 Alpha  occ. eigenvalues --   -0.58669  -0.57987  -0.57053  -0.56152  -0.54982
 Alpha  occ. eigenvalues --   -0.54201  -0.53950  -0.52879  -0.52579  -0.51780
 Alpha  occ. eigenvalues --   -0.51289  -0.51171  -0.50736  -0.50439  -0.49919
 Alpha  occ. eigenvalues --   -0.49626  -0.49114  -0.48434  -0.47775  -0.46501
 Alpha  occ. eigenvalues --   -0.46363  -0.46166  -0.46056  -0.45737  -0.45106
 Alpha  occ. eigenvalues --   -0.44522  -0.44054  -0.42802  -0.42728  -0.42461
 Alpha  occ. eigenvalues --   -0.42297  -0.41970  -0.41537  -0.41333  -0.41170
 Alpha  occ. eigenvalues --   -0.41067  -0.40945  -0.40628  -0.40499  -0.40050
 Alpha  occ. eigenvalues --   -0.39921  -0.39757  -0.39474  -0.39338  -0.39306
 Alpha  occ. eigenvalues --   -0.38940  -0.38871  -0.38654  -0.38365  -0.38177
 Alpha  occ. eigenvalues --   -0.38159  -0.37653  -0.37369  -0.37335  -0.37197
 Alpha  occ. eigenvalues --   -0.37155  -0.37038  -0.36945  -0.36776  -0.36605
 Alpha  occ. eigenvalues --   -0.36483  -0.36289  -0.36130  -0.35896  -0.35740
 Alpha  occ. eigenvalues --   -0.35469  -0.35026  -0.34981  -0.34873  -0.34718
 Alpha  occ. eigenvalues --   -0.34589  -0.34521  -0.34453  -0.34176  -0.34108
 Alpha  occ. eigenvalues --   -0.33914  -0.33784  -0.33564  -0.33471  -0.33236
 Alpha  occ. eigenvalues --   -0.33134  -0.33011  -0.32812  -0.32530  -0.32235
 Alpha  occ. eigenvalues --   -0.32044  -0.31993  -0.31747  -0.31676  -0.31395
 Alpha  occ. eigenvalues --   -0.31289  -0.31240  -0.30997  -0.30920  -0.30775
 Alpha  occ. eigenvalues --   -0.30711  -0.30539  -0.30516  -0.30384  -0.30286
 Alpha  occ. eigenvalues --   -0.30039  -0.29863  -0.29405  -0.29245  -0.28994
 Alpha  occ. eigenvalues --   -0.28651  -0.28188  -0.27913  -0.27476  -0.27290
 Alpha  occ. eigenvalues --   -0.27249  -0.26749  -0.26654  -0.26466  -0.26391
 Alpha  occ. eigenvalues --   -0.26275  -0.26200  -0.25865  -0.25729  -0.25440
 Alpha  occ. eigenvalues --   -0.24677  -0.24576  -0.24172  -0.23860  -0.23658
 Alpha  occ. eigenvalues --   -0.23032  -0.22384  -0.22357  -0.21912  -0.21194
 Alpha  occ. eigenvalues --   -0.20697  -0.20194  -0.19039  -0.18733  -0.17486
 Alpha  occ. eigenvalues --   -0.16133
 Alpha virt. eigenvalues --   -0.11722  -0.06998  -0.06148  -0.04627  -0.02932
 Alpha virt. eigenvalues --   -0.02325  -0.01967  -0.01433  -0.01252  -0.00030
 Alpha virt. eigenvalues --    0.00882   0.01342   0.01659   0.02105   0.02365

 Mulliken charges:
               1
     1  Mg   0.690821
     2  C   -0.063988
     3  C   -0.065615
     4  C   -0.023960
     5  C   -0.063262
     6  N   -0.221003
     7  C   -0.023012
     8  C    0.034315
     9  C    0.019473
    10  C    0.002538
    11  C    0.128416
    12  C    0.133273
    13  C    0.074148
    14  C    0.060842
    15  O   -0.152161
    16  O   -0.257876
    17  N   -0.286538
    18  C    0.167277
    19  C   -0.124971
    20  C   -0.011764
    21  C    0.102073
    22  C    0.162008
    23  C   -0.048197
    24  O   -0.137372
    25  C    0.099031
    26  N   -0.158743
    27  C    0.010662
    28  C   -0.041938
    29  C    0.026075
    30  C    0.064788
    31  C    0.151157
    32  C    0.079810
    33  C    0.058345
    34  N   -0.348201
    35  C    0.107186
    36  C   -0.194884
    37  C    0.141728
    38  C    0.088293
    39  C    0.169796
    40  C   -0.103175
    41  O   -0.154309
    42  C    0.136829
    43  C    0.125560
    44  O   -0.173321
    45  O   -0.257440
    46  C    0.207798
    47  C    0.309845
    48  C   -0.101102
    49  C   -0.125083
    50  C    0.162336
    51  C    0.076628
    52  C    0.105728
    53  C    0.095909
    54  C   -0.106186
    55  C    0.121380
    56  C    0.082135
    57  C    0.079596
    58  C    0.100812
    59  C   -0.110046
    60  C    0.167511
    61  C    0.068544
    62  C    0.070564
    63  C    0.106157
    64  C   -0.141511
    65  C    0.100447
    66  C    0.090108
    67  H   -0.060586
    68  H   -0.042289
    69  H   -0.063375
    70  H   -0.025939
    71  H   -0.032487
    72  H   -0.017522
    73  H    0.008365
    74  H   -0.011001
    75  H   -0.020942
    76  H   -0.040096
    77  H    0.023078
    78  H    0.014066
    79  H    0.007237
    80  H   -0.038201
    81  H    0.015448
    82  H    0.005673
    83  H    0.004590
    84  H   -0.006409
    85  H   -0.017155
    86  H   -0.041572
    87  H   -0.001106
    88  H    0.006121
    89  H   -0.012825
    90  H   -0.030370
    91  H   -0.018621
    92  H    0.008037
    93  H   -0.016238
    94  H   -0.007558
    95  H    0.010215
    96  H   -0.011318
    97  H    0.012739
    98  H   -0.008210
    99  H    0.024718
   100  H    0.020690
   101  H    0.005140
   102  H    0.012273
   103  H   -0.009819
   104  H   -0.035998
   105  H   -0.001800
   106  H   -0.012897
   107  H   -0.017079
   108  H   -0.026283
   109  H   -0.036535
   110  H   -0.025403
   111  H   -0.013168
   112  H   -0.026939
   113  H   -0.042561
   114  H   -0.042692
   115  H   -0.020000
   116  H   -0.015505
   117  H   -0.019421
   118  H   -0.032309
   119  H   -0.046301
   120  H   -0.017680
   121  H   -0.034838
   122  H   -0.027988
   123  H   -0.039884
   124  H   -0.048503
   125  H   -0.025016
   126  H   -0.028800
   127  H    0.001649
   128  H   -0.058723
   129  H   -0.037941
   130  H   -0.009535
   131  H   -0.015067
   132  H   -0.032957
   133  H   -0.024381
   134  H   -0.028851
   135  H   -0.028002
   136  H   -0.022097
   137  H   -0.007536
   138  H   -0.004735
   139  H   -0.004150
   140  H   -0.019114
 Sum of Mulliken charges =  -0.00000

 Dipole moment (field-independent basis, Debye):
    X=              3.3602    Y=              2.3979    Z=             -0.6983  Tot=              4.1867
 Quadrupole moment (field-independent basis, Debye-Ang):
   XX=           -383.7905   YY=           -427.4039   ZZ=           -406.9850
   XY=              2.1848   XZ=             24.2114   YZ=              0.5060

 Normal termination of Gaussian 16 at Wed May  4 11:24:01 2022.
