 Gaussian 16, Revision A.03,
 Gaussian 16:  ES64L-G16RevA.03 25-Dec-2016

 -----------------------------------
 #p cam-b3lyp/Def2SVP td=(nstates=5)
 -----------------------------------

 --------------------------------------------------------
 step_1651_chromophore_13 TDDFT with cam-b3lyp functional
 --------------------------------------------------------
 Symbolic Z-matrix:
 Charge =  0 Multiplicity = 1

                         Standard orientation:
 ---------------------------------------------------------------------
 Center     Atomic      Atomic             Coordinates (Angstroms)
 Number     Number       Type             X           Y           Z
 ---------------------------------------------------------------------
      1         12           0       -6.162632    0.140384   -0.046973
      2          6           0       -3.823441   -2.310616    0.067665
      3          6           0       -3.632282    2.562261    0.633461
      4          6           0       -8.618094    2.634654    0.292443
      5          6           0       -8.718030   -2.055815   -0.845351
      6          7           0       -3.985802    0.156469    0.398628
      7          6           0       -3.258638   -1.032067    0.337182
      8          6           0       -1.826106   -0.729716    0.569137
      9          6           0       -1.866392    0.793105    0.971652
     10          6           0       -3.228719    1.259793    0.571972
     11          6           0       -1.558093    1.062672    2.461543
     12          6           0       -0.784035   -1.143879   -0.463602
     13          6           0        0.633621   -1.525484    0.122346
     14          6           0        1.888355   -1.190665   -0.717430
     15          8           0        1.951417   -0.468489   -1.657815
     16          8           0        2.960369   -1.951503   -0.372813
     17          7           0       -6.080187    2.266153    0.343331
     18          6           0       -4.940513    3.030860    0.591696
     19          6           0       -5.351761    4.402764    0.833750
     20          6           0       -6.779009    4.453995    0.809175
     21          6           0       -7.241490    3.033497    0.469060
     22          6           0       -4.338937    5.543495    0.902544
     23          6           0       -7.667197    5.680478    1.176570
     24          8           0       -8.870859    5.669517    1.260734
     25          6           0       -6.928654    7.090708    1.308229
     26          7           0       -8.441434    0.219214   -0.109542
     27          6           0       -9.144864    1.358583   -0.021146
     28          6           0      -10.619636    1.230619   -0.438050
     29          6           0      -10.474063   -0.200448   -1.182847
     30          6           0       -9.121402   -0.765820   -0.728605
     31          6           0      -11.636230    1.103251    0.689311
     32          6           0      -10.630148   -0.127912   -2.768162
     33          6           0       -9.544829    0.573391   -3.610880
     34          7           0       -6.338261   -1.777392   -0.168045
     35          6           0       -7.408748   -2.592217   -0.582203
     36          6           0       -6.879984   -3.928973   -0.771829
     37          6           0       -5.524730   -3.886128   -0.470818
     38          6           0       -5.252420   -2.557482   -0.077325
     39          6           0       -7.727178   -5.136052   -1.172129
     40          6           0       -4.321064   -4.620555   -0.324159
     41          8           0       -4.114610   -5.813418   -0.608755
     42          6           0       -3.190073   -3.637907    0.192678
     43          6           0       -2.726657   -3.948140    1.511688
     44          8           0       -3.352675   -3.704626    2.525355
     45          8           0       -1.431582   -4.327927    1.455859
     46          6           0       -0.730540   -4.569585    2.714118
     47          6           0        4.127523   -1.841606   -1.244165
     48          6           0        5.128916   -0.821034   -0.603712
     49          6           0        6.460487   -0.877320   -0.717305
     50          6           0        7.423618   -1.686338   -1.634946
     51          6           0        7.311675    0.121840    0.123711
     52          6           0        7.573319    1.484621   -0.547434
     53          6           0        8.869244    2.163304   -0.044457
     54          6           0        9.913156    2.492266   -1.130026
     55          6           0        9.451334    3.629525   -2.047257
     56          6           0       10.434704    1.306770   -1.949466
     57          6           0       11.859374    1.525012   -2.481384
     58          6           0       13.014415    0.439005   -2.190418
     59          6           0       14.272575    1.052781   -1.530817
     60          6           0       15.307536    1.499448   -2.560560
     61          6           0       14.793976    0.150709   -0.429500
     62          6           0       14.483927    0.529791    1.052770
     63          6           0       14.211958   -0.778178    1.898383
     64          6           0       12.998491   -0.534074    2.927439
     65          6           0       13.471444   -0.726124    4.387756
     66          6           0       11.640435   -1.285892    2.653690
     67          1           0       -2.827692    3.232043    0.943191
     68          1           0       -9.340724    3.453285    0.326892
     69          1           0       -9.395776   -2.769944   -1.319010
     70          1           0       -1.538051   -1.330955    1.431804
     71          1           0       -1.146101    1.368787    0.390721
     72          1           0       -0.883788    0.323027    2.892667
     73          1           0       -2.492141    1.055620    3.023622
     74          1           0       -0.981034    1.978789    2.584220
     75          1           0       -0.697777   -0.479091   -1.323622
     76          1           0       -1.170520   -2.026430   -0.973388
     77          1           0        0.513191   -2.608777    0.097878
     78          1           0        0.786212   -1.164645    1.139453
     79          1           0       -4.352767    5.942097   -0.111827
     80          1           0       -3.306852    5.200256    0.834427
     81          1           0       -4.355599    6.288501    1.698070
     82          1           0       -6.213941    7.255835    0.502029
     83          1           0       -6.355601    7.080650    2.236019
     84          1           0       -7.667228    7.889797    1.364147
     85          1           0      -10.889294    2.055264   -1.097106
     86          1           0      -11.306593   -0.800705   -0.815989
     87          1           0      -12.282152    0.227924    0.635908
     88          1           0      -12.130075    2.065797    0.824009
     89          1           0      -10.985126    0.924467    1.544814
     90          1           0      -11.449408    0.590925   -2.794308
     91          1           0      -11.038154   -0.996266   -3.284967
     92          1           0       -8.822541    1.068544   -2.961621
     93          1           0       -9.987410    1.335304   -4.251721
     94          1           0       -9.079585   -0.079932   -4.348747
     95          1           0       -7.066926   -5.824545   -1.698854
     96          1           0       -8.532953   -4.755266   -1.799408
     97          1           0       -8.165099   -5.627917   -0.304076
     98          1           0       -2.422803   -3.762368   -0.570869
     99          1           0       -0.619340   -5.626558    2.953779
    100          1           0       -1.096302   -4.023828    3.583900
    101          1           0        0.277235   -4.183734    2.559761
    102          1           0        4.069305   -1.623642   -2.310885
    103          1           0        4.683801   -2.778309   -1.283211
    104          1           0        4.734371   -0.096970    0.110337
    105          1           0        6.843548   -2.238588   -2.374026
    106          1           0        8.101367   -2.217106   -0.965941
    107          1           0        8.212335   -1.071161   -2.069949
    108          1           0        8.270892   -0.274001    0.456893
    109          1           0        6.735932    0.322965    1.027831
    110          1           0        6.799982    2.180054   -0.221440
    111          1           0        7.590876    1.333394   -1.626485
    112          1           0        9.499913    1.658862    0.687098
    113          1           0        8.581197    3.125226    0.379505
    114          1           0       10.818404    2.847608   -0.639148
    115          1           0        9.491056    3.293305   -3.083213
    116          1           0       10.093189    4.488245   -1.850405
    117          1           0        8.429446    3.970621   -1.883943
    118          1           0        9.742936    1.063493   -2.755848
    119          1           0       10.358223    0.357881   -1.418171
    120          1           0       12.225972    2.508414   -2.186343
    121          1           0       11.774379    1.463806   -3.566110
    122          1           0       13.347669   -0.125758   -3.060235
    123          1           0       12.551794   -0.271834   -1.505663
    124          1           0       14.004432    1.882493   -0.877092
    125          1           0       15.491806    2.533481   -2.272391
    126          1           0       14.770180    1.639353   -3.498705
    127          1           0       16.154966    0.814251   -2.567274
    128          1           0       15.883559    0.173124   -0.402989
    129          1           0       14.611045   -0.883238   -0.722884
    130          1           0       13.595690    1.160577    1.020686
    131          1           0       15.342017    1.009077    1.522654
    132          1           0       15.040035   -1.036534    2.557763
    133          1           0       13.994920   -1.621608    1.243506
    134          1           0       12.683183    0.508752    2.924278
    135          1           0       12.876526   -1.515026    4.846651
    136          1           0       13.137101    0.167372    4.915854
    137          1           0       14.537758   -0.929635    4.485668
    138          1           0       10.963831   -0.441875    2.519563
    139          1           0       11.286372   -1.990065    3.406317
    140          1           0       11.770824   -1.822134    1.714605
 ---------------------------------------------------------------------

 SCF Done:  E(RCAM-B3LYP) =  -3007.13993120     A.U. after   18 cycles

 Excitation energies and oscillator strengths:

 Excited State   1:      Singlet-A      1.7521 eV  707.65 nm  f=0.3698  <S**2>=0.000
     245 -> 248        0.18232
     246 -> 247        0.68533
     245 <- 248        0.10739
 This state for optimization and/or second-order correction.
 Total Energy, E(TD-HF/TD-DFT) =  -3007.07554396
 Copying the excited state density for this state as the 1-particle RhoCI density.

 Excited State   2:      Singlet-A      2.2628 eV  547.93 nm  f=0.1192  <S**2>=0.000
     245 -> 247        0.63937
     246 -> 248       -0.28954

 Excited State   3:      Singlet-A      3.4212 eV  362.40 nm  f=0.0192  <S**2>=0.000
     241 -> 247        0.30214
     242 -> 247        0.54543
     243 -> 247       -0.22520
     246 -> 248        0.18680

 Excited State   4:      Singlet-A      3.5413 eV  350.10 nm  f=0.0012  <S**2>=0.000
     241 -> 247        0.34534
     241 -> 249       -0.22238
     241 -> 250        0.17406
     242 -> 247       -0.31012
     242 -> 249        0.18062
     242 -> 250       -0.13729
     243 -> 247       -0.32300
     243 -> 249        0.13046

 Excited State   5:      Singlet-A      3.5917 eV  345.19 nm  f=0.4918  <S**2>=0.000
     239 -> 247        0.20815
     240 -> 247        0.21258
     240 -> 249        0.11549
     242 -> 247       -0.12352
     243 -> 247        0.19309
     245 -> 247        0.23342
     246 -> 248        0.51019

 The electronic state is 1-A.
 Alpha  occ. eigenvalues --  -46.88581 -19.26006 -19.25233 -19.19983 -19.19901
 Alpha  occ. eigenvalues --  -19.19520 -19.18220 -14.41962 -14.41610 -14.40424
 Alpha  occ. eigenvalues --  -14.39375 -10.39507 -10.39125 -10.36296 -10.34557
 Alpha  occ. eigenvalues --  -10.32457 -10.32095 -10.32020 -10.31176 -10.31175
 Alpha  occ. eigenvalues --  -10.31030 -10.30830 -10.29931 -10.29680 -10.29616
 Alpha  occ. eigenvalues --  -10.28951 -10.28480 -10.28479 -10.28236 -10.27919
 Alpha  occ. eigenvalues --  -10.27821 -10.27758 -10.27695 -10.27676 -10.27561
 Alpha  occ. eigenvalues --  -10.27524 -10.27232 -10.27176 -10.27066 -10.26990
 Alpha  occ. eigenvalues --  -10.26889 -10.26652 -10.26448 -10.26437 -10.26306
 Alpha  occ. eigenvalues --  -10.25971 -10.25709 -10.25672 -10.25585 -10.25453
 Alpha  occ. eigenvalues --  -10.25377 -10.25331 -10.25301 -10.25296 -10.25226
 Alpha  occ. eigenvalues --  -10.25213 -10.25119 -10.24901 -10.24846 -10.24810
 Alpha  occ. eigenvalues --  -10.24673 -10.24424 -10.24349 -10.24138 -10.24057
 Alpha  occ. eigenvalues --  -10.24048  -3.17163  -1.92060  -1.91618  -1.91473
 Alpha  occ. eigenvalues --   -1.17993  -1.17417  -1.11448  -1.08728  -1.08531
 Alpha  occ. eigenvalues --   -1.08009  -1.04303  -1.03853  -1.02938  -1.01595
 Alpha  occ. eigenvalues --   -0.93099  -0.90396  -0.89690  -0.89482  -0.88915
 Alpha  occ. eigenvalues --   -0.88518  -0.88185  -0.87740  -0.87040  -0.87011
 Alpha  occ. eigenvalues --   -0.86081  -0.85479  -0.84322  -0.84067  -0.83333
 Alpha  occ. eigenvalues --   -0.82505  -0.81993  -0.81373  -0.80897  -0.80053
 Alpha  occ. eigenvalues --   -0.79685  -0.78302  -0.78163  -0.77312  -0.76448
 Alpha  occ. eigenvalues --   -0.75856  -0.75375  -0.75325  -0.74950  -0.74231
 Alpha  occ. eigenvalues --   -0.73758  -0.72904  -0.71986  -0.70971  -0.69491
 Alpha  occ. eigenvalues --   -0.68828  -0.68523  -0.67324  -0.67097  -0.65765
 Alpha  occ. eigenvalues --   -0.65428  -0.65252  -0.65078  -0.64441  -0.63676
 Alpha  occ. eigenvalues --   -0.63522  -0.62754  -0.62321  -0.61545  -0.60137
 Alpha  occ. eigenvalues --   -0.59949  -0.59815  -0.59650  -0.59275  -0.58412
 Alpha  occ. eigenvalues --   -0.58052  -0.57350  -0.56084  -0.55777  -0.55587
 Alpha  occ. eigenvalues --   -0.55312  -0.55100  -0.54781  -0.54619  -0.54186
 Alpha  occ. eigenvalues --   -0.53801  -0.53736  -0.53349  -0.53265  -0.52933
 Alpha  occ. eigenvalues --   -0.52702  -0.52598  -0.52130  -0.51927  -0.51774
 Alpha  occ. eigenvalues --   -0.51665  -0.51322  -0.51139  -0.50637  -0.50522
 Alpha  occ. eigenvalues --   -0.50472  -0.50092  -0.49861  -0.49808  -0.49512
 Alpha  occ. eigenvalues --   -0.49382  -0.49349  -0.49299  -0.49082  -0.48952
 Alpha  occ. eigenvalues --   -0.48706  -0.48579  -0.48530  -0.48331  -0.47911
 Alpha  occ. eigenvalues --   -0.47873  -0.47192  -0.47053  -0.46886  -0.46654
 Alpha  occ. eigenvalues --   -0.46503  -0.46383  -0.46275  -0.45846  -0.45830
 Alpha  occ. eigenvalues --   -0.45588  -0.45452  -0.45331  -0.45224  -0.45173
 Alpha  occ. eigenvalues --   -0.44692  -0.44632  -0.44450  -0.44148  -0.43923
 Alpha  occ. eigenvalues --   -0.43621  -0.43483  -0.43307  -0.43249  -0.42993
 Alpha  occ. eigenvalues --   -0.42940  -0.42845  -0.42784  -0.42525  -0.42418
 Alpha  occ. eigenvalues --   -0.42243  -0.41995  -0.41892  -0.41739  -0.41648
 Alpha  occ. eigenvalues --   -0.41265  -0.41023  -0.40578  -0.40427  -0.40180
 Alpha  occ. eigenvalues --   -0.39698  -0.39162  -0.38891  -0.38462  -0.38245
 Alpha  occ. eigenvalues --   -0.38215  -0.37621  -0.37536  -0.37455  -0.37364
 Alpha  occ. eigenvalues --   -0.37307  -0.36963  -0.36764  -0.36613  -0.36078
 Alpha  occ. eigenvalues --   -0.35684  -0.35388  -0.34646  -0.34639  -0.34527
 Alpha  occ. eigenvalues --   -0.34110  -0.33903  -0.33181  -0.31482  -0.31228
 Alpha  occ. eigenvalues --   -0.30559  -0.30348  -0.30093  -0.29869  -0.24266
 Alpha  occ. eigenvalues --   -0.21483
 Alpha virt. eigenvalues --   -0.08813  -0.01870   0.00464   0.02370   0.02923
 Alpha virt. eigenvalues --    0.04994   0.05471   0.05729   0.06234   0.06659
 Alpha virt. eigenvalues --    0.06915   0.07691   0.08266   0.08510   0.08833

 Mulliken charges:
               1
     1  Mg   0.823272
     2  C   -0.079768
     3  C   -0.085759
     4  C   -0.043751
     5  C   -0.061497
     6  N   -0.294589
     7  C    0.017973
     8  C   -0.020215
     9  C   -0.041019
    10  C    0.032658
    11  C    0.071732
    12  C    0.081750
    13  C    0.006476
    14  C    0.142173
    15  O   -0.193123
    16  O   -0.321820
    17  N   -0.374351
    18  C    0.183691
    19  C   -0.133938
    20  C   -0.071957
    21  C    0.133326
    22  C    0.096983
    23  C    0.029509
    24  O   -0.175511
    25  C    0.021695
    26  N   -0.225873
    27  C    0.030287
    28  C   -0.092560
    29  C   -0.027354
    30  C    0.068217
    31  C    0.091912
    32  C    0.027084
    33  C   -0.001389
    34  N   -0.440535
    35  C    0.105568
    36  C   -0.193543
    37  C    0.057913
    38  C    0.130800
    39  C    0.124715
    40  C   -0.004171
    41  O   -0.198169
    42  C    0.041957
    43  C    0.215132
    44  O   -0.209702
    45  O   -0.321252
    46  C    0.170502
    47  C    0.274123
    48  C   -0.117013
    49  C   -0.151722
    50  C    0.104879
    51  C    0.021678
    52  C    0.047637
    53  C    0.048551
    54  C   -0.157250
    55  C    0.057188
    56  C    0.032019
    57  C    0.024957
    58  C    0.048647
    59  C   -0.163584
    60  C    0.104249
    61  C    0.014513
    62  C    0.018768
    63  C    0.054170
    64  C   -0.198785
    65  C    0.043421
    66  C    0.038090
    67  H   -0.025690
    68  H   -0.002079
    69  H   -0.027942
    70  H    0.006812
    71  H    0.003720
    72  H    0.007227
    73  H    0.034126
    74  H    0.013193
    75  H    0.013734
    76  H   -0.008878
    77  H    0.054302
    78  H    0.041063
    79  H    0.036911
    80  H   -0.004665
    81  H    0.042975
    82  H    0.033182
    83  H    0.031216
    84  H    0.029435
    85  H    0.016664
    86  H   -0.005374
    87  H    0.024297
    88  H    0.030087
    89  H    0.013540
    90  H   -0.003406
    91  H    0.009896
    92  H    0.025745
    93  H    0.007914
    94  H    0.016820
    95  H    0.035406
    96  H    0.008810
    97  H    0.036936
    98  H    0.036961
    99  H    0.046749
   100  H    0.046140
   101  H    0.025639
   102  H    0.042950
   103  H    0.018771
   104  H   -0.003635
   105  H    0.020732
   106  H    0.012995
   107  H    0.005185
   108  H    0.000024
   109  H   -0.006095
   110  H    0.003498
   111  H    0.012243
   112  H   -0.001476
   113  H   -0.011757
   114  H   -0.010860
   115  H    0.004922
   116  H    0.009162
   117  H    0.005320
   118  H   -0.005613
   119  H   -0.021097
   120  H    0.007988
   121  H   -0.005265
   122  H    0.000962
   123  H   -0.012354
   124  H   -0.016992
   125  H    0.000656
   126  H   -0.003575
   127  H    0.025301
   128  H   -0.026323
   129  H   -0.009723
   130  H    0.013177
   131  H    0.012784
   132  H   -0.004568
   133  H    0.002374
   134  H    0.002242
   135  H   -0.004140
   136  H    0.001996
   137  H    0.015056
   138  H    0.014265
   139  H    0.019155
   140  H    0.002234
 Sum of Mulliken charges =  -0.00000

 Dipole moment (field-independent basis, Debye):
    X=              3.4575    Y=              3.8449    Z=             -0.3707  Tot=              5.1841
 Quadrupole moment (field-independent basis, Debye-Ang):
   XX=           -382.9922   YY=           -422.9274   ZZ=           -406.7866
   XY=             -6.6680   XZ=             24.2193   YZ=              1.6203

 Normal termination of Gaussian 16 at Wed May  4 10:23:32 2022.
