 Gaussian 16, Revision A.03,
 Gaussian 16:  ES64L-G16RevA.03 25-Dec-2016

 ---------------------------------
 #p PBE1PBE/Def2SVP td=(nstates=5)
 ---------------------------------

 ------------------------------------------------------
 step_1651_chromophore_13 TDDFT with PBE1PBE functional
 ------------------------------------------------------
 Symbolic Z-matrix:
 Charge =  0 Multiplicity = 1

                         Standard orientation:
 ---------------------------------------------------------------------
 Center     Atomic      Atomic             Coordinates (Angstroms)
 Number     Number       Type             X           Y           Z
 ---------------------------------------------------------------------
      1         12           0       -6.162632    0.140384   -0.046973
      2          6           0       -3.823441   -2.310616    0.067665
      3          6           0       -3.632282    2.562261    0.633461
      4          6           0       -8.618094    2.634654    0.292443
      5          6           0       -8.718030   -2.055815   -0.845351
      6          7           0       -3.985802    0.156469    0.398628
      7          6           0       -3.258638   -1.032067    0.337182
      8          6           0       -1.826106   -0.729716    0.569137
      9          6           0       -1.866392    0.793105    0.971652
     10          6           0       -3.228719    1.259793    0.571972
     11          6           0       -1.558093    1.062672    2.461543
     12          6           0       -0.784035   -1.143879   -0.463602
     13          6           0        0.633621   -1.525484    0.122346
     14          6           0        1.888355   -1.190665   -0.717430
     15          8           0        1.951417   -0.468489   -1.657815
     16          8           0        2.960369   -1.951503   -0.372813
     17          7           0       -6.080187    2.266153    0.343331
     18          6           0       -4.940513    3.030860    0.591696
     19          6           0       -5.351761    4.402764    0.833750
     20          6           0       -6.779009    4.453995    0.809175
     21          6           0       -7.241490    3.033497    0.469060
     22          6           0       -4.338937    5.543495    0.902544
     23          6           0       -7.667197    5.680478    1.176570
     24          8           0       -8.870859    5.669517    1.260734
     25          6           0       -6.928654    7.090708    1.308229
     26          7           0       -8.441434    0.219214   -0.109542
     27          6           0       -9.144864    1.358583   -0.021146
     28          6           0      -10.619636    1.230619   -0.438050
     29          6           0      -10.474063   -0.200448   -1.182847
     30          6           0       -9.121402   -0.765820   -0.728605
     31          6           0      -11.636230    1.103251    0.689311
     32          6           0      -10.630148   -0.127912   -2.768162
     33          6           0       -9.544829    0.573391   -3.610880
     34          7           0       -6.338261   -1.777392   -0.168045
     35          6           0       -7.408748   -2.592217   -0.582203
     36          6           0       -6.879984   -3.928973   -0.771829
     37          6           0       -5.524730   -3.886128   -0.470818
     38          6           0       -5.252420   -2.557482   -0.077325
     39          6           0       -7.727178   -5.136052   -1.172129
     40          6           0       -4.321064   -4.620555   -0.324159
     41          8           0       -4.114610   -5.813418   -0.608755
     42          6           0       -3.190073   -3.637907    0.192678
     43          6           0       -2.726657   -3.948140    1.511688
     44          8           0       -3.352675   -3.704626    2.525355
     45          8           0       -1.431582   -4.327927    1.455859
     46          6           0       -0.730540   -4.569585    2.714118
     47          6           0        4.127523   -1.841606   -1.244165
     48          6           0        5.128916   -0.821034   -0.603712
     49          6           0        6.460487   -0.877320   -0.717305
     50          6           0        7.423618   -1.686338   -1.634946
     51          6           0        7.311675    0.121840    0.123711
     52          6           0        7.573319    1.484621   -0.547434
     53          6           0        8.869244    2.163304   -0.044457
     54          6           0        9.913156    2.492266   -1.130026
     55          6           0        9.451334    3.629525   -2.047257
     56          6           0       10.434704    1.306770   -1.949466
     57          6           0       11.859374    1.525012   -2.481384
     58          6           0       13.014415    0.439005   -2.190418
     59          6           0       14.272575    1.052781   -1.530817
     60          6           0       15.307536    1.499448   -2.560560
     61          6           0       14.793976    0.150709   -0.429500
     62          6           0       14.483927    0.529791    1.052770
     63          6           0       14.211958   -0.778178    1.898383
     64          6           0       12.998491   -0.534074    2.927439
     65          6           0       13.471444   -0.726124    4.387756
     66          6           0       11.640435   -1.285892    2.653690
     67          1           0       -2.827692    3.232043    0.943191
     68          1           0       -9.340724    3.453285    0.326892
     69          1           0       -9.395776   -2.769944   -1.319010
     70          1           0       -1.538051   -1.330955    1.431804
     71          1           0       -1.146101    1.368787    0.390721
     72          1           0       -0.883788    0.323027    2.892667
     73          1           0       -2.492141    1.055620    3.023622
     74          1           0       -0.981034    1.978789    2.584220
     75          1           0       -0.697777   -0.479091   -1.323622
     76          1           0       -1.170520   -2.026430   -0.973388
     77          1           0        0.513191   -2.608777    0.097878
     78          1           0        0.786212   -1.164645    1.139453
     79          1           0       -4.352767    5.942097   -0.111827
     80          1           0       -3.306852    5.200256    0.834427
     81          1           0       -4.355599    6.288501    1.698070
     82          1           0       -6.213941    7.255835    0.502029
     83          1           0       -6.355601    7.080650    2.236019
     84          1           0       -7.667228    7.889797    1.364147
     85          1           0      -10.889294    2.055264   -1.097106
     86          1           0      -11.306593   -0.800705   -0.815989
     87          1           0      -12.282152    0.227924    0.635908
     88          1           0      -12.130075    2.065797    0.824009
     89          1           0      -10.985126    0.924467    1.544814
     90          1           0      -11.449408    0.590925   -2.794308
     91          1           0      -11.038154   -0.996266   -3.284967
     92          1           0       -8.822541    1.068544   -2.961621
     93          1           0       -9.987410    1.335304   -4.251721
     94          1           0       -9.079585   -0.079932   -4.348747
     95          1           0       -7.066926   -5.824545   -1.698854
     96          1           0       -8.532953   -4.755266   -1.799408
     97          1           0       -8.165099   -5.627917   -0.304076
     98          1           0       -2.422803   -3.762368   -0.570869
     99          1           0       -0.619340   -5.626558    2.953779
    100          1           0       -1.096302   -4.023828    3.583900
    101          1           0        0.277235   -4.183734    2.559761
    102          1           0        4.069305   -1.623642   -2.310885
    103          1           0        4.683801   -2.778309   -1.283211
    104          1           0        4.734371   -0.096970    0.110337
    105          1           0        6.843548   -2.238588   -2.374026
    106          1           0        8.101367   -2.217106   -0.965941
    107          1           0        8.212335   -1.071161   -2.069949
    108          1           0        8.270892   -0.274001    0.456893
    109          1           0        6.735932    0.322965    1.027831
    110          1           0        6.799982    2.180054   -0.221440
    111          1           0        7.590876    1.333394   -1.626485
    112          1           0        9.499913    1.658862    0.687098
    113          1           0        8.581197    3.125226    0.379505
    114          1           0       10.818404    2.847608   -0.639148
    115          1           0        9.491056    3.293305   -3.083213
    116          1           0       10.093189    4.488245   -1.850405
    117          1           0        8.429446    3.970621   -1.883943
    118          1           0        9.742936    1.063493   -2.755848
    119          1           0       10.358223    0.357881   -1.418171
    120          1           0       12.225972    2.508414   -2.186343
    121          1           0       11.774379    1.463806   -3.566110
    122          1           0       13.347669   -0.125758   -3.060235
    123          1           0       12.551794   -0.271834   -1.505663
    124          1           0       14.004432    1.882493   -0.877092
    125          1           0       15.491806    2.533481   -2.272391
    126          1           0       14.770180    1.639353   -3.498705
    127          1           0       16.154966    0.814251   -2.567274
    128          1           0       15.883559    0.173124   -0.402989
    129          1           0       14.611045   -0.883238   -0.722884
    130          1           0       13.595690    1.160577    1.020686
    131          1           0       15.342017    1.009077    1.522654
    132          1           0       15.040035   -1.036534    2.557763
    133          1           0       13.994920   -1.621608    1.243506
    134          1           0       12.683183    0.508752    2.924278
    135          1           0       12.876526   -1.515026    4.846651
    136          1           0       13.137101    0.167372    4.915854
    137          1           0       14.537758   -0.929635    4.485668
    138          1           0       10.963831   -0.441875    2.519563
    139          1           0       11.286372   -1.990065    3.406317
    140          1           0       11.770824   -1.822134    1.714605
 ---------------------------------------------------------------------

 SCF Done:  E(RPBE1PBE) =  -3005.32789799     A.U. after   15 cycles

 Excitation energies and oscillator strengths:

 Excited State   1:      Singlet-A      1.8829 eV  658.48 nm  f=0.3600  <S**2>=0.000
     245 -> 248        0.18030
     246 -> 247        0.69093
     246 <- 247       -0.10106
 This state for optimization and/or second-order correction.
 Total Energy, E(TD-HF/TD-DFT) =  -3005.25870376
 Copying the excited state density for this state as the 1-particle RhoCI density.

 Excited State   2:      Singlet-A      2.2666 eV  547.02 nm  f=0.1149  <S**2>=0.000
     245 -> 247        0.65017
     246 -> 248       -0.26958

 Excited State   3:      Singlet-A      2.9960 eV  413.83 nm  f=0.0003  <S**2>=0.000
     243 -> 247        0.66758
     243 -> 249        0.16913

 Excited State   4:      Singlet-A      3.0884 eV  401.46 nm  f=0.0025  <S**2>=0.000
     241 -> 247       -0.44707
     241 -> 249        0.10607
     242 -> 247        0.52030

 Excited State   5:      Singlet-A      3.1305 eV  396.05 nm  f=0.0012  <S**2>=0.000
     241 -> 247        0.50962
     242 -> 247        0.46763

 The electronic state is 1-A.
 Alpha  occ. eigenvalues --  -46.91983 -19.26702 -19.25970 -19.20179 -19.19918
 Alpha  occ. eigenvalues --  -19.19811 -19.18792 -14.41532 -14.41085 -14.39973
 Alpha  occ. eigenvalues --  -14.39212 -10.36562 -10.36154 -10.33209 -10.31978
 Alpha  occ. eigenvalues --  -10.29922 -10.29437 -10.29366 -10.29078 -10.28684
 Alpha  occ. eigenvalues --  -10.28315 -10.28251 -10.27859 -10.27845 -10.26945
 Alpha  occ. eigenvalues --  -10.26940 -10.26203 -10.26032 -10.25892 -10.25864
 Alpha  occ. eigenvalues --  -10.25610 -10.25592 -10.25587 -10.25411 -10.25324
 Alpha  occ. eigenvalues --  -10.24909 -10.24906 -10.24766 -10.24739 -10.24622
 Alpha  occ. eigenvalues --  -10.24526 -10.24159 -10.24071 -10.23840 -10.23547
 Alpha  occ. eigenvalues --  -10.23400 -10.23400 -10.23253 -10.23149 -10.23021
 Alpha  occ. eigenvalues --  -10.22999 -10.22914 -10.22843 -10.22837 -10.22799
 Alpha  occ. eigenvalues --  -10.22781 -10.22705 -10.22546 -10.22463 -10.22423
 Alpha  occ. eigenvalues --  -10.22389 -10.22094 -10.21812 -10.21636 -10.21519
 Alpha  occ. eigenvalues --  -10.21468  -3.14147  -1.86986  -1.86522  -1.86381
 Alpha  occ. eigenvalues --   -1.12862  -1.12254  -1.05954  -1.03653  -1.03429
 Alpha  occ. eigenvalues --   -1.03000  -0.98977  -0.98444  -0.97793  -0.96002
 Alpha  occ. eigenvalues --   -0.87625  -0.84492  -0.83929  -0.83626  -0.83162
 Alpha  occ. eigenvalues --   -0.82670  -0.82477  -0.82080  -0.81153  -0.81137
 Alpha  occ. eigenvalues --   -0.80566  -0.79707  -0.78653  -0.78288  -0.77557
 Alpha  occ. eigenvalues --   -0.76764  -0.76256  -0.75684  -0.75108  -0.74072
 Alpha  occ. eigenvalues --   -0.73876  -0.72609  -0.72266  -0.71684  -0.70797
 Alpha  occ. eigenvalues --   -0.70071  -0.69649  -0.69488  -0.69096  -0.68410
 Alpha  occ. eigenvalues --   -0.68088  -0.67416  -0.66386  -0.65325  -0.63930
 Alpha  occ. eigenvalues --   -0.63267  -0.62805  -0.61600  -0.61410  -0.60344
 Alpha  occ. eigenvalues --   -0.59746  -0.59634  -0.59459  -0.59017  -0.58120
 Alpha  occ. eigenvalues --   -0.57798  -0.57412  -0.56540  -0.55799  -0.54682
 Alpha  occ. eigenvalues --   -0.54436  -0.54248  -0.54104  -0.53849  -0.53081
 Alpha  occ. eigenvalues --   -0.52490  -0.52021  -0.50594  -0.50388  -0.50041
 Alpha  occ. eigenvalues --   -0.49811  -0.49650  -0.49373  -0.49224  -0.48623
 Alpha  occ. eigenvalues --   -0.48372  -0.48157  -0.48072  -0.47671  -0.47475
 Alpha  occ. eigenvalues --   -0.47219  -0.46952  -0.46716  -0.46424  -0.46298
 Alpha  occ. eigenvalues --   -0.46194  -0.45883  -0.45795  -0.45225  -0.45179
 Alpha  occ. eigenvalues --   -0.44970  -0.44628  -0.44397  -0.44154  -0.44040
 Alpha  occ. eigenvalues --   -0.43980  -0.43909  -0.43865  -0.43693  -0.43595
 Alpha  occ. eigenvalues --   -0.43292  -0.43213  -0.43119  -0.42983  -0.42530
 Alpha  occ. eigenvalues --   -0.42419  -0.41767  -0.41717  -0.41514  -0.41393
 Alpha  occ. eigenvalues --   -0.41273  -0.41152  -0.40885  -0.40648  -0.40489
 Alpha  occ. eigenvalues --   -0.40440  -0.40175  -0.40065  -0.39966  -0.39854
 Alpha  occ. eigenvalues --   -0.39446  -0.39391  -0.39241  -0.38969  -0.38701
 Alpha  occ. eigenvalues --   -0.38421  -0.38223  -0.38065  -0.38009  -0.37774
 Alpha  occ. eigenvalues --   -0.37726  -0.37602  -0.37459  -0.37322  -0.37258
 Alpha  occ. eigenvalues --   -0.37079  -0.36872  -0.36762  -0.36635  -0.36447
 Alpha  occ. eigenvalues --   -0.36170  -0.35798  -0.35352  -0.35333  -0.35093
 Alpha  occ. eigenvalues --   -0.34474  -0.34075  -0.33754  -0.33391  -0.33231
 Alpha  occ. eigenvalues --   -0.33026  -0.32671  -0.32384  -0.32307  -0.32263
 Alpha  occ. eigenvalues --   -0.32255  -0.31858  -0.31754  -0.31442  -0.30961
 Alpha  occ. eigenvalues --   -0.30714  -0.30415  -0.29577  -0.29440  -0.29338
 Alpha  occ. eigenvalues --   -0.29100  -0.29036  -0.28839  -0.27023  -0.26140
 Alpha  occ. eigenvalues --   -0.25943  -0.25757  -0.25509  -0.25141  -0.21192
 Alpha  occ. eigenvalues --   -0.19091
 Alpha virt. eigenvalues --   -0.11315  -0.05385  -0.03809  -0.02054  -0.00075
 Alpha virt. eigenvalues --    0.00465   0.00968   0.01438   0.01802   0.02877
 Alpha virt. eigenvalues --    0.03562   0.03996   0.04687   0.04946   0.05214

 Mulliken charges:
               1
     1  Mg   0.972656
     2  C   -0.083392
     3  C   -0.076111
     4  C   -0.029020
     5  C   -0.054643
     6  N   -0.402004
     7  C    0.086385
     8  C   -0.095692
     9  C   -0.120311
    10  C    0.075037
    11  C    0.015173
    12  C    0.032741
    13  C   -0.075084
    14  C    0.214063
    15  O   -0.226984
    16  O   -0.353197
    17  N   -0.484920
    18  C    0.202586
    19  C   -0.162327
    20  C   -0.114668
    21  C    0.160629
    22  C    0.034889
    23  C    0.079315
    24  O   -0.214496
    25  C   -0.055887
    26  N   -0.329330
    27  C    0.060366
    28  C   -0.163880
    29  C   -0.105130
    30  C    0.103377
    31  C    0.036214
    32  C   -0.034167
    33  C   -0.075124
    34  N   -0.570887
    35  C    0.134975
    36  C   -0.211492
    37  C    0.008456
    38  C    0.192780
    39  C    0.072625
    40  C    0.091406
    41  O   -0.240563
    42  C   -0.085328
    43  C    0.315330
    44  O   -0.245801
    45  O   -0.356413
    46  C    0.116184
    47  C    0.228447
    48  C   -0.125692
    49  C   -0.193509
    50  C    0.036741
    51  C   -0.044010
    52  C   -0.014619
    53  C   -0.010200
    54  C   -0.247060
    55  C    0.000646
    56  C   -0.019936
    57  C   -0.035110
    58  C   -0.009593
    59  C   -0.249915
    60  C    0.040702
    61  C   -0.032191
    62  C   -0.050041
    63  C   -0.000877
    64  C   -0.284171
    65  C   -0.016894
    66  C   -0.023808
    67  H    0.005965
    68  H    0.029017
    69  H    0.004502
    70  H    0.050678
    71  H    0.041071
    72  H    0.034014
    73  H    0.061929
    74  H    0.040202
    75  H    0.045243
    76  H    0.026985
    77  H    0.087745
    78  H    0.071800
    79  H    0.064549
    80  H    0.021982
    81  H    0.067368
    82  H    0.059364
    83  H    0.058437
    84  H    0.056320
    85  H    0.050900
    86  H    0.031938
    87  H    0.049840
    88  H    0.057523
    89  H    0.042718
    90  H    0.032654
    91  H    0.040977
    92  H    0.058036
    93  H    0.036140
    94  H    0.044412
    95  H    0.063819
    96  H    0.037024
    97  H    0.066065
    98  H    0.075301
    99  H    0.068594
   100  H    0.066805
   101  H    0.047260
   102  H    0.069682
   103  H    0.047146
   104  H    0.025480
   105  H    0.047662
   106  H    0.041506
   107  H    0.036215
   108  H    0.032345
   109  H    0.027388
   110  H    0.036249
   111  H    0.044666
   112  H    0.031865
   113  H    0.022627
   114  H    0.028955
   115  H    0.032085
   116  H    0.036308
   117  H    0.032696
   118  H    0.026384
   119  H    0.012504
   120  H    0.038336
   121  H    0.028068
   122  H    0.032896
   123  H    0.022063
   124  H    0.022850
   125  H    0.029065
   126  H    0.025580
   127  H    0.051360
   128  H    0.008362
   129  H    0.021229
   130  H    0.045519
   131  H    0.045316
   132  H    0.028218
   133  H    0.033485
   134  H    0.039789
   135  H    0.023806
   136  H    0.029764
   137  H    0.041026
   138  H    0.042415
   139  H    0.044889
   140  H    0.029782
 Sum of Mulliken charges =  -0.00000

 Dipole moment (field-independent basis, Debye):
    X=              3.4528    Y=              3.1507    Z=             -0.5786  Tot=              4.7099
 Quadrupole moment (field-independent basis, Debye-Ang):
   XX=           -376.9452   YY=           -420.8253   ZZ=           -404.2538
   XY=             -1.7444   XZ=             26.1462   YZ=              1.6843

 Normal termination of Gaussian 16 at Wed May  4 10:39:49 2022.
