 Gaussian 16, Revision A.03,
 Gaussian 16:  ES64L-G16RevA.03 25-Dec-2016

 --------------------------------
 #p wB97XD/Def2SVP td=(nstates=5)
 --------------------------------

 -----------------------------------------------------
 step_1651_chromophore_13 TDDFT with wB97XD functional
 -----------------------------------------------------
 Symbolic Z-matrix:
 Charge =  0 Multiplicity = 1

                         Standard orientation:
 ---------------------------------------------------------------------
 Center     Atomic      Atomic             Coordinates (Angstroms)
 Number     Number       Type             X           Y           Z
 ---------------------------------------------------------------------
      1         12           0       -6.162632    0.140384   -0.046973
      2          6           0       -3.823441   -2.310616    0.067665
      3          6           0       -3.632282    2.562261    0.633461
      4          6           0       -8.618094    2.634654    0.292443
      5          6           0       -8.718030   -2.055815   -0.845351
      6          7           0       -3.985802    0.156469    0.398628
      7          6           0       -3.258638   -1.032067    0.337182
      8          6           0       -1.826106   -0.729716    0.569137
      9          6           0       -1.866392    0.793105    0.971652
     10          6           0       -3.228719    1.259793    0.571972
     11          6           0       -1.558093    1.062672    2.461543
     12          6           0       -0.784035   -1.143879   -0.463602
     13          6           0        0.633621   -1.525484    0.122346
     14          6           0        1.888355   -1.190665   -0.717430
     15          8           0        1.951417   -0.468489   -1.657815
     16          8           0        2.960369   -1.951503   -0.372813
     17          7           0       -6.080187    2.266153    0.343331
     18          6           0       -4.940513    3.030860    0.591696
     19          6           0       -5.351761    4.402764    0.833750
     20          6           0       -6.779009    4.453995    0.809175
     21          6           0       -7.241490    3.033497    0.469060
     22          6           0       -4.338937    5.543495    0.902544
     23          6           0       -7.667197    5.680478    1.176570
     24          8           0       -8.870859    5.669517    1.260734
     25          6           0       -6.928654    7.090708    1.308229
     26          7           0       -8.441434    0.219214   -0.109542
     27          6           0       -9.144864    1.358583   -0.021146
     28          6           0      -10.619636    1.230619   -0.438050
     29          6           0      -10.474063   -0.200448   -1.182847
     30          6           0       -9.121402   -0.765820   -0.728605
     31          6           0      -11.636230    1.103251    0.689311
     32          6           0      -10.630148   -0.127912   -2.768162
     33          6           0       -9.544829    0.573391   -3.610880
     34          7           0       -6.338261   -1.777392   -0.168045
     35          6           0       -7.408748   -2.592217   -0.582203
     36          6           0       -6.879984   -3.928973   -0.771829
     37          6           0       -5.524730   -3.886128   -0.470818
     38          6           0       -5.252420   -2.557482   -0.077325
     39          6           0       -7.727178   -5.136052   -1.172129
     40          6           0       -4.321064   -4.620555   -0.324159
     41          8           0       -4.114610   -5.813418   -0.608755
     42          6           0       -3.190073   -3.637907    0.192678
     43          6           0       -2.726657   -3.948140    1.511688
     44          8           0       -3.352675   -3.704626    2.525355
     45          8           0       -1.431582   -4.327927    1.455859
     46          6           0       -0.730540   -4.569585    2.714118
     47          6           0        4.127523   -1.841606   -1.244165
     48          6           0        5.128916   -0.821034   -0.603712
     49          6           0        6.460487   -0.877320   -0.717305
     50          6           0        7.423618   -1.686338   -1.634946
     51          6           0        7.311675    0.121840    0.123711
     52          6           0        7.573319    1.484621   -0.547434
     53          6           0        8.869244    2.163304   -0.044457
     54          6           0        9.913156    2.492266   -1.130026
     55          6           0        9.451334    3.629525   -2.047257
     56          6           0       10.434704    1.306770   -1.949466
     57          6           0       11.859374    1.525012   -2.481384
     58          6           0       13.014415    0.439005   -2.190418
     59          6           0       14.272575    1.052781   -1.530817
     60          6           0       15.307536    1.499448   -2.560560
     61          6           0       14.793976    0.150709   -0.429500
     62          6           0       14.483927    0.529791    1.052770
     63          6           0       14.211958   -0.778178    1.898383
     64          6           0       12.998491   -0.534074    2.927439
     65          6           0       13.471444   -0.726124    4.387756
     66          6           0       11.640435   -1.285892    2.653690
     67          1           0       -2.827692    3.232043    0.943191
     68          1           0       -9.340724    3.453285    0.326892
     69          1           0       -9.395776   -2.769944   -1.319010
     70          1           0       -1.538051   -1.330955    1.431804
     71          1           0       -1.146101    1.368787    0.390721
     72          1           0       -0.883788    0.323027    2.892667
     73          1           0       -2.492141    1.055620    3.023622
     74          1           0       -0.981034    1.978789    2.584220
     75          1           0       -0.697777   -0.479091   -1.323622
     76          1           0       -1.170520   -2.026430   -0.973388
     77          1           0        0.513191   -2.608777    0.097878
     78          1           0        0.786212   -1.164645    1.139453
     79          1           0       -4.352767    5.942097   -0.111827
     80          1           0       -3.306852    5.200256    0.834427
     81          1           0       -4.355599    6.288501    1.698070
     82          1           0       -6.213941    7.255835    0.502029
     83          1           0       -6.355601    7.080650    2.236019
     84          1           0       -7.667228    7.889797    1.364147
     85          1           0      -10.889294    2.055264   -1.097106
     86          1           0      -11.306593   -0.800705   -0.815989
     87          1           0      -12.282152    0.227924    0.635908
     88          1           0      -12.130075    2.065797    0.824009
     89          1           0      -10.985126    0.924467    1.544814
     90          1           0      -11.449408    0.590925   -2.794308
     91          1           0      -11.038154   -0.996266   -3.284967
     92          1           0       -8.822541    1.068544   -2.961621
     93          1           0       -9.987410    1.335304   -4.251721
     94          1           0       -9.079585   -0.079932   -4.348747
     95          1           0       -7.066926   -5.824545   -1.698854
     96          1           0       -8.532953   -4.755266   -1.799408
     97          1           0       -8.165099   -5.627917   -0.304076
     98          1           0       -2.422803   -3.762368   -0.570869
     99          1           0       -0.619340   -5.626558    2.953779
    100          1           0       -1.096302   -4.023828    3.583900
    101          1           0        0.277235   -4.183734    2.559761
    102          1           0        4.069305   -1.623642   -2.310885
    103          1           0        4.683801   -2.778309   -1.283211
    104          1           0        4.734371   -0.096970    0.110337
    105          1           0        6.843548   -2.238588   -2.374026
    106          1           0        8.101367   -2.217106   -0.965941
    107          1           0        8.212335   -1.071161   -2.069949
    108          1           0        8.270892   -0.274001    0.456893
    109          1           0        6.735932    0.322965    1.027831
    110          1           0        6.799982    2.180054   -0.221440
    111          1           0        7.590876    1.333394   -1.626485
    112          1           0        9.499913    1.658862    0.687098
    113          1           0        8.581197    3.125226    0.379505
    114          1           0       10.818404    2.847608   -0.639148
    115          1           0        9.491056    3.293305   -3.083213
    116          1           0       10.093189    4.488245   -1.850405
    117          1           0        8.429446    3.970621   -1.883943
    118          1           0        9.742936    1.063493   -2.755848
    119          1           0       10.358223    0.357881   -1.418171
    120          1           0       12.225972    2.508414   -2.186343
    121          1           0       11.774379    1.463806   -3.566110
    122          1           0       13.347669   -0.125758   -3.060235
    123          1           0       12.551794   -0.271834   -1.505663
    124          1           0       14.004432    1.882493   -0.877092
    125          1           0       15.491806    2.533481   -2.272391
    126          1           0       14.770180    1.639353   -3.498705
    127          1           0       16.154966    0.814251   -2.567274
    128          1           0       15.883559    0.173124   -0.402989
    129          1           0       14.611045   -0.883238   -0.722884
    130          1           0       13.595690    1.160577    1.020686
    131          1           0       15.342017    1.009077    1.522654
    132          1           0       15.040035   -1.036534    2.557763
    133          1           0       13.994920   -1.621608    1.243506
    134          1           0       12.683183    0.508752    2.924278
    135          1           0       12.876526   -1.515026    4.846651
    136          1           0       13.137101    0.167372    4.915854
    137          1           0       14.537758   -0.929635    4.485668
    138          1           0       10.963831   -0.441875    2.519563
    139          1           0       11.286372   -1.990065    3.406317
    140          1           0       11.770824   -1.822134    1.714605
 ---------------------------------------------------------------------

 SCF Done:  E(RwB97XD) =  -3007.83915091     A.U. after   19 cycles

 Excitation energies and oscillator strengths:

 Excited State   1:      Singlet-A      1.7102 eV  724.98 nm  f=0.3686  <S**2>=0.000
     245 -> 248        0.18562
     246 -> 247        0.68351
     245 <- 248        0.11515
 This state for optimization and/or second-order correction.
 Total Energy, E(TD-HF/TD-DFT) =  -3007.77630330
 Copying the excited state density for this state as the 1-particle RhoCI density.

 Excited State   2:      Singlet-A      2.2108 eV  560.80 nm  f=0.1167  <S**2>=0.000
     245 -> 247        0.63701
     246 -> 248       -0.29104

 Excited State   3:      Singlet-A      3.4246 eV  362.04 nm  f=0.0282  <S**2>=0.000
     239 -> 247        0.10802
     241 -> 247        0.54983
     242 -> 247       -0.32593
     243 -> 247       -0.12277
     246 -> 248        0.21165

 Excited State   4:      Singlet-A      3.5962 eV  344.76 nm  f=0.0721  <S**2>=0.000
     239 -> 247        0.11903
     240 -> 247        0.15900
     240 -> 249        0.10925
     241 -> 247       -0.12487
     242 -> 247       -0.21241
     242 -> 249        0.19365
     242 -> 250       -0.16618
     243 -> 247        0.42809
     243 -> 249       -0.19532
     243 -> 250        0.13580
     246 -> 248        0.20174

 Excited State   5:      Singlet-A      3.6087 eV  343.57 nm  f=0.3457  <S**2>=0.000
     240 -> 247        0.28150
     240 -> 249        0.14035
     240 -> 250        0.10467
     242 -> 247        0.29948
     242 -> 249       -0.14952
     242 -> 250        0.10460
     245 -> 247        0.19857
     246 -> 248        0.41466

 The electronic state is 1-A.
 Alpha  occ. eigenvalues --  -46.94911 -19.31190 -19.30507 -19.25060 -19.24828
 Alpha  occ. eigenvalues --  -19.24424 -19.23229 -14.46555 -14.46200 -14.45088
 Alpha  occ. eigenvalues --  -14.43936 -10.43305 -10.42906 -10.40351 -10.38533
 Alpha  occ. eigenvalues --  -10.36378 -10.36205 -10.35813 -10.35262 -10.35184
 Alpha  occ. eigenvalues --  -10.35178 -10.34899 -10.33878 -10.33866 -10.33630
 Alpha  occ. eigenvalues --  -10.32891 -10.32700 -10.32410 -10.32346 -10.31986
 Alpha  occ. eigenvalues --  -10.31884 -10.31812 -10.31744 -10.31702 -10.31559
 Alpha  occ. eigenvalues --  -10.31555 -10.31294 -10.31223 -10.31091 -10.31043
 Alpha  occ. eigenvalues --  -10.30886 -10.30501 -10.30378 -10.30317 -10.30242
 Alpha  occ. eigenvalues --  -10.29925 -10.29635 -10.29576 -10.29404 -10.29372
 Alpha  occ. eigenvalues --  -10.29284 -10.29270 -10.29236 -10.29182 -10.29166
 Alpha  occ. eigenvalues --  -10.29155 -10.29060 -10.28836 -10.28812 -10.28746
 Alpha  occ. eigenvalues --  -10.28481 -10.28296 -10.28241 -10.27978 -10.27953
 Alpha  occ. eigenvalues --  -10.27869  -3.20937  -1.94525  -1.94061  -1.93915
 Alpha  occ. eigenvalues --   -1.20190  -1.19561  -1.13734  -1.10954  -1.10681
 Alpha  occ. eigenvalues --   -1.10185  -1.06293  -1.05856  -1.04934  -1.03702
 Alpha  occ. eigenvalues --   -0.95045  -0.92162  -0.91545  -0.91279  -0.90884
 Alpha  occ. eigenvalues --   -0.90326  -0.90073  -0.89643  -0.89002  -0.88806
 Alpha  occ. eigenvalues --   -0.87991  -0.87375  -0.86222  -0.85922  -0.85215
 Alpha  occ. eigenvalues --   -0.84366  -0.83871  -0.83328  -0.82786  -0.81989
 Alpha  occ. eigenvalues --   -0.81546  -0.80253  -0.80111  -0.79230  -0.78370
 Alpha  occ. eigenvalues --   -0.77717  -0.77275  -0.77169  -0.76769  -0.76067
 Alpha  occ. eigenvalues --   -0.75672  -0.74863  -0.73960  -0.72919  -0.71399
 Alpha  occ. eigenvalues --   -0.70804  -0.70420  -0.69234  -0.69071  -0.67741
 Alpha  occ. eigenvalues --   -0.67284  -0.67226  -0.67064  -0.66439  -0.65544
 Alpha  occ. eigenvalues --   -0.65452  -0.64718  -0.64158  -0.63400  -0.62057
 Alpha  occ. eigenvalues --   -0.61932  -0.61834  -0.61601  -0.61215  -0.60396
 Alpha  occ. eigenvalues --   -0.59973  -0.59346  -0.57998  -0.57722  -0.57553
 Alpha  occ. eigenvalues --   -0.57259  -0.57034  -0.56750  -0.56585  -0.56074
 Alpha  occ. eigenvalues --   -0.55744  -0.55586  -0.55291  -0.55113  -0.54847
 Alpha  occ. eigenvalues --   -0.54678  -0.54560  -0.54054  -0.53878  -0.53651
 Alpha  occ. eigenvalues --   -0.53561  -0.53206  -0.53035  -0.52510  -0.52385
 Alpha  occ. eigenvalues --   -0.52327  -0.52055  -0.51851  -0.51764  -0.51363
 Alpha  occ. eigenvalues --   -0.51321  -0.51240  -0.51175  -0.50956  -0.50850
 Alpha  occ. eigenvalues --   -0.50675  -0.50502  -0.50413  -0.50248  -0.49875
 Alpha  occ. eigenvalues --   -0.49777  -0.49194  -0.49003  -0.48766  -0.48580
 Alpha  occ. eigenvalues --   -0.48391  -0.48316  -0.48122  -0.47759  -0.47694
 Alpha  occ. eigenvalues --   -0.47468  -0.47324  -0.47223  -0.47150  -0.47054
 Alpha  occ. eigenvalues --   -0.46559  -0.46536  -0.46381  -0.46066  -0.45891
 Alpha  occ. eigenvalues --   -0.45548  -0.45403  -0.45251  -0.45195  -0.44967
 Alpha  occ. eigenvalues --   -0.44884  -0.44775  -0.44736  -0.44418  -0.44355
 Alpha  occ. eigenvalues --   -0.44165  -0.43880  -0.43803  -0.43638  -0.43572
 Alpha  occ. eigenvalues --   -0.43163  -0.42886  -0.42446  -0.42325  -0.42088
 Alpha  occ. eigenvalues --   -0.41546  -0.41077  -0.40785  -0.40362  -0.40166
 Alpha  occ. eigenvalues --   -0.40091  -0.39549  -0.39394  -0.39317  -0.39294
 Alpha  occ. eigenvalues --   -0.39255  -0.38894  -0.38799  -0.38457  -0.37931
 Alpha  occ. eigenvalues --   -0.37623  -0.37296  -0.36535  -0.36497  -0.36425
 Alpha  occ. eigenvalues --   -0.35954  -0.35898  -0.35442  -0.33665  -0.33292
 Alpha  occ. eigenvalues --   -0.32708  -0.32419  -0.32158  -0.31893  -0.26200
 Alpha  occ. eigenvalues --   -0.23308
 Alpha virt. eigenvalues --   -0.07159   0.00033   0.02507   0.04450   0.05956
 Alpha virt. eigenvalues --    0.07212   0.07798   0.08141   0.08611   0.09382
 Alpha virt. eigenvalues --    0.10248   0.10355   0.11463   0.11596   0.11975

 Mulliken charges:
               1
     1  Mg   0.962255
     2  C   -0.085594
     3  C   -0.098479
     4  C   -0.050542
     5  C   -0.067097
     6  N   -0.367650
     7  C    0.056445
     8  C   -0.060942
     9  C   -0.096147
    10  C    0.063133
    11  C    0.024363
    12  C    0.042606
    13  C   -0.055288
    14  C    0.202957
    15  O   -0.224649
    16  O   -0.352168
    17  N   -0.455634
    18  C    0.202809
    19  C   -0.152687
    20  C   -0.108393
    21  C    0.157912
    22  C    0.048113
    23  C    0.075015
    24  O   -0.207279
    25  C   -0.038741
    26  N   -0.292236
    27  C    0.048324
    28  C   -0.142093
    29  C   -0.073875
    30  C    0.083789
    31  C    0.043948
    32  C   -0.020399
    33  C   -0.055423
    34  N   -0.535307
    35  C    0.119865
    36  C   -0.209834
    37  C    0.012339
    38  C    0.167538
    39  C    0.084237
    40  C    0.071681
    41  O   -0.234255
    42  C   -0.038628
    43  C    0.285620
    44  O   -0.239734
    45  O   -0.353240
    46  C    0.131429
    47  C    0.245437
    48  C   -0.137796
    49  C   -0.181462
    50  C    0.055807
    51  C   -0.020047
    52  C   -0.000317
    53  C    0.006832
    54  C   -0.210060
    55  C    0.006892
    56  C   -0.003619
    57  C   -0.019050
    58  C    0.008549
    59  C   -0.215901
    60  C    0.051914
    61  C   -0.021447
    62  C   -0.028112
    63  C    0.015032
    64  C   -0.258086
    65  C   -0.002426
    66  C   -0.009399
    67  H   -0.001329
    68  H    0.025425
    69  H   -0.001223
    70  H    0.029638
    71  H    0.031902
    72  H    0.029010
    73  H    0.056101
    74  H    0.035206
    75  H    0.039169
    76  H    0.015784
    77  H    0.079624
    78  H    0.065146
    79  H    0.059834
    80  H    0.019460
    81  H    0.064697
    82  H    0.053164
    83  H    0.052100
    84  H    0.056252
    85  H    0.042432
    86  H    0.021298
    87  H    0.045555
    88  H    0.053081
    89  H    0.035801
    90  H    0.020653
    91  H    0.035716
    92  H    0.044475
    93  H    0.030592
    94  H    0.039363
    95  H    0.059096
    96  H    0.028748
    97  H    0.059977
    98  H    0.067246
    99  H    0.064974
   100  H    0.063052
   101  H    0.042680
   102  H    0.065378
   103  H    0.041380
   104  H    0.022314
   105  H    0.043229
   106  H    0.035061
   107  H    0.025898
   108  H    0.021579
   109  H    0.019144
   110  H    0.029468
   111  H    0.031804
   112  H    0.022039
   113  H    0.014476
   114  H    0.014824
   115  H    0.025801
   116  H    0.031747
   117  H    0.026909
   118  H    0.015182
   119  H   -0.001800
   120  H    0.027458
   121  H    0.020567
   122  H    0.025551
   123  H    0.009073
   124  H    0.005356
   125  H    0.023793
   126  H    0.018517
   127  H    0.046661
   128  H   -0.000731
   129  H    0.011245
   130  H    0.031808
   131  H    0.038803
   132  H    0.019038
   133  H    0.023287
   134  H    0.026771
   135  H    0.016266
   136  H    0.023955
   137  H    0.034869
   138  H    0.036147
   139  H    0.039421
   140  H    0.022211
 Sum of Mulliken charges =  -0.00000

 Dipole moment (field-independent basis, Debye):
    X=              3.4804    Y=              4.0949    Z=             -0.3622  Tot=              5.3864
 Quadrupole moment (field-independent basis, Debye-Ang):
   XX=           -377.8703   YY=           -418.6268   ZZ=           -403.8267
   XY=             -7.9390   XZ=             24.7266   YZ=              2.0704

 Normal termination of Gaussian 16 at Wed May  4 11:11:59 2022.
