 Gaussian 16, Revision A.03,
 Gaussian 16:  ES64L-G16RevA.03 25-Dec-2016

 --------------------
 #p ZINDO=(nstates=5)
 --------------------

 ------------------------------
 step_1651_chromophore_13 ZINDO
 ------------------------------
 Symbolic Z-matrix:
 Charge =  0 Multiplicity = 1

                         Standard orientation:
 ---------------------------------------------------------------------
 Center     Atomic      Atomic             Coordinates (Angstroms)
 Number     Number       Type             X           Y           Z
 ---------------------------------------------------------------------
      1         12           0       -6.162632    0.140384   -0.046973
      2          6           0       -3.823441   -2.310616    0.067665
      3          6           0       -3.632282    2.562261    0.633461
      4          6           0       -8.618094    2.634654    0.292443
      5          6           0       -8.718030   -2.055815   -0.845351
      6          7           0       -3.985802    0.156469    0.398628
      7          6           0       -3.258638   -1.032067    0.337182
      8          6           0       -1.826106   -0.729716    0.569137
      9          6           0       -1.866392    0.793105    0.971652
     10          6           0       -3.228719    1.259793    0.571972
     11          6           0       -1.558093    1.062672    2.461543
     12          6           0       -0.784035   -1.143879   -0.463602
     13          6           0        0.633621   -1.525484    0.122346
     14          6           0        1.888355   -1.190665   -0.717430
     15          8           0        1.951417   -0.468489   -1.657815
     16          8           0        2.960369   -1.951503   -0.372813
     17          7           0       -6.080187    2.266153    0.343331
     18          6           0       -4.940513    3.030860    0.591696
     19          6           0       -5.351761    4.402764    0.833750
     20          6           0       -6.779009    4.453995    0.809175
     21          6           0       -7.241490    3.033497    0.469060
     22          6           0       -4.338937    5.543495    0.902544
     23          6           0       -7.667197    5.680478    1.176570
     24          8           0       -8.870859    5.669517    1.260734
     25          6           0       -6.928654    7.090708    1.308229
     26          7           0       -8.441434    0.219214   -0.109542
     27          6           0       -9.144864    1.358583   -0.021146
     28          6           0      -10.619636    1.230619   -0.438050
     29          6           0      -10.474063   -0.200448   -1.182847
     30          6           0       -9.121402   -0.765820   -0.728605
     31          6           0      -11.636230    1.103251    0.689311
     32          6           0      -10.630148   -0.127912   -2.768162
     33          6           0       -9.544829    0.573391   -3.610880
     34          7           0       -6.338261   -1.777392   -0.168045
     35          6           0       -7.408748   -2.592217   -0.582203
     36          6           0       -6.879984   -3.928973   -0.771829
     37          6           0       -5.524730   -3.886128   -0.470818
     38          6           0       -5.252420   -2.557482   -0.077325
     39          6           0       -7.727178   -5.136052   -1.172129
     40          6           0       -4.321064   -4.620555   -0.324159
     41          8           0       -4.114610   -5.813418   -0.608755
     42          6           0       -3.190073   -3.637907    0.192678
     43          6           0       -2.726657   -3.948140    1.511688
     44          8           0       -3.352675   -3.704626    2.525355
     45          8           0       -1.431582   -4.327927    1.455859
     46          6           0       -0.730540   -4.569585    2.714118
     47          6           0        4.127523   -1.841606   -1.244165
     48          6           0        5.128916   -0.821034   -0.603712
     49          6           0        6.460487   -0.877320   -0.717305
     50          6           0        7.423618   -1.686338   -1.634946
     51          6           0        7.311675    0.121840    0.123711
     52          6           0        7.573319    1.484621   -0.547434
     53          6           0        8.869244    2.163304   -0.044457
     54          6           0        9.913156    2.492266   -1.130026
     55          6           0        9.451334    3.629525   -2.047257
     56          6           0       10.434704    1.306770   -1.949466
     57          6           0       11.859374    1.525012   -2.481384
     58          6           0       13.014415    0.439005   -2.190418
     59          6           0       14.272575    1.052781   -1.530817
     60          6           0       15.307536    1.499448   -2.560560
     61          6           0       14.793976    0.150709   -0.429500
     62          6           0       14.483927    0.529791    1.052770
     63          6           0       14.211958   -0.778178    1.898383
     64          6           0       12.998491   -0.534074    2.927439
     65          6           0       13.471444   -0.726124    4.387756
     66          6           0       11.640435   -1.285892    2.653690
     67          1           0       -2.827692    3.232043    0.943191
     68          1           0       -9.340724    3.453285    0.326892
     69          1           0       -9.395776   -2.769944   -1.319010
     70          1           0       -1.538051   -1.330955    1.431804
     71          1           0       -1.146101    1.368787    0.390721
     72          1           0       -0.883788    0.323027    2.892667
     73          1           0       -2.492141    1.055620    3.023622
     74          1           0       -0.981034    1.978789    2.584220
     75          1           0       -0.697777   -0.479091   -1.323622
     76          1           0       -1.170520   -2.026430   -0.973388
     77          1           0        0.513191   -2.608777    0.097878
     78          1           0        0.786212   -1.164645    1.139453
     79          1           0       -4.352767    5.942097   -0.111827
     80          1           0       -3.306852    5.200256    0.834427
     81          1           0       -4.355599    6.288501    1.698070
     82          1           0       -6.213941    7.255835    0.502029
     83          1           0       -6.355601    7.080650    2.236019
     84          1           0       -7.667228    7.889797    1.364147
     85          1           0      -10.889294    2.055264   -1.097106
     86          1           0      -11.306593   -0.800705   -0.815989
     87          1           0      -12.282152    0.227924    0.635908
     88          1           0      -12.130075    2.065797    0.824009
     89          1           0      -10.985126    0.924467    1.544814
     90          1           0      -11.449408    0.590925   -2.794308
     91          1           0      -11.038154   -0.996266   -3.284967
     92          1           0       -8.822541    1.068544   -2.961621
     93          1           0       -9.987410    1.335304   -4.251721
     94          1           0       -9.079585   -0.079932   -4.348747
     95          1           0       -7.066926   -5.824545   -1.698854
     96          1           0       -8.532953   -4.755266   -1.799408
     97          1           0       -8.165099   -5.627917   -0.304076
     98          1           0       -2.422803   -3.762368   -0.570869
     99          1           0       -0.619340   -5.626558    2.953779
    100          1           0       -1.096302   -4.023828    3.583900
    101          1           0        0.277235   -4.183734    2.559761
    102          1           0        4.069305   -1.623642   -2.310885
    103          1           0        4.683801   -2.778309   -1.283211
    104          1           0        4.734371   -0.096970    0.110337
    105          1           0        6.843548   -2.238588   -2.374026
    106          1           0        8.101367   -2.217106   -0.965941
    107          1           0        8.212335   -1.071161   -2.069949
    108          1           0        8.270892   -0.274001    0.456893
    109          1           0        6.735932    0.322965    1.027831
    110          1           0        6.799982    2.180054   -0.221440
    111          1           0        7.590876    1.333394   -1.626485
    112          1           0        9.499913    1.658862    0.687098
    113          1           0        8.581197    3.125226    0.379505
    114          1           0       10.818404    2.847608   -0.639148
    115          1           0        9.491056    3.293305   -3.083213
    116          1           0       10.093189    4.488245   -1.850405
    117          1           0        8.429446    3.970621   -1.883943
    118          1           0        9.742936    1.063493   -2.755848
    119          1           0       10.358223    0.357881   -1.418171
    120          1           0       12.225972    2.508414   -2.186343
    121          1           0       11.774379    1.463806   -3.566110
    122          1           0       13.347669   -0.125758   -3.060235
    123          1           0       12.551794   -0.271834   -1.505663
    124          1           0       14.004432    1.882493   -0.877092
    125          1           0       15.491806    2.533481   -2.272391
    126          1           0       14.770180    1.639353   -3.498705
    127          1           0       16.154966    0.814251   -2.567274
    128          1           0       15.883559    0.173124   -0.402989
    129          1           0       14.611045   -0.883238   -0.722884
    130          1           0       13.595690    1.160577    1.020686
    131          1           0       15.342017    1.009077    1.522654
    132          1           0       15.040035   -1.036534    2.557763
    133          1           0       13.994920   -1.621608    1.243506
    134          1           0       12.683183    0.508752    2.924278
    135          1           0       12.876526   -1.515026    4.846651
    136          1           0       13.137101    0.167372    4.915854
    137          1           0       14.537758   -0.929635    4.485668
    138          1           0       10.963831   -0.441875    2.519563
    139          1           0       11.286372   -1.990065    3.406317
    140          1           0       11.770824   -1.822134    1.714605
 ---------------------------------------------------------------------

 SCF Done:  E(RZINDO/S) =  -474.190479418     A.U. after   19 cycles

 Excitation energies and oscillator strengths:

 Excited State   1:      Singlet-A      1.3435 eV  922.84 nm  f=0.5473  <S**2>=0.000
     175 ->178         0.16488
     176 ->177         0.67125
 This state for optimization and/or second-order correction.
 Total Energy, E(CIS/TDA) =  -474.141106650
 Copying the excited state density for this state as the 1-particle RhoCI density.

 Excited State   2:      Singlet-A      1.9630 eV  631.59 nm  f=0.0540  <S**2>=0.000
     175 ->177         0.54834
     176 ->178        -0.41188

 Excited State   3:      Singlet-A      2.9922 eV  414.36 nm  f=0.7782  <S**2>=0.000
     175 ->177         0.34496
     176 ->178         0.46072
     176 ->179        -0.23496
     176 ->180        -0.19219

 Excited State   4:      Singlet-A      3.0664 eV  404.33 nm  f=0.0860  <S**2>=0.000
     167 ->177         0.18832
     167 ->179        -0.28322
     167 ->180         0.16311
     167 ->185        -0.15233
     168 ->177         0.17274
     168 ->179        -0.17157
     168 ->180         0.13659
     171 ->177        -0.14039
     171 ->179        -0.16435
     171 ->180        -0.20116
     171 ->185        -0.11340
     176 ->178         0.12918
     176 ->179         0.18244

 Excited State   5:      Singlet-A      3.0729 eV  403.47 nm  f=0.1495  <S**2>=0.000
     167 ->177         0.16895
     167 ->179        -0.21953
     167 ->180         0.15597
     167 ->185        -0.11405
     168 ->177         0.10633
     168 ->179        -0.18083
     171 ->177         0.19614
     171 ->179         0.19911
     171 ->180         0.26467
     171 ->183         0.10116
     171 ->185         0.13901
     175 ->177        -0.13435
     176 ->178        -0.18624

 The electronic state is 1-A.
 Alpha  occ. eigenvalues --   -1.84700  -1.81221  -1.78910  -1.74668  -1.73665
 Alpha  occ. eigenvalues --   -1.70118  -1.65389  -1.60930  -1.58494  -1.58345
 Alpha  occ. eigenvalues --   -1.53598  -1.51288  -1.48710  -1.48492  -1.44792
 Alpha  occ. eigenvalues --   -1.43932  -1.42845  -1.39908  -1.39027  -1.37854
 Alpha  occ. eigenvalues --   -1.36485  -1.33063  -1.32401  -1.32062  -1.29750
 Alpha  occ. eigenvalues --   -1.26901  -1.24473  -1.22255  -1.20518  -1.18882
 Alpha  occ. eigenvalues --   -1.16867  -1.15570  -1.15300  -1.13735  -1.12517
 Alpha  occ. eigenvalues --   -1.12269  -1.11298  -1.11192  -1.05139  -1.04750
 Alpha  occ. eigenvalues --   -1.03860  -1.01416  -0.99933  -0.97970  -0.97917
 Alpha  occ. eigenvalues --   -0.96623  -0.94882  -0.93402  -0.92864  -0.92543
 Alpha  occ. eigenvalues --   -0.90428  -0.90183  -0.87654  -0.86638  -0.85428
 Alpha  occ. eigenvalues --   -0.85005  -0.84301  -0.83254  -0.81665  -0.80801
 Alpha  occ. eigenvalues --   -0.80191  -0.79613  -0.76981  -0.76448  -0.76243
 Alpha  occ. eigenvalues --   -0.75451  -0.75021  -0.74972  -0.74773  -0.74602
 Alpha  occ. eigenvalues --   -0.73073  -0.72707  -0.71857  -0.70917  -0.70727
 Alpha  occ. eigenvalues --   -0.70394  -0.68825  -0.68277  -0.68204  -0.68112
 Alpha  occ. eigenvalues --   -0.67306  -0.67081  -0.66525  -0.65990  -0.65733
 Alpha  occ. eigenvalues --   -0.65229  -0.64967  -0.64768  -0.64384  -0.63897
 Alpha  occ. eigenvalues --   -0.63198  -0.62921  -0.62367  -0.62162  -0.61907
 Alpha  occ. eigenvalues --   -0.61024  -0.60889  -0.60622  -0.60464  -0.60384
 Alpha  occ. eigenvalues --   -0.60099  -0.59858  -0.58992  -0.58870  -0.58737
 Alpha  occ. eigenvalues --   -0.57922  -0.57849  -0.57347  -0.56778  -0.56423
 Alpha  occ. eigenvalues --   -0.55981  -0.55589  -0.55203  -0.54813  -0.54627
 Alpha  occ. eigenvalues --   -0.54316  -0.53876  -0.53334  -0.52938  -0.52914
 Alpha  occ. eigenvalues --   -0.52585  -0.52434  -0.52006  -0.51698  -0.51399
 Alpha  occ. eigenvalues --   -0.51307  -0.51254  -0.51002  -0.50638  -0.50491
 Alpha  occ. eigenvalues --   -0.49941  -0.49862  -0.49496  -0.49191  -0.49130
 Alpha  occ. eigenvalues --   -0.48842  -0.48359  -0.48160  -0.47977  -0.47717
 Alpha  occ. eigenvalues --   -0.47170  -0.46940  -0.46699  -0.46510  -0.46167
 Alpha  occ. eigenvalues --   -0.46096  -0.45772  -0.45277  -0.45177  -0.44930
 Alpha  occ. eigenvalues --   -0.44862  -0.44574  -0.44274  -0.44131  -0.43929
 Alpha  occ. eigenvalues --   -0.43487  -0.43463  -0.42405  -0.41931  -0.41754
 Alpha  occ. eigenvalues --   -0.41576  -0.41353  -0.41322  -0.39051  -0.38885
 Alpha  occ. eigenvalues --   -0.38161  -0.37082  -0.36208  -0.34651  -0.34268
 Alpha  occ. eigenvalues --   -0.33940  -0.32501  -0.32455  -0.31958  -0.26826
 Alpha  occ. eigenvalues --   -0.22058
 Alpha virt. eigenvalues --   -0.08422  -0.02080  -0.00620   0.01380   0.02379
 Alpha virt. eigenvalues --    0.02616   0.02931   0.03207   0.04436   0.05047
 Alpha virt. eigenvalues --    0.05580   0.06346   0.06785   0.07496   0.07997

 Mulliken charges:
               1
     1  Mg   0.429736
     2  C   -0.039598
     3  C   -0.084497
     4  C   -0.075148
     5  C   -0.050524
     6  N   -0.296274
     7  C    0.096621
     8  C    0.009427
     9  C    0.009064
    10  C    0.183925
    11  C   -0.046311
    12  C   -0.024362
    13  C   -0.001989
    14  C    0.469768
    15  O   -0.506106
    16  O   -0.264567
    17  N   -0.341429
    18  C    0.153773
    19  C    0.028122
    20  C   -0.041685
    21  C    0.146542
    22  C   -0.050505
    23  C    0.324332
    24  O   -0.489194
    25  C   -0.035724
    26  N   -0.273820
    27  C    0.180426
    28  C   -0.000285
    29  C   -0.000563
    30  C    0.100409
    31  C   -0.050283
    32  C   -0.038234
    33  C   -0.052292
    34  N   -0.303490
    35  C    0.045711
    36  C    0.013916
    37  C   -0.054722
    38  C    0.101736
    39  C   -0.044159
    40  C    0.329184
    41  O   -0.552218
    42  C    0.068643
    43  C    0.506363
    44  O   -0.532488
    45  O   -0.264934
    46  C    0.074484
    47  C    0.103757
    48  C   -0.081646
    49  C   -0.019178
    50  C   -0.050304
    51  C   -0.032570
    52  C   -0.025772
    53  C   -0.036044
    54  C   -0.010734
    55  C   -0.057681
    56  C   -0.027785
    57  C   -0.042945
    58  C   -0.038050
    59  C   -0.016509
    60  C   -0.059969
    61  C   -0.042390
    62  C   -0.035092
    63  C   -0.042305
    64  C   -0.030192
    65  C   -0.063681
    66  C   -0.062375
    67  H    0.028006
    68  H    0.047140
    69  H    0.024660
    70  H    0.027595
    71  H    0.021728
    72  H    0.017732
    73  H    0.031698
    74  H    0.018798
    75  H    0.032334
    76  H    0.018105
    77  H    0.044242
    78  H    0.047406
    79  H    0.034296
    80  H    0.017602
    81  H    0.044085
    82  H    0.035257
    83  H    0.033949
    84  H    0.039882
    85  H    0.035788
    86  H    0.024471
    87  H    0.033654
    88  H    0.026905
    89  H    0.019968
    90  H    0.002558
    91  H    0.031487
    92  H    0.026777
    93  H    0.013358
    94  H    0.021545
    95  H    0.034170
    96  H    0.020618
    97  H    0.034848
    98  H    0.045974
    99  H    0.046761
   100  H    0.049874
   101  H    0.019949
   102  H    0.061872
   103  H    0.030185
   104  H    0.040498
   105  H    0.030555
   106  H    0.032608
   107  H    0.030265
   108  H    0.022989
   109  H    0.011142
   110  H    0.022289
   111  H    0.029994
   112  H    0.020761
   113  H    0.010718
   114  H    0.011493
   115  H    0.019144
   116  H    0.017053
   117  H    0.016801
   118  H    0.013319
   119  H    0.010369
   120  H    0.026577
   121  H    0.011488
   122  H    0.025257
   123  H    0.012123
   124  H    0.017809
   125  H    0.018167
   126  H    0.018796
   127  H    0.036985
   128  H    0.000670
   129  H    0.019041
   130  H    0.027299
   131  H    0.027371
   132  H    0.024138
   133  H    0.025810
   134  H    0.016638
   135  H    0.014553
   136  H    0.014496
   137  H    0.027355
   138  H    0.019533
   139  H    0.029150
   140  H    0.016151
 Sum of Mulliken charges =  -0.00000

 Dipole moment (field-independent basis, Debye):
    X=              5.1840    Y=              8.5438    Z=             -0.0587  Tot=              9.9937
 N-N= 4.233590633784D+03 E-N= 0.000000000000D+00  KE=-9.141440568422D+03
 Leave Link  601 at Wed May  4 11:24:08 2022, MaxMem=  6710886400 cpu:               0.8 elap:               0.0
 (Enter /sw/apps/gaussian-16.0/g16/l9999.exe)
 1\1\GINC-BP1-COMPUTE092\SP\RZINDO CIS\STO-3G\C55H74Mg1N4O6\OF15641\04-
 May-2022\0\\#p ZINDO=(nstates=5)\\step_1651_chromophore_13 ZINDO\\0,1\
 Mg,0,47.979,25.481,28.409\C,0,48.299,27.443,31.155\C,0,46.892,22.788,3
 0.482\C,0,48.075,23.299,25.653\C,0,48.885,28.022,26.238\N,0,47.704,25.
 09,30.579\C,0,47.88,26.126,31.496\C,0,47.535,25.631,32.85\C,0,47.323,2
 4.09,32.599\C,0,47.209,23.955,31.115\C,0,48.431,23.193,33.195\C,0,46.4
 73,26.349,33.675\C,0,46.701,26.324,35.239\C,0,45.46,26.266,36.16\O,0,4

 Normal termination of Gaussian 16 at Wed May  4 11:24:09 2022.
