 Gaussian 16, Revision A.03,
 Gaussian 16:  ES64L-G16RevA.03 25-Dec-2016

 ------------------------------
 #p blyp/Def2SVP td=(nstates=5)
 ------------------------------

 ---------------------------------------------------
 step_1451_chromophore_16 TDDFT with blyp functional
 ---------------------------------------------------
 Symbolic Z-matrix:
 Charge =  0 Multiplicity = 1

                         Standard orientation:
 ---------------------------------------------------------------------
 Center     Atomic      Atomic             Coordinates (Angstroms)
 Number     Number       Type             X           Y           Z
 ---------------------------------------------------------------------
      1         12           0        6.325469    0.516204    0.460075
      2          6           0        4.062459   -2.191498    0.209727
      3          6           0        3.997951    2.531955   -1.112923
      4          6           0        8.579651    3.070439    0.427246
      5          6           0        8.699520   -1.594987    1.728705
      6          7           0        4.165637    0.239234   -0.177584
      7          6           0        3.449662   -0.951982   -0.152268
      8          6           0        2.036637   -0.667874   -0.807231
      9          6           0        2.197483    0.698950   -1.472671
     10          6           0        3.524839    1.208745   -0.921651
     11          6           0        1.991327    0.832618   -2.993116
     12          6           0        0.802226   -0.855486    0.158009
     13          6           0       -0.001008   -2.090356   -0.172751
     14          6           0       -0.934301   -2.111237   -1.369227
     15          8           0       -0.645416   -2.334686   -2.570431
     16          8           0       -2.283630   -1.877679   -0.972404
     17          7           0        6.175663    2.640163   -0.062407
     18          6           0        5.130234    3.279266   -0.642596
     19          6           0        5.500422    4.655630   -0.928028
     20          6           0        6.874785    4.752439   -0.521554
     21          6           0        7.273667    3.487088    0.003593
     22          6           0        4.457957    5.697261   -1.516167
     23          6           0        7.774777    5.989083   -0.661194
     24          8           0        8.908360    6.010245   -0.121801
     25          6           0        7.304958    7.255765   -1.291281
     26          7           0        8.317453    0.693468    0.764118
     27          6           0        9.063975    1.825904    0.651988
     28          6           0       10.514903    1.549515    1.050255
     29          6           0       10.484544    0.101816    1.636744
     30          6           0        9.035637   -0.304690    1.419938
     31          6           0       11.521094    1.691320   -0.114376
     32          6           0       11.087157   -0.103516    3.013574
     33          6           0       10.269078    0.630827    4.173266
     34          7           0        6.399854   -1.501422    1.021338
     35          6           0        7.444291   -2.246986    1.468617
     36          6           0        7.022689   -3.632382    1.656213
     37          6           0        5.685111   -3.691707    1.191481
     38          6           0        5.389242   -2.337139    0.756647
     39          6           0        7.942951   -4.717626    2.145204
     40          6           0        4.511718   -4.507147    0.923018
     41          8           0        4.253701   -5.683843    1.221571
     42          6           0        3.440462   -3.585855    0.218575
     43          6           0        3.186946   -4.231383   -1.127998
     44          8           0        3.996889   -4.318408   -2.002265
     45          8           0        1.873942   -4.609783   -1.263568
     46          6           0        1.403025   -5.024982   -2.661767
     47          6           0       -3.160377   -2.054192   -2.133512
     48          6           0       -4.512630   -1.545610   -1.617680
     49          6           0       -5.588118   -2.228012   -1.273309
     50          6           0       -5.559516   -3.746052   -1.262881
     51          6           0       -6.847980   -1.623220   -0.722103
     52          6           0       -7.564194   -0.514606   -1.578263
     53          6           0       -7.893244    0.715936   -0.684911
     54          6           0       -9.180372    1.440982   -1.055228
     55          6           0       -9.184213    2.950938   -0.708451
     56          6           0      -10.318120    0.618214   -0.371940
     57          6           0      -11.494032    0.365557   -1.239501
     58          6           0      -12.606672    1.401423   -0.885156
     59          6           0      -13.929525    0.896324   -0.202861
     60          6           0      -14.911608    0.477293   -1.329003
     61          6           0      -14.604645    1.872663    0.856680
     62          6           0      -15.014239    1.228661    2.196187
     63          6           0      -16.317823    1.754985    2.897700
     64          6           0      -17.440575    0.717225    3.062000
     65          6           0      -18.417906    0.995421    4.235084
     66          6           0      -18.224750    0.651277    1.697065
     67          1           0        3.263579    3.152259   -1.629575
     68          1           0        9.367829    3.822927    0.360925
     69          1           0        9.423141   -2.178491    2.302138
     70          1           0        1.930388   -1.338147   -1.659933
     71          1           0        1.472929    1.356178   -0.990288
     72          1           0        2.531548    1.731715   -3.291024
     73          1           0        0.911197    0.929825   -3.106692
     74          1           0        2.145726   -0.058453   -3.601081
     75          1           0        0.148790    0.017415    0.145384
     76          1           0        1.203982   -0.951873    1.165979
     77          1           0       -0.517465   -2.429795    0.726245
     78          1           0        0.727253   -2.818515   -0.529456
     79          1           0        4.248705    6.541104   -0.858285
     80          1           0        3.592962    5.199854   -1.954339
     81          1           0        4.992200    6.031817   -2.405426
     82          1           0        8.107564    7.987300   -1.387995
     83          1           0        6.574287    7.794548   -0.688787
     84          1           0        6.922942    6.995761   -2.278933
     85          1           0       10.901635    2.219037    1.818492
     86          1           0       11.041670   -0.602499    1.019721
     87          1           0       12.337802    2.358839    0.156747
     88          1           0       10.983736    2.131537   -0.953856
     89          1           0       11.970531    0.710421   -0.267397
     90          1           0       12.125646    0.223911    3.069624
     91          1           0       11.044334   -1.136861    3.356226
     92          1           0        9.519050    1.356543    3.859665
     93          1           0       10.924423    1.400606    4.580702
     94          1           0        9.901740   -0.007724    4.976784
     95          1           0        8.776664   -4.309512    2.717341
     96          1           0        8.352406   -5.084084    1.204787
     97          1           0        7.376869   -5.503893    2.644494
     98          1           0        2.469957   -3.572924    0.715319
     99          1           0        1.609541   -4.251144   -3.401102
    100          1           0        0.315655   -5.068647   -2.602500
    101          1           0        1.805107   -5.951136   -3.074463
    102          1           0       -3.176565   -3.042543   -2.594703
    103          1           0       -2.831215   -1.350195   -2.897948
    104          1           0       -4.617587   -0.460153   -1.644745
    105          1           0       -5.811485   -4.258362   -0.333925
    106          1           0       -4.631113   -4.211286   -1.593506
    107          1           0       -6.268520   -4.055720   -2.030402
    108          1           0       -6.655979   -1.405335    0.328814
    109          1           0       -7.593134   -2.416694   -0.669681
    110          1           0       -8.425892   -0.984083   -2.052617
    111          1           0       -6.834221   -0.216000   -2.330504
    112          1           0       -7.074567    1.436612   -0.680142
    113          1           0       -7.968101    0.451194    0.369602
    114          1           0       -9.285824    1.376152   -2.138199
    115          1           0       -8.288331    3.227561   -0.152001
    116          1           0      -10.081539    3.256946   -0.170386
    117          1           0       -9.190027    3.672575   -1.524740
    118          1           0      -10.699327    1.186097    0.477076
    119          1           0       -9.902382   -0.326196   -0.021983
    120          1           0      -11.846699   -0.657506   -1.108086
    121          1           0      -11.276624    0.461651   -2.303141
    122          1           0      -13.000061    1.792852   -1.824243
    123          1           0      -12.216767    2.359493   -0.541134
    124          1           0      -13.726608   -0.080610    0.236087
    125          1           0      -15.919256    0.298990   -0.953862
    126          1           0      -14.603743   -0.499429   -1.703199
    127          1           0      -14.920361    1.190970   -2.151925
    128          1           0      -15.409624    2.501501    0.475335
    129          1           0      -13.764036    2.506496    1.139244
    130          1           0      -14.269019    1.191565    2.990802
    131          1           0      -15.206016    0.204721    1.873881
    132          1           0      -16.738811    2.676462    2.494073
    133          1           0      -16.046816    1.923047    3.939634
    134          1           0      -16.935519   -0.244064    3.162904
    135          1           0      -18.357644    2.062113    4.451598
    136          1           0      -17.967566    0.492514    5.090653
    137          1           0      -19.399947    0.583219    4.007018
    138          1           0      -19.165954    1.184900    1.827690
    139          1           0      -18.600427   -0.348167    1.481104
    140          1           0      -17.676836    0.917537    0.792647
 ---------------------------------------------------------------------

 SCF Done:  E(RB-LYP) =  -3007.39039884     A.U. after   21 cycles

 Excitation energies and oscillator strengths:

 Excited State   1:      Singlet-A      1.7661 eV  702.03 nm  f=0.0625  <S**2>=0.000
     244 -> 247        0.63423
     246 -> 247       -0.29250
 This state for optimization and/or second-order correction.
 Total Energy, E(TD-HF/TD-DFT) =  -3007.32549609
 Copying the excited state density for this state as the 1-particle RhoCI density.

 Excited State   2:      Singlet-A      1.7837 eV  695.10 nm  f=0.1827  <S**2>=0.000
     243 -> 247        0.23537
     244 -> 247        0.30606
     245 -> 247       -0.17719
     245 -> 248       -0.15015
     246 -> 247        0.55459
     246 <- 247       -0.12636

 Excited State   3:      Singlet-A      1.8495 eV  670.38 nm  f=0.1200  <S**2>=0.000
     243 -> 247        0.49885
     245 -> 247       -0.37888
     246 -> 247       -0.30172

 Excited State   4:      Singlet-A      1.9909 eV  622.76 nm  f=0.0676  <S**2>=0.000
     243 -> 247        0.42851
     245 -> 247        0.51469
     246 -> 248        0.19505

 Excited State   5:      Singlet-A      2.3814 eV  520.65 nm  f=0.0002  <S**2>=0.000
     241 -> 247        0.70401

 The electronic state is 1-A.
 Alpha  occ. eigenvalues --  -46.27276 -18.82278 -18.82083 -18.78321 -18.76303
 Alpha  occ. eigenvalues --  -18.75558 -18.75334 -14.03647 -14.03012 -14.01270
 Alpha  occ. eigenvalues --  -14.00752 -10.04985 -10.03530 -10.00001  -9.99897
 Alpha  occ. eigenvalues --   -9.97647  -9.97570  -9.97434  -9.96883  -9.96334
 Alpha  occ. eigenvalues --   -9.95893  -9.95757  -9.95701  -9.95610  -9.95271
 Alpha  occ. eigenvalues --   -9.94747  -9.94430  -9.94218  -9.94157  -9.94152
 Alpha  occ. eigenvalues --   -9.94130  -9.93916  -9.93860  -9.93593  -9.93374
 Alpha  occ. eigenvalues --   -9.93204  -9.93142  -9.93109  -9.92942  -9.92669
 Alpha  occ. eigenvalues --   -9.92656  -9.92580  -9.92575  -9.92391  -9.92361
 Alpha  occ. eigenvalues --   -9.92188  -9.92070  -9.91907  -9.91841  -9.91808
 Alpha  occ. eigenvalues --   -9.91791  -9.91770  -9.91631  -9.91538  -9.91341
 Alpha  occ. eigenvalues --   -9.91331  -9.91268  -9.91185  -9.91147  -9.91101
 Alpha  occ. eigenvalues --   -9.91024  -9.90923  -9.90921  -9.90749  -9.90615
 Alpha  occ. eigenvalues --   -9.90414  -2.91827  -1.72273  -1.71661  -1.71576
 Alpha  occ. eigenvalues --   -0.97325  -0.96823  -0.90206  -0.89876  -0.89578
 Alpha  occ. eigenvalues --   -0.89293  -0.86681  -0.85541  -0.85115  -0.84464
 Alpha  occ. eigenvalues --   -0.74938  -0.73892  -0.73348  -0.72842  -0.72587
 Alpha  occ. eigenvalues --   -0.71953  -0.71386  -0.70926  -0.70630  -0.70019
 Alpha  occ. eigenvalues --   -0.69402  -0.69353  -0.68069  -0.67146  -0.66874
 Alpha  occ. eigenvalues --   -0.66262  -0.65572  -0.65186  -0.64901  -0.64432
 Alpha  occ. eigenvalues --   -0.64077  -0.62656  -0.62212  -0.61766  -0.60764
 Alpha  occ. eigenvalues --   -0.60490  -0.59846  -0.59780  -0.59440  -0.59097
 Alpha  occ. eigenvalues --   -0.58381  -0.57886  -0.56593  -0.56016  -0.55542
 Alpha  occ. eigenvalues --   -0.54240  -0.54125  -0.52731  -0.52639  -0.51244
 Alpha  occ. eigenvalues --   -0.51178  -0.50848  -0.50543  -0.50315  -0.49861
 Alpha  occ. eigenvalues --   -0.49449  -0.49429  -0.48339  -0.48096  -0.46584
 Alpha  occ. eigenvalues --   -0.46177  -0.45843  -0.45556  -0.45340  -0.44114
 Alpha  occ. eigenvalues --   -0.43747  -0.43305  -0.42898  -0.42542  -0.42473
 Alpha  occ. eigenvalues --   -0.42110  -0.41776  -0.41445  -0.41387  -0.41074
 Alpha  occ. eigenvalues --   -0.40835  -0.40588  -0.40131  -0.39887  -0.39829
 Alpha  occ. eigenvalues --   -0.39782  -0.39676  -0.39567  -0.39433  -0.39296
 Alpha  occ. eigenvalues --   -0.39011  -0.38731  -0.38417  -0.38322  -0.38194
 Alpha  occ. eigenvalues --   -0.38021  -0.37851  -0.37825  -0.37754  -0.37285
 Alpha  occ. eigenvalues --   -0.37028  -0.36974  -0.36678  -0.36376  -0.36244
 Alpha  occ. eigenvalues --   -0.36033  -0.35996  -0.35788  -0.35645  -0.35570
 Alpha  occ. eigenvalues --   -0.35471  -0.35221  -0.35068  -0.34845  -0.34699
 Alpha  occ. eigenvalues --   -0.34469  -0.34331  -0.34243  -0.34167  -0.33929
 Alpha  occ. eigenvalues --   -0.33826  -0.33451  -0.33167  -0.33160  -0.33020
 Alpha  occ. eigenvalues --   -0.32878  -0.32839  -0.32411  -0.32344  -0.32171
 Alpha  occ. eigenvalues --   -0.31978  -0.31657  -0.31574  -0.31437  -0.31353
 Alpha  occ. eigenvalues --   -0.31163  -0.31052  -0.30951  -0.30839  -0.30674
 Alpha  occ. eigenvalues --   -0.30509  -0.30229  -0.30196  -0.29735  -0.29632
 Alpha  occ. eigenvalues --   -0.29537  -0.29344  -0.29231  -0.29117  -0.28880
 Alpha  occ. eigenvalues --   -0.28840  -0.28621  -0.28453  -0.28050  -0.28043
 Alpha  occ. eigenvalues --   -0.27915  -0.26844  -0.26653  -0.26463  -0.26401
 Alpha  occ. eigenvalues --   -0.26166  -0.26126  -0.25939  -0.25753  -0.25392
 Alpha  occ. eigenvalues --   -0.25128  -0.24914  -0.24520  -0.24239  -0.23852
 Alpha  occ. eigenvalues --   -0.23455  -0.23232  -0.22404  -0.21397  -0.20806
 Alpha  occ. eigenvalues --   -0.20702  -0.20384  -0.18745  -0.18366  -0.17253
 Alpha  occ. eigenvalues --   -0.16073
 Alpha virt. eigenvalues --   -0.11951  -0.06679  -0.06422  -0.05080  -0.04781
 Alpha virt. eigenvalues --   -0.02109  -0.01839  -0.01720  -0.00946  -0.00138
 Alpha virt. eigenvalues --    0.00619   0.01167   0.02360   0.02734   0.02858

 Mulliken charges:
               1
     1  Mg   0.689812
     2  C    0.037128
     3  C   -0.039179
     4  C   -0.033376
     5  C   -0.105698
     6  N   -0.220362
     7  C   -0.050552
     8  C   -0.020013
     9  C    0.012423
    10  C   -0.012399
    11  C    0.151970
    12  C    0.162761
    13  C    0.132663
    14  C    0.094412
    15  O   -0.231456
    16  O   -0.288705
    17  N   -0.259208
    18  C    0.100914
    19  C   -0.158458
    20  C    0.044188
    21  C    0.084699
    22  C    0.180329
    23  C   -0.067274
    24  O   -0.196640
    25  C    0.144162
    26  N   -0.284402
    27  C    0.059999
    28  C   -0.005967
    29  C    0.044271
    30  C    0.103697
    31  C    0.138266
    32  C    0.077950
    33  C    0.031289
    34  N   -0.235663
    35  C    0.107112
    36  C   -0.194856
    37  C    0.116748
    38  C    0.043007
    39  C    0.181112
    40  C   -0.047068
    41  O   -0.150583
    42  C    0.037202
    43  C    0.105121
    44  O   -0.153442
    45  O   -0.289175
    46  C    0.218130
    47  C    0.317146
    48  C   -0.097921
    49  C   -0.137834
    50  C    0.127659
    51  C    0.146551
    52  C    0.091165
    53  C    0.091188
    54  C   -0.064053
    55  C    0.109679
    56  C    0.106939
    57  C    0.113733
    58  C    0.082363
    59  C   -0.065132
    60  C    0.081068
    61  C    0.142430
    62  C    0.048559
    63  C    0.095852
    64  C   -0.120149
    65  C    0.132884
    66  C    0.074870
    67  H   -0.061724
    68  H   -0.043455
    69  H   -0.064677
    70  H   -0.011255
    71  H   -0.032325
    72  H   -0.004825
    73  H   -0.015099
    74  H    0.004668
    75  H   -0.015185
    76  H   -0.014947
    77  H   -0.004609
    78  H    0.019008
    79  H    0.023709
    80  H   -0.014220
    81  H   -0.012424
    82  H   -0.010952
    83  H    0.014095
    84  H    0.002344
    85  H   -0.021671
    86  H   -0.025906
    87  H   -0.013386
    88  H    0.003153
    89  H   -0.015518
    90  H   -0.014813
    91  H   -0.017782
    92  H   -0.004813
    93  H   -0.024094
    94  H    0.004132
    95  H   -0.008873
    96  H    0.011481
    97  H    0.017645
    98  H   -0.011323
    99  H    0.018546
   100  H    0.017998
   101  H    0.026911
   102  H   -0.000137
   103  H   -0.018369
   104  H   -0.043890
   105  H    0.001691
   106  H   -0.027488
   107  H   -0.010961
   108  H   -0.000719
   109  H   -0.050159
   110  H   -0.016038
   111  H   -0.018799
   112  H   -0.046655
   113  H   -0.032663
   114  H   -0.039548
   115  H   -0.025470
   116  H   -0.020089
   117  H   -0.024072
   118  H   -0.026272
   119  H   -0.037678
   120  H   -0.041876
   121  H   -0.034951
   122  H   -0.061450
   123  H   -0.044545
   124  H   -0.038210
   125  H   -0.018225
   126  H   -0.021967
   127  H   -0.010032
   128  H   -0.022273
   129  H   -0.042924
   130  H   -0.020524
   131  H   -0.026914
   132  H   -0.027287
   133  H   -0.052595
   134  H   -0.035312
   135  H   -0.011502
   136  H   -0.017732
   137  H   -0.005374
   138  H   -0.024688
   139  H   -0.031207
   140  H   -0.004806
 Sum of Mulliken charges =  -0.00000

 Dipole moment (field-independent basis, Debye):
    X=             -2.9219    Y=              2.8189    Z=             -0.2694  Tot=              4.0689
 Quadrupole moment (field-independent basis, Debye-Ang):
   XX=           -392.9752   YY=           -427.7591   ZZ=           -402.6193
   XY=              4.8328   XZ=             11.0807   YZ=             -4.8330

 Normal termination of Gaussian 16 at Thu Apr 28 05:45:07 2022.
