 Gaussian 16, Revision A.03,
 Gaussian 16:  ES64L-G16RevA.03 25-Dec-2016

 -----------------------------------
 #p cam-b3lyp/Def2SVP td=(nstates=5)
 -----------------------------------

 --------------------------------------------------------
 step_1451_chromophore_16 TDDFT with cam-b3lyp functional
 --------------------------------------------------------
 Symbolic Z-matrix:
 Charge =  0 Multiplicity = 1

                         Standard orientation:
 ---------------------------------------------------------------------
 Center     Atomic      Atomic             Coordinates (Angstroms)
 Number     Number       Type             X           Y           Z
 ---------------------------------------------------------------------
      1         12           0        6.325469    0.516204    0.460075
      2          6           0        4.062459   -2.191498    0.209727
      3          6           0        3.997951    2.531955   -1.112923
      4          6           0        8.579651    3.070439    0.427246
      5          6           0        8.699520   -1.594987    1.728705
      6          7           0        4.165637    0.239234   -0.177584
      7          6           0        3.449662   -0.951982   -0.152268
      8          6           0        2.036637   -0.667874   -0.807231
      9          6           0        2.197483    0.698950   -1.472671
     10          6           0        3.524839    1.208745   -0.921651
     11          6           0        1.991327    0.832618   -2.993116
     12          6           0        0.802226   -0.855486    0.158009
     13          6           0       -0.001008   -2.090356   -0.172751
     14          6           0       -0.934301   -2.111237   -1.369227
     15          8           0       -0.645416   -2.334686   -2.570431
     16          8           0       -2.283630   -1.877679   -0.972404
     17          7           0        6.175663    2.640163   -0.062407
     18          6           0        5.130234    3.279266   -0.642596
     19          6           0        5.500422    4.655630   -0.928028
     20          6           0        6.874785    4.752439   -0.521554
     21          6           0        7.273667    3.487088    0.003593
     22          6           0        4.457957    5.697261   -1.516167
     23          6           0        7.774777    5.989083   -0.661194
     24          8           0        8.908360    6.010245   -0.121801
     25          6           0        7.304958    7.255765   -1.291281
     26          7           0        8.317453    0.693468    0.764118
     27          6           0        9.063975    1.825904    0.651988
     28          6           0       10.514903    1.549515    1.050255
     29          6           0       10.484544    0.101816    1.636744
     30          6           0        9.035637   -0.304690    1.419938
     31          6           0       11.521094    1.691320   -0.114376
     32          6           0       11.087157   -0.103516    3.013574
     33          6           0       10.269078    0.630827    4.173266
     34          7           0        6.399854   -1.501422    1.021338
     35          6           0        7.444291   -2.246986    1.468617
     36          6           0        7.022689   -3.632382    1.656213
     37          6           0        5.685111   -3.691707    1.191481
     38          6           0        5.389242   -2.337139    0.756647
     39          6           0        7.942951   -4.717626    2.145204
     40          6           0        4.511718   -4.507147    0.923018
     41          8           0        4.253701   -5.683843    1.221571
     42          6           0        3.440462   -3.585855    0.218575
     43          6           0        3.186946   -4.231383   -1.127998
     44          8           0        3.996889   -4.318408   -2.002265
     45          8           0        1.873942   -4.609783   -1.263568
     46          6           0        1.403025   -5.024982   -2.661767
     47          6           0       -3.160377   -2.054192   -2.133512
     48          6           0       -4.512630   -1.545610   -1.617680
     49          6           0       -5.588118   -2.228012   -1.273309
     50          6           0       -5.559516   -3.746052   -1.262881
     51          6           0       -6.847980   -1.623220   -0.722103
     52          6           0       -7.564194   -0.514606   -1.578263
     53          6           0       -7.893244    0.715936   -0.684911
     54          6           0       -9.180372    1.440982   -1.055228
     55          6           0       -9.184213    2.950938   -0.708451
     56          6           0      -10.318120    0.618214   -0.371940
     57          6           0      -11.494032    0.365557   -1.239501
     58          6           0      -12.606672    1.401423   -0.885156
     59          6           0      -13.929525    0.896324   -0.202861
     60          6           0      -14.911608    0.477293   -1.329003
     61          6           0      -14.604645    1.872663    0.856680
     62          6           0      -15.014239    1.228661    2.196187
     63          6           0      -16.317823    1.754985    2.897700
     64          6           0      -17.440575    0.717225    3.062000
     65          6           0      -18.417906    0.995421    4.235084
     66          6           0      -18.224750    0.651277    1.697065
     67          1           0        3.263579    3.152259   -1.629575
     68          1           0        9.367829    3.822927    0.360925
     69          1           0        9.423141   -2.178491    2.302138
     70          1           0        1.930388   -1.338147   -1.659933
     71          1           0        1.472929    1.356178   -0.990288
     72          1           0        2.531548    1.731715   -3.291024
     73          1           0        0.911197    0.929825   -3.106692
     74          1           0        2.145726   -0.058453   -3.601081
     75          1           0        0.148790    0.017415    0.145384
     76          1           0        1.203982   -0.951873    1.165979
     77          1           0       -0.517465   -2.429795    0.726245
     78          1           0        0.727253   -2.818515   -0.529456
     79          1           0        4.248705    6.541104   -0.858285
     80          1           0        3.592962    5.199854   -1.954339
     81          1           0        4.992200    6.031817   -2.405426
     82          1           0        8.107564    7.987300   -1.387995
     83          1           0        6.574287    7.794548   -0.688787
     84          1           0        6.922942    6.995761   -2.278933
     85          1           0       10.901635    2.219037    1.818492
     86          1           0       11.041670   -0.602499    1.019721
     87          1           0       12.337802    2.358839    0.156747
     88          1           0       10.983736    2.131537   -0.953856
     89          1           0       11.970531    0.710421   -0.267397
     90          1           0       12.125646    0.223911    3.069624
     91          1           0       11.044334   -1.136861    3.356226
     92          1           0        9.519050    1.356543    3.859665
     93          1           0       10.924423    1.400606    4.580702
     94          1           0        9.901740   -0.007724    4.976784
     95          1           0        8.776664   -4.309512    2.717341
     96          1           0        8.352406   -5.084084    1.204787
     97          1           0        7.376869   -5.503893    2.644494
     98          1           0        2.469957   -3.572924    0.715319
     99          1           0        1.609541   -4.251144   -3.401102
    100          1           0        0.315655   -5.068647   -2.602500
    101          1           0        1.805107   -5.951136   -3.074463
    102          1           0       -3.176565   -3.042543   -2.594703
    103          1           0       -2.831215   -1.350195   -2.897948
    104          1           0       -4.617587   -0.460153   -1.644745
    105          1           0       -5.811485   -4.258362   -0.333925
    106          1           0       -4.631113   -4.211286   -1.593506
    107          1           0       -6.268520   -4.055720   -2.030402
    108          1           0       -6.655979   -1.405335    0.328814
    109          1           0       -7.593134   -2.416694   -0.669681
    110          1           0       -8.425892   -0.984083   -2.052617
    111          1           0       -6.834221   -0.216000   -2.330504
    112          1           0       -7.074567    1.436612   -0.680142
    113          1           0       -7.968101    0.451194    0.369602
    114          1           0       -9.285824    1.376152   -2.138199
    115          1           0       -8.288331    3.227561   -0.152001
    116          1           0      -10.081539    3.256946   -0.170386
    117          1           0       -9.190027    3.672575   -1.524740
    118          1           0      -10.699327    1.186097    0.477076
    119          1           0       -9.902382   -0.326196   -0.021983
    120          1           0      -11.846699   -0.657506   -1.108086
    121          1           0      -11.276624    0.461651   -2.303141
    122          1           0      -13.000061    1.792852   -1.824243
    123          1           0      -12.216767    2.359493   -0.541134
    124          1           0      -13.726608   -0.080610    0.236087
    125          1           0      -15.919256    0.298990   -0.953862
    126          1           0      -14.603743   -0.499429   -1.703199
    127          1           0      -14.920361    1.190970   -2.151925
    128          1           0      -15.409624    2.501501    0.475335
    129          1           0      -13.764036    2.506496    1.139244
    130          1           0      -14.269019    1.191565    2.990802
    131          1           0      -15.206016    0.204721    1.873881
    132          1           0      -16.738811    2.676462    2.494073
    133          1           0      -16.046816    1.923047    3.939634
    134          1           0      -16.935519   -0.244064    3.162904
    135          1           0      -18.357644    2.062113    4.451598
    136          1           0      -17.967566    0.492514    5.090653
    137          1           0      -19.399947    0.583219    4.007018
    138          1           0      -19.165954    1.184900    1.827690
    139          1           0      -18.600427   -0.348167    1.481104
    140          1           0      -17.676836    0.917537    0.792647
 ---------------------------------------------------------------------

 SCF Done:  E(RCAM-B3LYP) =  -3007.17335759     A.U. after   17 cycles

 Excitation energies and oscillator strengths:

 Excited State   1:      Singlet-A      1.6623 eV  745.87 nm  f=0.4058  <S**2>=0.000
     245 -> 248        0.17094
     246 -> 247        0.68916
     245 <- 248        0.10726
 This state for optimization and/or second-order correction.
 Total Energy, E(TD-HF/TD-DFT) =  -3007.11227001
 Copying the excited state density for this state as the 1-particle RhoCI density.

 Excited State   2:      Singlet-A      2.1491 eV  576.92 nm  f=0.1550  <S**2>=0.000
     245 -> 247        0.65891
     246 -> 248       -0.24368

 Excited State   3:      Singlet-A      3.2288 eV  384.00 nm  f=0.0014  <S**2>=0.000
     244 -> 247        0.68594
     246 -> 248        0.10144

 Excited State   4:      Singlet-A      3.4362 eV  360.81 nm  f=0.0159  <S**2>=0.000
     239 -> 247        0.23094
     239 -> 249       -0.14563
     239 -> 250       -0.10594
     240 -> 247        0.12730
     241 -> 247        0.49568
     241 -> 249       -0.23675
     241 -> 250       -0.18147
     246 -> 248       -0.14208

 Excited State   5:      Singlet-A      3.4525 eV  359.12 nm  f=0.0004  <S**2>=0.000
     243 -> 247        0.66411
     246 -> 248        0.16196

 The electronic state is 1-A.
 Alpha  occ. eigenvalues --  -46.88803 -19.25179 -19.25043 -19.21414 -19.19429
 Alpha  occ. eigenvalues --  -19.18832 -19.18582 -14.42739 -14.41661 -14.39730
 Alpha  occ. eigenvalues --  -14.39188 -10.40552 -10.38913 -10.35342 -10.35270
 Alpha  occ. eigenvalues --  -10.32057 -10.31790 -10.31675 -10.31417 -10.30690
 Alpha  occ. eigenvalues --  -10.30251 -10.30215 -10.29964 -10.29919 -10.29627
 Alpha  occ. eigenvalues --  -10.29260 -10.29151 -10.28605 -10.28594 -10.28366
 Alpha  occ. eigenvalues --  -10.28131 -10.27968 -10.27854 -10.27731 -10.27613
 Alpha  occ. eigenvalues --  -10.27337 -10.27012 -10.26886 -10.26836 -10.26760
 Alpha  occ. eigenvalues --  -10.26565 -10.26323 -10.26276 -10.26241 -10.26182
 Alpha  occ. eigenvalues --  -10.26077 -10.25983 -10.25771 -10.25549 -10.25546
 Alpha  occ. eigenvalues --  -10.25543 -10.25501 -10.25340 -10.25107 -10.25094
 Alpha  occ. eigenvalues --  -10.25040 -10.25015 -10.24938 -10.24750 -10.24728
 Alpha  occ. eigenvalues --  -10.24643 -10.24628 -10.24601 -10.24372 -10.24229
 Alpha  occ. eigenvalues --  -10.24044  -3.17258  -1.92182  -1.91680  -1.91587
 Alpha  occ. eigenvalues --   -1.15935  -1.15272  -1.08627  -1.08241  -1.07509
 Alpha  occ. eigenvalues --   -1.07141  -1.04341  -1.03115  -1.02774  -1.01997
 Alpha  occ. eigenvalues --   -0.92128  -0.90781  -0.90210  -0.89638  -0.89216
 Alpha  occ. eigenvalues --   -0.88679  -0.87950  -0.87537  -0.87212  -0.86525
 Alpha  occ. eigenvalues --   -0.86087  -0.85806  -0.84319  -0.83284  -0.82976
 Alpha  occ. eigenvalues --   -0.82297  -0.81762  -0.81146  -0.80763  -0.80253
 Alpha  occ. eigenvalues --   -0.79852  -0.78389  -0.77871  -0.77224  -0.76186
 Alpha  occ. eigenvalues --   -0.75850  -0.75191  -0.75025  -0.74748  -0.74331
 Alpha  occ. eigenvalues --   -0.73502  -0.72917  -0.71490  -0.70856  -0.70164
 Alpha  occ. eigenvalues --   -0.68865  -0.68743  -0.67194  -0.67149  -0.65442
 Alpha  occ. eigenvalues --   -0.65404  -0.64856  -0.64470  -0.64245  -0.63885
 Alpha  occ. eigenvalues --   -0.63415  -0.63288  -0.62243  -0.61776  -0.60191
 Alpha  occ. eigenvalues --   -0.59778  -0.59342  -0.59058  -0.58617  -0.57651
 Alpha  occ. eigenvalues --   -0.57261  -0.56590  -0.56159  -0.55746  -0.55541
 Alpha  occ. eigenvalues --   -0.55006  -0.54761  -0.54591  -0.54451  -0.53992
 Alpha  occ. eigenvalues --   -0.53681  -0.53491  -0.52849  -0.52662  -0.52613
 Alpha  occ. eigenvalues --   -0.52490  -0.52440  -0.52152  -0.52089  -0.52024
 Alpha  occ. eigenvalues --   -0.51408  -0.51242  -0.51053  -0.50715  -0.50649
 Alpha  occ. eigenvalues --   -0.50326  -0.50241  -0.50111  -0.50075  -0.49637
 Alpha  occ. eigenvalues --   -0.49523  -0.49237  -0.49014  -0.48702  -0.48475
 Alpha  occ. eigenvalues --   -0.48427  -0.48157  -0.48098  -0.47753  -0.47694
 Alpha  occ. eigenvalues --   -0.47604  -0.47428  -0.47105  -0.46809  -0.46608
 Alpha  occ. eigenvalues --   -0.46289  -0.46175  -0.46012  -0.45945  -0.45849
 Alpha  occ. eigenvalues --   -0.45633  -0.45323  -0.45163  -0.44843  -0.44815
 Alpha  occ. eigenvalues --   -0.44524  -0.44489  -0.43972  -0.43916  -0.43794
 Alpha  occ. eigenvalues --   -0.43594  -0.43278  -0.43218  -0.43126  -0.43052
 Alpha  occ. eigenvalues --   -0.42813  -0.42689  -0.42624  -0.42407  -0.42019
 Alpha  occ. eigenvalues --   -0.41886  -0.41565  -0.41413  -0.41109  -0.40917
 Alpha  occ. eigenvalues --   -0.40802  -0.40671  -0.40274  -0.40237  -0.40048
 Alpha  occ. eigenvalues --   -0.39897  -0.39748  -0.39440  -0.39000  -0.38965
 Alpha  occ. eigenvalues --   -0.38811  -0.37585  -0.37536  -0.37385  -0.37247
 Alpha  occ. eigenvalues --   -0.37166  -0.37133  -0.37054  -0.36754  -0.36391
 Alpha  occ. eigenvalues --   -0.36229  -0.35446  -0.35395  -0.35055  -0.34743
 Alpha  occ. eigenvalues --   -0.34623  -0.34123  -0.32773  -0.31392  -0.30866
 Alpha  occ. eigenvalues --   -0.30782  -0.30558  -0.30102  -0.29667  -0.24048
 Alpha  occ. eigenvalues --   -0.21427
 Alpha virt. eigenvalues --   -0.09283  -0.01397   0.00166   0.01877   0.02877
 Alpha virt. eigenvalues --    0.03985   0.04943   0.05724   0.05807   0.06228
 Alpha virt. eigenvalues --    0.07552   0.08492   0.08867   0.08931   0.09159

 Mulliken charges:
               1
     1  Mg   0.822513
     2  C    0.012802
     3  C   -0.053581
     4  C   -0.050041
     5  C   -0.110061
     6  N   -0.286660
     7  C   -0.009384
     8  C   -0.068138
     9  C   -0.041531
    10  C    0.009956
    11  C    0.094683
    12  C    0.108815
    13  C    0.060329
    14  C    0.178936
    15  O   -0.272852
    16  O   -0.350975
    17  N   -0.343969
    18  C    0.113189
    19  C   -0.164650
    20  C   -0.027787
    21  C    0.108968
    22  C    0.129763
    23  C    0.011413
    24  O   -0.237268
    25  C    0.062286
    26  N   -0.363688
    27  C    0.078987
    28  C   -0.064246
    29  C   -0.014854
    30  C    0.121743
    31  C    0.083672
    32  C    0.025965
    33  C   -0.031500
    34  N   -0.323918
    35  C    0.109216
    36  C   -0.189956
    37  C    0.036540
    38  C    0.076331
    39  C    0.131405
    40  C    0.052364
    41  O   -0.188569
    42  C   -0.035895
    43  C    0.194675
    44  O   -0.189759
    45  O   -0.356660
    46  C    0.182081
    47  C    0.278065
    48  C   -0.113003
    49  C   -0.162267
    50  C    0.063238
    51  C    0.090241
    52  C    0.033940
    53  C    0.036915
    54  C   -0.118505
    55  C    0.052341
    56  C    0.049869
    57  C    0.057763
    58  C    0.025630
    59  C   -0.120012
    60  C    0.030526
    61  C    0.083472
    62  C    0.001792
    63  C    0.035745
    64  C   -0.172347
    65  C    0.068072
    66  C    0.018722
    67  H   -0.031016
    68  H   -0.003796
    69  H   -0.031631
    70  H    0.021466
    71  H    0.003727
    72  H    0.018858
    73  H    0.009407
    74  H    0.030240
    75  H    0.015549
    76  H    0.018153
    77  H    0.032573
    78  H    0.042994
    79  H    0.048749
    80  H    0.013455
    81  H    0.012358
    82  H    0.025368
    83  H    0.041899
    84  H    0.028088
    85  H    0.013039
    86  H    0.010478
    87  H    0.011060
    88  H    0.027926
    89  H    0.008837
    90  H    0.013987
    91  H    0.009751
    92  H    0.017599
    93  H   -0.000006
    94  H    0.028177
    95  H    0.014443
    96  H    0.038107
    97  H    0.043449
    98  H    0.032382
    99  H    0.041766
   100  H    0.040413
   101  H    0.050314
   102  H    0.026833
   103  H    0.013475
   104  H   -0.012554
   105  H    0.026386
   106  H   -0.001827
   107  H    0.013100
   108  H    0.028533
   109  H   -0.017622
   110  H    0.011162
   111  H    0.009946
   112  H   -0.016818
   113  H   -0.004587
   114  H   -0.007551
   115  H   -0.000205
   116  H    0.001624
   117  H    0.001622
   118  H    0.002373
   119  H   -0.008355
   120  H   -0.012036
   121  H   -0.005458
   122  H   -0.030290
   123  H   -0.017028
   124  H   -0.007170
   125  H    0.003378
   126  H    0.001710
   127  H    0.012302
   128  H    0.005306
   129  H   -0.012254
   130  H    0.007560
   131  H   -0.002120
   132  H    0.000527
   133  H   -0.020831
   134  H   -0.003923
   135  H    0.012721
   136  H    0.006904
   137  H    0.018933
   138  H    0.000009
   139  H   -0.005817
   140  H    0.012986
 Sum of Mulliken charges =  -0.00000

 Dipole moment (field-independent basis, Debye):
    X=             -3.1873    Y=              3.2986    Z=             -0.5291  Tot=              4.6173
 Quadrupole moment (field-independent basis, Debye-Ang):
   XX=           -393.5766   YY=           -423.5636   ZZ=           -402.1927
   XY=              7.6945   XZ=             10.8224   YZ=             -6.1912

 Normal termination of Gaussian 16 at Thu Apr 28 04:22:16 2022.
