 Gaussian 16, Revision A.03,
 Gaussian 16:  ES64L-G16RevA.03 25-Dec-2016

 ---------------------------------
 #p PBE1PBE/Def2SVP td=(nstates=5)
 ---------------------------------

 ------------------------------------------------------
 step_1451_chromophore_16 TDDFT with PBE1PBE functional
 ------------------------------------------------------
 Symbolic Z-matrix:
 Charge =  0 Multiplicity = 1

                         Standard orientation:
 ---------------------------------------------------------------------
 Center     Atomic      Atomic             Coordinates (Angstroms)
 Number     Number       Type             X           Y           Z
 ---------------------------------------------------------------------
      1         12           0        6.325469    0.516204    0.460075
      2          6           0        4.062459   -2.191498    0.209727
      3          6           0        3.997951    2.531955   -1.112923
      4          6           0        8.579651    3.070439    0.427246
      5          6           0        8.699520   -1.594987    1.728705
      6          7           0        4.165637    0.239234   -0.177584
      7          6           0        3.449662   -0.951982   -0.152268
      8          6           0        2.036637   -0.667874   -0.807231
      9          6           0        2.197483    0.698950   -1.472671
     10          6           0        3.524839    1.208745   -0.921651
     11          6           0        1.991327    0.832618   -2.993116
     12          6           0        0.802226   -0.855486    0.158009
     13          6           0       -0.001008   -2.090356   -0.172751
     14          6           0       -0.934301   -2.111237   -1.369227
     15          8           0       -0.645416   -2.334686   -2.570431
     16          8           0       -2.283630   -1.877679   -0.972404
     17          7           0        6.175663    2.640163   -0.062407
     18          6           0        5.130234    3.279266   -0.642596
     19          6           0        5.500422    4.655630   -0.928028
     20          6           0        6.874785    4.752439   -0.521554
     21          6           0        7.273667    3.487088    0.003593
     22          6           0        4.457957    5.697261   -1.516167
     23          6           0        7.774777    5.989083   -0.661194
     24          8           0        8.908360    6.010245   -0.121801
     25          6           0        7.304958    7.255765   -1.291281
     26          7           0        8.317453    0.693468    0.764118
     27          6           0        9.063975    1.825904    0.651988
     28          6           0       10.514903    1.549515    1.050255
     29          6           0       10.484544    0.101816    1.636744
     30          6           0        9.035637   -0.304690    1.419938
     31          6           0       11.521094    1.691320   -0.114376
     32          6           0       11.087157   -0.103516    3.013574
     33          6           0       10.269078    0.630827    4.173266
     34          7           0        6.399854   -1.501422    1.021338
     35          6           0        7.444291   -2.246986    1.468617
     36          6           0        7.022689   -3.632382    1.656213
     37          6           0        5.685111   -3.691707    1.191481
     38          6           0        5.389242   -2.337139    0.756647
     39          6           0        7.942951   -4.717626    2.145204
     40          6           0        4.511718   -4.507147    0.923018
     41          8           0        4.253701   -5.683843    1.221571
     42          6           0        3.440462   -3.585855    0.218575
     43          6           0        3.186946   -4.231383   -1.127998
     44          8           0        3.996889   -4.318408   -2.002265
     45          8           0        1.873942   -4.609783   -1.263568
     46          6           0        1.403025   -5.024982   -2.661767
     47          6           0       -3.160377   -2.054192   -2.133512
     48          6           0       -4.512630   -1.545610   -1.617680
     49          6           0       -5.588118   -2.228012   -1.273309
     50          6           0       -5.559516   -3.746052   -1.262881
     51          6           0       -6.847980   -1.623220   -0.722103
     52          6           0       -7.564194   -0.514606   -1.578263
     53          6           0       -7.893244    0.715936   -0.684911
     54          6           0       -9.180372    1.440982   -1.055228
     55          6           0       -9.184213    2.950938   -0.708451
     56          6           0      -10.318120    0.618214   -0.371940
     57          6           0      -11.494032    0.365557   -1.239501
     58          6           0      -12.606672    1.401423   -0.885156
     59          6           0      -13.929525    0.896324   -0.202861
     60          6           0      -14.911608    0.477293   -1.329003
     61          6           0      -14.604645    1.872663    0.856680
     62          6           0      -15.014239    1.228661    2.196187
     63          6           0      -16.317823    1.754985    2.897700
     64          6           0      -17.440575    0.717225    3.062000
     65          6           0      -18.417906    0.995421    4.235084
     66          6           0      -18.224750    0.651277    1.697065
     67          1           0        3.263579    3.152259   -1.629575
     68          1           0        9.367829    3.822927    0.360925
     69          1           0        9.423141   -2.178491    2.302138
     70          1           0        1.930388   -1.338147   -1.659933
     71          1           0        1.472929    1.356178   -0.990288
     72          1           0        2.531548    1.731715   -3.291024
     73          1           0        0.911197    0.929825   -3.106692
     74          1           0        2.145726   -0.058453   -3.601081
     75          1           0        0.148790    0.017415    0.145384
     76          1           0        1.203982   -0.951873    1.165979
     77          1           0       -0.517465   -2.429795    0.726245
     78          1           0        0.727253   -2.818515   -0.529456
     79          1           0        4.248705    6.541104   -0.858285
     80          1           0        3.592962    5.199854   -1.954339
     81          1           0        4.992200    6.031817   -2.405426
     82          1           0        8.107564    7.987300   -1.387995
     83          1           0        6.574287    7.794548   -0.688787
     84          1           0        6.922942    6.995761   -2.278933
     85          1           0       10.901635    2.219037    1.818492
     86          1           0       11.041670   -0.602499    1.019721
     87          1           0       12.337802    2.358839    0.156747
     88          1           0       10.983736    2.131537   -0.953856
     89          1           0       11.970531    0.710421   -0.267397
     90          1           0       12.125646    0.223911    3.069624
     91          1           0       11.044334   -1.136861    3.356226
     92          1           0        9.519050    1.356543    3.859665
     93          1           0       10.924423    1.400606    4.580702
     94          1           0        9.901740   -0.007724    4.976784
     95          1           0        8.776664   -4.309512    2.717341
     96          1           0        8.352406   -5.084084    1.204787
     97          1           0        7.376869   -5.503893    2.644494
     98          1           0        2.469957   -3.572924    0.715319
     99          1           0        1.609541   -4.251144   -3.401102
    100          1           0        0.315655   -5.068647   -2.602500
    101          1           0        1.805107   -5.951136   -3.074463
    102          1           0       -3.176565   -3.042543   -2.594703
    103          1           0       -2.831215   -1.350195   -2.897948
    104          1           0       -4.617587   -0.460153   -1.644745
    105          1           0       -5.811485   -4.258362   -0.333925
    106          1           0       -4.631113   -4.211286   -1.593506
    107          1           0       -6.268520   -4.055720   -2.030402
    108          1           0       -6.655979   -1.405335    0.328814
    109          1           0       -7.593134   -2.416694   -0.669681
    110          1           0       -8.425892   -0.984083   -2.052617
    111          1           0       -6.834221   -0.216000   -2.330504
    112          1           0       -7.074567    1.436612   -0.680142
    113          1           0       -7.968101    0.451194    0.369602
    114          1           0       -9.285824    1.376152   -2.138199
    115          1           0       -8.288331    3.227561   -0.152001
    116          1           0      -10.081539    3.256946   -0.170386
    117          1           0       -9.190027    3.672575   -1.524740
    118          1           0      -10.699327    1.186097    0.477076
    119          1           0       -9.902382   -0.326196   -0.021983
    120          1           0      -11.846699   -0.657506   -1.108086
    121          1           0      -11.276624    0.461651   -2.303141
    122          1           0      -13.000061    1.792852   -1.824243
    123          1           0      -12.216767    2.359493   -0.541134
    124          1           0      -13.726608   -0.080610    0.236087
    125          1           0      -15.919256    0.298990   -0.953862
    126          1           0      -14.603743   -0.499429   -1.703199
    127          1           0      -14.920361    1.190970   -2.151925
    128          1           0      -15.409624    2.501501    0.475335
    129          1           0      -13.764036    2.506496    1.139244
    130          1           0      -14.269019    1.191565    2.990802
    131          1           0      -15.206016    0.204721    1.873881
    132          1           0      -16.738811    2.676462    2.494073
    133          1           0      -16.046816    1.923047    3.939634
    134          1           0      -16.935519   -0.244064    3.162904
    135          1           0      -18.357644    2.062113    4.451598
    136          1           0      -17.967566    0.492514    5.090653
    137          1           0      -19.399947    0.583219    4.007018
    138          1           0      -19.165954    1.184900    1.827690
    139          1           0      -18.600427   -0.348167    1.481104
    140          1           0      -17.676836    0.917537    0.792647
 ---------------------------------------------------------------------

 SCF Done:  E(RPBE1PBE) =  -3005.36124684     A.U. after   15 cycles

 Excitation energies and oscillator strengths:

 Excited State   1:      Singlet-A      1.8271 eV  678.59 nm  f=0.3882  <S**2>=0.000
     245 -> 248        0.16574
     246 -> 247        0.69688
     246 <- 247       -0.11767
 This state for optimization and/or second-order correction.
 Total Energy, E(TD-HF/TD-DFT) =  -3005.29410317
 Copying the excited state density for this state as the 1-particle RhoCI density.

 Excited State   2:      Singlet-A      2.1574 eV  574.70 nm  f=0.1422  <S**2>=0.000
     245 -> 247        0.66612
     246 -> 248       -0.22425

 Excited State   3:      Singlet-A      2.8825 eV  430.12 nm  f=0.0049  <S**2>=0.000
     240 -> 247        0.11407
     242 -> 247        0.11554
     244 -> 247        0.67007

 Excited State   4:      Singlet-A      2.9393 eV  421.81 nm  f=0.0005  <S**2>=0.000
     240 -> 247        0.19232
     242 -> 247        0.47119
     242 -> 249       -0.10338
     243 -> 247       -0.41362
     244 -> 247       -0.11924

 Excited State   5:      Singlet-A      2.9907 eV  414.57 nm  f=0.0005  <S**2>=0.000
     240 -> 247        0.23086
     241 -> 247        0.12733
     242 -> 247        0.30862
     243 -> 247        0.53341
     243 -> 249        0.10192
     244 -> 247       -0.12869

 The electronic state is 1-A.
 Alpha  occ. eigenvalues --  -46.92207 -19.25882 -19.25702 -19.21695 -19.19590
 Alpha  occ. eigenvalues --  -19.19059 -19.18816 -14.42164 -14.41312 -14.39365
 Alpha  occ. eigenvalues --  -14.38861 -10.37605 -10.35902 -10.32496 -10.32416
 Alpha  occ. eigenvalues --  -10.29837 -10.29126 -10.29085 -10.29013 -10.28466
 Alpha  occ. eigenvalues --  -10.27958 -10.27862 -10.27716 -10.27609 -10.27374
 Alpha  occ. eigenvalues --  -10.26995 -10.26826 -10.26334 -10.26198 -10.26165
 Alpha  occ. eigenvalues --  -10.25736 -10.25619 -10.25373 -10.25284 -10.25113
 Alpha  occ. eigenvalues --  -10.25041 -10.24861 -10.24772 -10.24521 -10.24402
 Alpha  occ. eigenvalues --  -10.24312 -10.23899 -10.23775 -10.23741 -10.23708
 Alpha  occ. eigenvalues --  -10.23650 -10.23524 -10.23340 -10.23250 -10.23241
 Alpha  occ. eigenvalues --  -10.23212 -10.22940 -10.22860 -10.22647 -10.22598
 Alpha  occ. eigenvalues --  -10.22588 -10.22550 -10.22519 -10.22258 -10.22242
 Alpha  occ. eigenvalues --  -10.22159 -10.22139 -10.22048 -10.21785 -10.21772
 Alpha  occ. eigenvalues --  -10.21438  -3.14246  -1.87111  -1.86587  -1.86496
 Alpha  occ. eigenvalues --   -1.10659  -1.10044  -1.03348  -1.02942  -1.02319
 Alpha  occ. eigenvalues --   -1.01989  -0.99039  -0.97776  -0.97352  -0.96644
 Alpha  occ. eigenvalues --   -0.86443  -0.84907  -0.84396  -0.83776  -0.83568
 Alpha  occ. eigenvalues --   -0.82764  -0.82306  -0.81834  -0.81321  -0.80860
 Alpha  occ. eigenvalues --   -0.80304  -0.80089  -0.78482  -0.77623  -0.77250
 Alpha  occ. eigenvalues --   -0.76488  -0.75922  -0.75380  -0.74971  -0.74554
 Alpha  occ. eigenvalues --   -0.74058  -0.72684  -0.72122  -0.71537  -0.70506
 Alpha  occ. eigenvalues --   -0.69994  -0.69388  -0.69272  -0.68882  -0.68520
 Alpha  occ. eigenvalues --   -0.67814  -0.67352  -0.65875  -0.65201  -0.64536
 Alpha  occ. eigenvalues --   -0.63323  -0.63009  -0.61618  -0.61377  -0.59908
 Alpha  occ. eigenvalues --   -0.59626  -0.59430  -0.59046  -0.58738  -0.58017
 Alpha  occ. eigenvalues --   -0.57825  -0.57541  -0.56429  -0.56361  -0.54733
 Alpha  occ. eigenvalues --   -0.54192  -0.53938  -0.53579  -0.53254  -0.52167
 Alpha  occ. eigenvalues --   -0.51754  -0.51088  -0.50617  -0.50285  -0.50109
 Alpha  occ. eigenvalues --   -0.49427  -0.49338  -0.49101  -0.48938  -0.48535
 Alpha  occ. eigenvalues --   -0.48247  -0.47865  -0.47540  -0.47185  -0.47067
 Alpha  occ. eigenvalues --   -0.46941  -0.46917  -0.46677  -0.46649  -0.46511
 Alpha  occ. eigenvalues --   -0.45947  -0.45760  -0.45571  -0.45290  -0.45188
 Alpha  occ. eigenvalues --   -0.45003  -0.44812  -0.44713  -0.44653  -0.44205
 Alpha  occ. eigenvalues --   -0.44114  -0.43826  -0.43538  -0.43318  -0.43103
 Alpha  occ. eigenvalues --   -0.43086  -0.42815  -0.42697  -0.42393  -0.42322
 Alpha  occ. eigenvalues --   -0.42252  -0.42022  -0.41752  -0.41472  -0.41276
 Alpha  occ. eigenvalues --   -0.41038  -0.40956  -0.40707  -0.40585  -0.40559
 Alpha  occ. eigenvalues --   -0.40338  -0.40027  -0.39893  -0.39637  -0.39410
 Alpha  occ. eigenvalues --   -0.39271  -0.39197  -0.38701  -0.38562  -0.38492
 Alpha  occ. eigenvalues --   -0.38418  -0.38089  -0.38025  -0.37890  -0.37846
 Alpha  occ. eigenvalues --   -0.37597  -0.37530  -0.37412  -0.37140  -0.36804
 Alpha  occ. eigenvalues --   -0.36699  -0.36453  -0.36205  -0.35983  -0.35773
 Alpha  occ. eigenvalues --   -0.35622  -0.35496  -0.35143  -0.35076  -0.34988
 Alpha  occ. eigenvalues --   -0.34675  -0.34653  -0.34261  -0.33951  -0.33797
 Alpha  occ. eigenvalues --   -0.33744  -0.32548  -0.32382  -0.32193  -0.32172
 Alpha  occ. eigenvalues --   -0.32084  -0.31973  -0.31920  -0.31722  -0.31337
 Alpha  occ. eigenvalues --   -0.31296  -0.30347  -0.30233  -0.29924  -0.29813
 Alpha  occ. eigenvalues --   -0.29618  -0.28997  -0.28367  -0.26911  -0.25855
 Alpha  occ. eigenvalues --   -0.25834  -0.25683  -0.25630  -0.25187  -0.20978
 Alpha  occ. eigenvalues --   -0.19044
 Alpha virt. eigenvalues --   -0.11650  -0.04958  -0.04096  -0.02519  -0.01705
 Alpha virt. eigenvalues --    0.00846   0.01054   0.01286   0.01374   0.02577
 Alpha virt. eigenvalues --    0.03354   0.04267   0.05303   0.05680   0.05769

 Mulliken charges:
               1
     1  Mg   0.972803
     2  C    0.007766
     3  C   -0.063076
     4  C   -0.034831
     5  C   -0.098171
     6  N   -0.387769
     7  C    0.065144
     8  C   -0.137178
     9  C   -0.116777
    10  C    0.052039
    11  C    0.033726
    12  C    0.060364
    13  C   -0.034399
    14  C    0.244771
    15  O   -0.302749
    16  O   -0.376945
    17  N   -0.454038
    18  C    0.149750
    19  C   -0.188825
    20  C   -0.083111
    21  C    0.139446
    22  C    0.069018
    23  C    0.060578
    24  O   -0.272070
    25  C   -0.008889
    26  N   -0.473078
    27  C    0.104949
    28  C   -0.140369
    29  C   -0.088791
    30  C    0.153155
    31  C    0.028911
    32  C   -0.039774
    33  C   -0.098833
    34  N   -0.450291
    35  C    0.132891
    36  C   -0.209127
    37  C   -0.010860
    38  C    0.121690
    39  C    0.077363
    40  C    0.145323
    41  O   -0.233416
    42  C   -0.150165
    43  C    0.290605
    44  O   -0.225552
    45  O   -0.391061
    46  C    0.125046
    47  C    0.231571
    48  C   -0.118319
    49  C   -0.211229
    50  C   -0.001280
    51  C    0.034050
    52  C   -0.030963
    53  C   -0.023032
    54  C   -0.200041
    55  C   -0.004296
    56  C   -0.011900
    57  C   -0.001058
    58  C   -0.032895
    59  C   -0.202538
    60  C   -0.031463
    61  C    0.026280
    62  C   -0.057607
    63  C   -0.023493
    64  C   -0.260128
    65  C    0.000923
    66  C   -0.045094
    67  H    0.001153
    68  H    0.027947
    69  H    0.001198
    70  H    0.063069
    71  H    0.042780
    72  H    0.046453
    73  H    0.037588
    74  H    0.056322
    75  H    0.047097
    76  H    0.050621
    77  H    0.064415
    78  H    0.088962
    79  H    0.075051
    80  H    0.040397
    81  H    0.041277
    82  H    0.052707
    83  H    0.068025
    84  H    0.054630
    85  H    0.049987
    86  H    0.049135
    87  H    0.038648
    88  H    0.055825
    89  H    0.036087
    90  H    0.046955
    91  H    0.041818
    92  H    0.045858
    93  H    0.027890
    94  H    0.055252
    95  H    0.041517
    96  H    0.067537
    97  H    0.070740
    98  H    0.070445
    99  H    0.062970
   100  H    0.061832
   101  H    0.071879
   102  H    0.052306
   103  H    0.042389
   104  H    0.017657
   105  H    0.053377
   106  H    0.025875
   107  H    0.042463
   108  H    0.059790
   109  H    0.015441
   110  H    0.042853
   111  H    0.043722
   112  H    0.016507
   113  H    0.028430
   114  H    0.030424
   115  H    0.026797
   116  H    0.027894
   117  H    0.029047
   118  H    0.037140
   119  H    0.025447
   120  H    0.019910
   121  H    0.026224
   122  H    0.003869
   123  H    0.016067
   124  H    0.030023
   125  H    0.034375
   126  H    0.030218
   127  H    0.038830
   128  H    0.035556
   129  H    0.023225
   130  H    0.038556
   131  H    0.031488
   132  H    0.032028
   133  H    0.014834
   134  H    0.033556
   135  H    0.040525
   136  H    0.035746
   137  H    0.046160
   138  H    0.028156
   139  H    0.022843
   140  H    0.043500
 Sum of Mulliken charges =  -0.00000

 Dipole moment (field-independent basis, Debye):
    X=             -3.0644    Y=              3.2462    Z=             -0.4641  Tot=              4.4882
 Quadrupole moment (field-independent basis, Debye-Ang):
   XX=           -386.2387   YY=           -421.1749   ZZ=           -399.4157
   XY=              7.2234   XZ=             12.1084   YZ=             -6.3670

 Normal termination of Gaussian 16 at Thu Apr 28 04:45:27 2022.
