 Gaussian 16, Revision A.03,
 Gaussian 16:  ES64L-G16RevA.03 25-Dec-2016

 --------------------------------
 #p wB97XD/Def2SVP td=(nstates=5)
 --------------------------------

 -----------------------------------------------------
 step_1451_chromophore_16 TDDFT with wB97XD functional
 -----------------------------------------------------
 Symbolic Z-matrix:
 Charge =  0 Multiplicity = 1

                         Standard orientation:
 ---------------------------------------------------------------------
 Center     Atomic      Atomic             Coordinates (Angstroms)
 Number     Number       Type             X           Y           Z
 ---------------------------------------------------------------------
      1         12           0        6.325469    0.516204    0.460075
      2          6           0        4.062459   -2.191498    0.209727
      3          6           0        3.997951    2.531955   -1.112923
      4          6           0        8.579651    3.070439    0.427246
      5          6           0        8.699520   -1.594987    1.728705
      6          7           0        4.165637    0.239234   -0.177584
      7          6           0        3.449662   -0.951982   -0.152268
      8          6           0        2.036637   -0.667874   -0.807231
      9          6           0        2.197483    0.698950   -1.472671
     10          6           0        3.524839    1.208745   -0.921651
     11          6           0        1.991327    0.832618   -2.993116
     12          6           0        0.802226   -0.855486    0.158009
     13          6           0       -0.001008   -2.090356   -0.172751
     14          6           0       -0.934301   -2.111237   -1.369227
     15          8           0       -0.645416   -2.334686   -2.570431
     16          8           0       -2.283630   -1.877679   -0.972404
     17          7           0        6.175663    2.640163   -0.062407
     18          6           0        5.130234    3.279266   -0.642596
     19          6           0        5.500422    4.655630   -0.928028
     20          6           0        6.874785    4.752439   -0.521554
     21          6           0        7.273667    3.487088    0.003593
     22          6           0        4.457957    5.697261   -1.516167
     23          6           0        7.774777    5.989083   -0.661194
     24          8           0        8.908360    6.010245   -0.121801
     25          6           0        7.304958    7.255765   -1.291281
     26          7           0        8.317453    0.693468    0.764118
     27          6           0        9.063975    1.825904    0.651988
     28          6           0       10.514903    1.549515    1.050255
     29          6           0       10.484544    0.101816    1.636744
     30          6           0        9.035637   -0.304690    1.419938
     31          6           0       11.521094    1.691320   -0.114376
     32          6           0       11.087157   -0.103516    3.013574
     33          6           0       10.269078    0.630827    4.173266
     34          7           0        6.399854   -1.501422    1.021338
     35          6           0        7.444291   -2.246986    1.468617
     36          6           0        7.022689   -3.632382    1.656213
     37          6           0        5.685111   -3.691707    1.191481
     38          6           0        5.389242   -2.337139    0.756647
     39          6           0        7.942951   -4.717626    2.145204
     40          6           0        4.511718   -4.507147    0.923018
     41          8           0        4.253701   -5.683843    1.221571
     42          6           0        3.440462   -3.585855    0.218575
     43          6           0        3.186946   -4.231383   -1.127998
     44          8           0        3.996889   -4.318408   -2.002265
     45          8           0        1.873942   -4.609783   -1.263568
     46          6           0        1.403025   -5.024982   -2.661767
     47          6           0       -3.160377   -2.054192   -2.133512
     48          6           0       -4.512630   -1.545610   -1.617680
     49          6           0       -5.588118   -2.228012   -1.273309
     50          6           0       -5.559516   -3.746052   -1.262881
     51          6           0       -6.847980   -1.623220   -0.722103
     52          6           0       -7.564194   -0.514606   -1.578263
     53          6           0       -7.893244    0.715936   -0.684911
     54          6           0       -9.180372    1.440982   -1.055228
     55          6           0       -9.184213    2.950938   -0.708451
     56          6           0      -10.318120    0.618214   -0.371940
     57          6           0      -11.494032    0.365557   -1.239501
     58          6           0      -12.606672    1.401423   -0.885156
     59          6           0      -13.929525    0.896324   -0.202861
     60          6           0      -14.911608    0.477293   -1.329003
     61          6           0      -14.604645    1.872663    0.856680
     62          6           0      -15.014239    1.228661    2.196187
     63          6           0      -16.317823    1.754985    2.897700
     64          6           0      -17.440575    0.717225    3.062000
     65          6           0      -18.417906    0.995421    4.235084
     66          6           0      -18.224750    0.651277    1.697065
     67          1           0        3.263579    3.152259   -1.629575
     68          1           0        9.367829    3.822927    0.360925
     69          1           0        9.423141   -2.178491    2.302138
     70          1           0        1.930388   -1.338147   -1.659933
     71          1           0        1.472929    1.356178   -0.990288
     72          1           0        2.531548    1.731715   -3.291024
     73          1           0        0.911197    0.929825   -3.106692
     74          1           0        2.145726   -0.058453   -3.601081
     75          1           0        0.148790    0.017415    0.145384
     76          1           0        1.203982   -0.951873    1.165979
     77          1           0       -0.517465   -2.429795    0.726245
     78          1           0        0.727253   -2.818515   -0.529456
     79          1           0        4.248705    6.541104   -0.858285
     80          1           0        3.592962    5.199854   -1.954339
     81          1           0        4.992200    6.031817   -2.405426
     82          1           0        8.107564    7.987300   -1.387995
     83          1           0        6.574287    7.794548   -0.688787
     84          1           0        6.922942    6.995761   -2.278933
     85          1           0       10.901635    2.219037    1.818492
     86          1           0       11.041670   -0.602499    1.019721
     87          1           0       12.337802    2.358839    0.156747
     88          1           0       10.983736    2.131537   -0.953856
     89          1           0       11.970531    0.710421   -0.267397
     90          1           0       12.125646    0.223911    3.069624
     91          1           0       11.044334   -1.136861    3.356226
     92          1           0        9.519050    1.356543    3.859665
     93          1           0       10.924423    1.400606    4.580702
     94          1           0        9.901740   -0.007724    4.976784
     95          1           0        8.776664   -4.309512    2.717341
     96          1           0        8.352406   -5.084084    1.204787
     97          1           0        7.376869   -5.503893    2.644494
     98          1           0        2.469957   -3.572924    0.715319
     99          1           0        1.609541   -4.251144   -3.401102
    100          1           0        0.315655   -5.068647   -2.602500
    101          1           0        1.805107   -5.951136   -3.074463
    102          1           0       -3.176565   -3.042543   -2.594703
    103          1           0       -2.831215   -1.350195   -2.897948
    104          1           0       -4.617587   -0.460153   -1.644745
    105          1           0       -5.811485   -4.258362   -0.333925
    106          1           0       -4.631113   -4.211286   -1.593506
    107          1           0       -6.268520   -4.055720   -2.030402
    108          1           0       -6.655979   -1.405335    0.328814
    109          1           0       -7.593134   -2.416694   -0.669681
    110          1           0       -8.425892   -0.984083   -2.052617
    111          1           0       -6.834221   -0.216000   -2.330504
    112          1           0       -7.074567    1.436612   -0.680142
    113          1           0       -7.968101    0.451194    0.369602
    114          1           0       -9.285824    1.376152   -2.138199
    115          1           0       -8.288331    3.227561   -0.152001
    116          1           0      -10.081539    3.256946   -0.170386
    117          1           0       -9.190027    3.672575   -1.524740
    118          1           0      -10.699327    1.186097    0.477076
    119          1           0       -9.902382   -0.326196   -0.021983
    120          1           0      -11.846699   -0.657506   -1.108086
    121          1           0      -11.276624    0.461651   -2.303141
    122          1           0      -13.000061    1.792852   -1.824243
    123          1           0      -12.216767    2.359493   -0.541134
    124          1           0      -13.726608   -0.080610    0.236087
    125          1           0      -15.919256    0.298990   -0.953862
    126          1           0      -14.603743   -0.499429   -1.703199
    127          1           0      -14.920361    1.190970   -2.151925
    128          1           0      -15.409624    2.501501    0.475335
    129          1           0      -13.764036    2.506496    1.139244
    130          1           0      -14.269019    1.191565    2.990802
    131          1           0      -15.206016    0.204721    1.873881
    132          1           0      -16.738811    2.676462    2.494073
    133          1           0      -16.046816    1.923047    3.939634
    134          1           0      -16.935519   -0.244064    3.162904
    135          1           0      -18.357644    2.062113    4.451598
    136          1           0      -17.967566    0.492514    5.090653
    137          1           0      -19.399947    0.583219    4.007018
    138          1           0      -19.165954    1.184900    1.827690
    139          1           0      -18.600427   -0.348167    1.481104
    140          1           0      -17.676836    0.917537    0.792647
 ---------------------------------------------------------------------

 SCF Done:  E(RwB97XD) =  -3007.87036476     A.U. after   18 cycles

 Excitation energies and oscillator strengths:

 Excited State   1:      Singlet-A      1.6005 eV  774.65 nm  f=0.4047  <S**2>=0.000
     245 -> 248        0.17677
     246 -> 247        0.68670
     245 <- 248        0.11652
 This state for optimization and/or second-order correction.
 Total Energy, E(TD-HF/TD-DFT) =  -3007.81154708
 Copying the excited state density for this state as the 1-particle RhoCI density.

 Excited State   2:      Singlet-A      2.0944 eV  591.97 nm  f=0.1512  <S**2>=0.000
     245 -> 247        0.65678
     246 -> 248       -0.24685
     246 <- 248       -0.10052

 Excited State   3:      Singlet-A      3.2548 eV  380.93 nm  f=0.0009  <S**2>=0.000
     244 -> 247        0.67677
     246 -> 248        0.11137

 Excited State   4:      Singlet-A      3.4723 eV  357.07 nm  f=0.0244  <S**2>=0.000
     239 -> 247        0.14740
     239 -> 249        0.12065
     240 -> 247        0.45357
     240 -> 249        0.25440
     240 -> 250       -0.17260
     241 -> 247       -0.25539
     241 -> 249       -0.11817
     241 -> 250        0.10745
     246 -> 248       -0.17746

 Excited State   5:      Singlet-A      3.4902 eV  355.23 nm  f=0.0026  <S**2>=0.000
     239 -> 247        0.12257
     243 -> 247        0.64729
     246 -> 248        0.18879

 The electronic state is 1-A.
 Alpha  occ. eigenvalues --  -46.95131 -19.30440 -19.30282 -19.26350 -19.24361
 Alpha  occ. eigenvalues --  -19.23923 -19.23623 -14.47380 -14.46255 -14.44316
 Alpha  occ. eigenvalues --  -14.43802 -10.44396 -10.42764 -10.39400 -10.39250
 Alpha  occ. eigenvalues --  -10.36113 -10.35595 -10.35584 -10.35458 -10.34703
 Alpha  occ. eigenvalues --  -10.34273 -10.34264 -10.33987 -10.33965 -10.33641
 Alpha  occ. eigenvalues --  -10.33445 -10.33346 -10.32724 -10.32678 -10.32438
 Alpha  occ. eigenvalues --  -10.32106 -10.31929 -10.31893 -10.31853 -10.31552
 Alpha  occ. eigenvalues --  -10.31441 -10.31036 -10.30919 -10.30778 -10.30753
 Alpha  occ. eigenvalues --  -10.30577 -10.30189 -10.30182 -10.30135 -10.30110
 Alpha  occ. eigenvalues --  -10.30062 -10.30035 -10.29718 -10.29534 -10.29514
 Alpha  occ. eigenvalues --  -10.29488 -10.29393 -10.29184 -10.29033 -10.28975
 Alpha  occ. eigenvalues --  -10.28933 -10.28927 -10.28886 -10.28637 -10.28590
 Alpha  occ. eigenvalues --  -10.28567 -10.28518 -10.28483 -10.28211 -10.28146
 Alpha  occ. eigenvalues --  -10.27870  -3.21037  -1.94650  -1.94125  -1.94032
 Alpha  occ. eigenvalues --   -1.18099  -1.17439  -1.10888  -1.10449  -1.09721
 Alpha  occ. eigenvalues --   -1.09350  -1.06365  -1.05137  -1.04780  -1.04041
 Alpha  occ. eigenvalues --   -0.94117  -0.92580  -0.92056  -0.91443  -0.91094
 Alpha  occ. eigenvalues --   -0.90438  -0.89866  -0.89450  -0.88990  -0.88465
 Alpha  occ. eigenvalues --   -0.88042  -0.87728  -0.86147  -0.85230  -0.84862
 Alpha  occ. eigenvalues --   -0.84146  -0.83675  -0.83048  -0.82629  -0.82196
 Alpha  occ. eigenvalues --   -0.81729  -0.80351  -0.79794  -0.79142  -0.78130
 Alpha  occ. eigenvalues --   -0.77680  -0.76977  -0.76958  -0.76565  -0.76182
 Alpha  occ. eigenvalues --   -0.75427  -0.74903  -0.73444  -0.72799  -0.72068
 Alpha  occ. eigenvalues --   -0.70858  -0.70650  -0.69193  -0.69025  -0.67420
 Alpha  occ. eigenvalues --   -0.67264  -0.66872  -0.66475  -0.66184  -0.65698
 Alpha  occ. eigenvalues --   -0.65296  -0.65222  -0.64074  -0.63785  -0.62178
 Alpha  occ. eigenvalues --   -0.61708  -0.61338  -0.61028  -0.60605  -0.59630
 Alpha  occ. eigenvalues --   -0.59245  -0.58522  -0.58089  -0.57705  -0.57506
 Alpha  occ. eigenvalues --   -0.56889  -0.56731  -0.56533  -0.56361  -0.55927
 Alpha  occ. eigenvalues --   -0.55632  -0.55331  -0.54824  -0.54562  -0.54519
 Alpha  occ. eigenvalues --   -0.54427  -0.54330  -0.54052  -0.53971  -0.53915
 Alpha  occ. eigenvalues --   -0.53309  -0.53157  -0.52969  -0.52648  -0.52530
 Alpha  occ. eigenvalues --   -0.52257  -0.52177  -0.52014  -0.51979  -0.51563
 Alpha  occ. eigenvalues --   -0.51431  -0.51166  -0.50899  -0.50670  -0.50393
 Alpha  occ. eigenvalues --   -0.50336  -0.50061  -0.50023  -0.49711  -0.49589
 Alpha  occ. eigenvalues --   -0.49506  -0.49372  -0.49003  -0.48750  -0.48512
 Alpha  occ. eigenvalues --   -0.48207  -0.48084  -0.47941  -0.47806  -0.47760
 Alpha  occ. eigenvalues --   -0.47546  -0.47274  -0.47079  -0.46786  -0.46664
 Alpha  occ. eigenvalues --   -0.46407  -0.46360  -0.45858  -0.45770  -0.45692
 Alpha  occ. eigenvalues --   -0.45521  -0.45239  -0.45168  -0.45077  -0.44974
 Alpha  occ. eigenvalues --   -0.44741  -0.44606  -0.44581  -0.44294  -0.43896
 Alpha  occ. eigenvalues --   -0.43805  -0.43529  -0.43287  -0.43102  -0.42862
 Alpha  occ. eigenvalues --   -0.42677  -0.42569  -0.42138  -0.42111  -0.41948
 Alpha  occ. eigenvalues --   -0.41753  -0.41660  -0.41297  -0.40891  -0.40818
 Alpha  occ. eigenvalues --   -0.40749  -0.39475  -0.39423  -0.39217  -0.39143
 Alpha  occ. eigenvalues --   -0.39107  -0.39053  -0.38957  -0.38720  -0.38348
 Alpha  occ. eigenvalues --   -0.38261  -0.37315  -0.37283  -0.36893  -0.36641
 Alpha  occ. eigenvalues --   -0.36569  -0.36094  -0.35032  -0.33559  -0.32847
 Alpha  occ. eigenvalues --   -0.32778  -0.32591  -0.32285  -0.31849  -0.25968
 Alpha  occ. eigenvalues --   -0.23227
 Alpha virt. eigenvalues --   -0.07650   0.00528   0.02208   0.03967   0.05133
 Alpha virt. eigenvalues --    0.07050   0.07533   0.07889   0.07989   0.08890
 Alpha virt. eigenvalues --    0.09980   0.11148   0.12117   0.12373   0.12514

 Mulliken charges:
               1
     1  Mg   0.962787
     2  C    0.002134
     3  C   -0.068354
     4  C   -0.056735
     5  C   -0.113801
     6  N   -0.354381
     7  C    0.030584
     8  C   -0.107068
     9  C   -0.090633
    10  C    0.037017
    11  C    0.046042
    12  C    0.065743
    13  C    0.006414
    14  C    0.230009
    15  O   -0.299690
    16  O   -0.378037
    17  N   -0.422888
    18  C    0.135661
    19  C   -0.181438
    20  C   -0.074006
    21  C    0.132044
    22  C    0.084238
    23  C    0.056175
    24  O   -0.266846
    25  C    0.000792
    26  N   -0.442381
    27  C    0.098102
    28  C   -0.119221
    29  C   -0.058088
    30  C    0.141129
    31  C    0.039133
    32  C   -0.024653
    33  C   -0.085097
    34  N   -0.411785
    35  C    0.123338
    36  C   -0.204317
    37  C   -0.008133
    38  C    0.106722
    39  C    0.088275
    40  C    0.128372
    41  O   -0.224081
    42  C   -0.105056
    43  C    0.264455
    44  O   -0.220208
    45  O   -0.386846
    46  C    0.137968
    47  C    0.246280
    48  C   -0.129392
    49  C   -0.192539
    50  C    0.012613
    51  C    0.046698
    52  C   -0.015919
    53  C   -0.000129
    54  C   -0.175836
    55  C    0.007359
    56  C    0.010432
    57  C    0.011129
    58  C   -0.011038
    59  C   -0.174480
    60  C   -0.016269
    61  C    0.038057
    62  C   -0.037164
    63  C   -0.009759
    64  C   -0.230519
    65  C    0.013825
    66  C   -0.029404
    67  H   -0.009282
    68  H    0.023059
    69  H   -0.009598
    70  H    0.044434
    71  H    0.030671
    72  H    0.039693
    73  H    0.031904
    74  H    0.052404
    75  H    0.040490
    76  H    0.044351
    77  H    0.061515
    78  H    0.058350
    79  H    0.071513
    80  H    0.037208
    81  H    0.033189
    82  H    0.051834
    83  H    0.064094
    84  H    0.048258
    85  H    0.040051
    86  H    0.036607
    87  H    0.033539
    88  H    0.049367
    89  H    0.029849
    90  H    0.039907
    91  H    0.034003
    92  H    0.037018
    93  H    0.021525
    94  H    0.051096
    95  H    0.036274
    96  H    0.061610
    97  H    0.067188
    98  H    0.063060
    99  H    0.060130
   100  H    0.059387
   101  H    0.069384
   102  H    0.046703
   103  H    0.036813
   104  H    0.013522
   105  H    0.048873
   106  H    0.019633
   107  H    0.035468
   108  H    0.052470
   109  H    0.007781
   110  H    0.035401
   111  H    0.033701
   112  H    0.007792
   113  H    0.016298
   114  H    0.017502
   115  H    0.021058
   116  H    0.020433
   117  H    0.024196
   118  H    0.024218
   119  H    0.014849
   120  H    0.012817
   121  H    0.018155
   122  H   -0.007109
   123  H    0.002340
   124  H    0.016772
   125  H    0.026089
   126  H    0.023641
   127  H    0.032095
   128  H    0.028466
   129  H    0.013527
   130  H    0.033220
   131  H    0.015922
   132  H    0.023493
   133  H    0.005278
   134  H    0.022140
   135  H    0.034255
   136  H    0.029790
   137  H    0.041103
   138  H    0.021178
   139  H    0.016825
   140  H    0.031873
 Sum of Mulliken charges =  -0.00000

 Dipole moment (field-independent basis, Debye):
    X=             -3.2565    Y=              3.3711    Z=             -0.5699  Tot=              4.7216
 Quadrupole moment (field-independent basis, Debye-Ang):
   XX=           -388.5176   YY=           -419.2125   ZZ=           -399.0977
   XY=              8.2042   XZ=             11.2015   YZ=             -6.6428

 Normal termination of Gaussian 16 at Thu Apr 28 05:25:14 2022.
