 Gaussian 16, Revision A.03,
 Gaussian 16:  ES64L-G16RevA.03 25-Dec-2016

 --------------------
 #p ZINDO=(nstates=5)
 --------------------

 ------------------------------
 step_1451_chromophore_16 ZINDO
 ------------------------------
 Symbolic Z-matrix:
 Charge =  0 Multiplicity = 1

                         Standard orientation:
 ---------------------------------------------------------------------
 Center     Atomic      Atomic             Coordinates (Angstroms)
 Number     Number       Type             X           Y           Z
 ---------------------------------------------------------------------
      1         12           0        6.325469    0.516204    0.460075
      2          6           0        4.062459   -2.191498    0.209727
      3          6           0        3.997951    2.531955   -1.112923
      4          6           0        8.579651    3.070439    0.427246
      5          6           0        8.699520   -1.594987    1.728705
      6          7           0        4.165637    0.239234   -0.177584
      7          6           0        3.449662   -0.951982   -0.152268
      8          6           0        2.036637   -0.667874   -0.807231
      9          6           0        2.197483    0.698950   -1.472671
     10          6           0        3.524839    1.208745   -0.921651
     11          6           0        1.991327    0.832618   -2.993116
     12          6           0        0.802226   -0.855486    0.158009
     13          6           0       -0.001008   -2.090356   -0.172751
     14          6           0       -0.934301   -2.111237   -1.369227
     15          8           0       -0.645416   -2.334686   -2.570431
     16          8           0       -2.283630   -1.877679   -0.972404
     17          7           0        6.175663    2.640163   -0.062407
     18          6           0        5.130234    3.279266   -0.642596
     19          6           0        5.500422    4.655630   -0.928028
     20          6           0        6.874785    4.752439   -0.521554
     21          6           0        7.273667    3.487088    0.003593
     22          6           0        4.457957    5.697261   -1.516167
     23          6           0        7.774777    5.989083   -0.661194
     24          8           0        8.908360    6.010245   -0.121801
     25          6           0        7.304958    7.255765   -1.291281
     26          7           0        8.317453    0.693468    0.764118
     27          6           0        9.063975    1.825904    0.651988
     28          6           0       10.514903    1.549515    1.050255
     29          6           0       10.484544    0.101816    1.636744
     30          6           0        9.035637   -0.304690    1.419938
     31          6           0       11.521094    1.691320   -0.114376
     32          6           0       11.087157   -0.103516    3.013574
     33          6           0       10.269078    0.630827    4.173266
     34          7           0        6.399854   -1.501422    1.021338
     35          6           0        7.444291   -2.246986    1.468617
     36          6           0        7.022689   -3.632382    1.656213
     37          6           0        5.685111   -3.691707    1.191481
     38          6           0        5.389242   -2.337139    0.756647
     39          6           0        7.942951   -4.717626    2.145204
     40          6           0        4.511718   -4.507147    0.923018
     41          8           0        4.253701   -5.683843    1.221571
     42          6           0        3.440462   -3.585855    0.218575
     43          6           0        3.186946   -4.231383   -1.127998
     44          8           0        3.996889   -4.318408   -2.002265
     45          8           0        1.873942   -4.609783   -1.263568
     46          6           0        1.403025   -5.024982   -2.661767
     47          6           0       -3.160377   -2.054192   -2.133512
     48          6           0       -4.512630   -1.545610   -1.617680
     49          6           0       -5.588118   -2.228012   -1.273309
     50          6           0       -5.559516   -3.746052   -1.262881
     51          6           0       -6.847980   -1.623220   -0.722103
     52          6           0       -7.564194   -0.514606   -1.578263
     53          6           0       -7.893244    0.715936   -0.684911
     54          6           0       -9.180372    1.440982   -1.055228
     55          6           0       -9.184213    2.950938   -0.708451
     56          6           0      -10.318120    0.618214   -0.371940
     57          6           0      -11.494032    0.365557   -1.239501
     58          6           0      -12.606672    1.401423   -0.885156
     59          6           0      -13.929525    0.896324   -0.202861
     60          6           0      -14.911608    0.477293   -1.329003
     61          6           0      -14.604645    1.872663    0.856680
     62          6           0      -15.014239    1.228661    2.196187
     63          6           0      -16.317823    1.754985    2.897700
     64          6           0      -17.440575    0.717225    3.062000
     65          6           0      -18.417906    0.995421    4.235084
     66          6           0      -18.224750    0.651277    1.697065
     67          1           0        3.263579    3.152259   -1.629575
     68          1           0        9.367829    3.822927    0.360925
     69          1           0        9.423141   -2.178491    2.302138
     70          1           0        1.930388   -1.338147   -1.659933
     71          1           0        1.472929    1.356178   -0.990288
     72          1           0        2.531548    1.731715   -3.291024
     73          1           0        0.911197    0.929825   -3.106692
     74          1           0        2.145726   -0.058453   -3.601081
     75          1           0        0.148790    0.017415    0.145384
     76          1           0        1.203982   -0.951873    1.165979
     77          1           0       -0.517465   -2.429795    0.726245
     78          1           0        0.727253   -2.818515   -0.529456
     79          1           0        4.248705    6.541104   -0.858285
     80          1           0        3.592962    5.199854   -1.954339
     81          1           0        4.992200    6.031817   -2.405426
     82          1           0        8.107564    7.987300   -1.387995
     83          1           0        6.574287    7.794548   -0.688787
     84          1           0        6.922942    6.995761   -2.278933
     85          1           0       10.901635    2.219037    1.818492
     86          1           0       11.041670   -0.602499    1.019721
     87          1           0       12.337802    2.358839    0.156747
     88          1           0       10.983736    2.131537   -0.953856
     89          1           0       11.970531    0.710421   -0.267397
     90          1           0       12.125646    0.223911    3.069624
     91          1           0       11.044334   -1.136861    3.356226
     92          1           0        9.519050    1.356543    3.859665
     93          1           0       10.924423    1.400606    4.580702
     94          1           0        9.901740   -0.007724    4.976784
     95          1           0        8.776664   -4.309512    2.717341
     96          1           0        8.352406   -5.084084    1.204787
     97          1           0        7.376869   -5.503893    2.644494
     98          1           0        2.469957   -3.572924    0.715319
     99          1           0        1.609541   -4.251144   -3.401102
    100          1           0        0.315655   -5.068647   -2.602500
    101          1           0        1.805107   -5.951136   -3.074463
    102          1           0       -3.176565   -3.042543   -2.594703
    103          1           0       -2.831215   -1.350195   -2.897948
    104          1           0       -4.617587   -0.460153   -1.644745
    105          1           0       -5.811485   -4.258362   -0.333925
    106          1           0       -4.631113   -4.211286   -1.593506
    107          1           0       -6.268520   -4.055720   -2.030402
    108          1           0       -6.655979   -1.405335    0.328814
    109          1           0       -7.593134   -2.416694   -0.669681
    110          1           0       -8.425892   -0.984083   -2.052617
    111          1           0       -6.834221   -0.216000   -2.330504
    112          1           0       -7.074567    1.436612   -0.680142
    113          1           0       -7.968101    0.451194    0.369602
    114          1           0       -9.285824    1.376152   -2.138199
    115          1           0       -8.288331    3.227561   -0.152001
    116          1           0      -10.081539    3.256946   -0.170386
    117          1           0       -9.190027    3.672575   -1.524740
    118          1           0      -10.699327    1.186097    0.477076
    119          1           0       -9.902382   -0.326196   -0.021983
    120          1           0      -11.846699   -0.657506   -1.108086
    121          1           0      -11.276624    0.461651   -2.303141
    122          1           0      -13.000061    1.792852   -1.824243
    123          1           0      -12.216767    2.359493   -0.541134
    124          1           0      -13.726608   -0.080610    0.236087
    125          1           0      -15.919256    0.298990   -0.953862
    126          1           0      -14.603743   -0.499429   -1.703199
    127          1           0      -14.920361    1.190970   -2.151925
    128          1           0      -15.409624    2.501501    0.475335
    129          1           0      -13.764036    2.506496    1.139244
    130          1           0      -14.269019    1.191565    2.990802
    131          1           0      -15.206016    0.204721    1.873881
    132          1           0      -16.738811    2.676462    2.494073
    133          1           0      -16.046816    1.923047    3.939634
    134          1           0      -16.935519   -0.244064    3.162904
    135          1           0      -18.357644    2.062113    4.451598
    136          1           0      -17.967566    0.492514    5.090653
    137          1           0      -19.399947    0.583219    4.007018
    138          1           0      -19.165954    1.184900    1.827690
    139          1           0      -18.600427   -0.348167    1.481104
    140          1           0      -17.676836    0.917537    0.792647
 ---------------------------------------------------------------------

 SCF Done:  E(RZINDO/S) =  -473.994751362     A.U. after   20 cycles

 Excitation energies and oscillator strengths:

 Excited State   1:      Singlet-A      1.2144 eV 1020.92 nm  f=0.6611  <S**2>=0.000
     175 ->178        -0.17710
     176 ->177         0.66467
 This state for optimization and/or second-order correction.
 Total Energy, E(CIS/TDA) =  -473.950121522
 Copying the excited state density for this state as the 1-particle RhoCI density.

 Excited State   2:      Singlet-A      1.8939 eV  654.66 nm  f=0.0949  <S**2>=0.000
     175 ->177         0.57836
     176 ->178         0.36717

 Excited State   3:      Singlet-A      2.9007 eV  427.43 nm  f=0.0177  <S**2>=0.000
     169 ->177         0.26028
     169 ->179        -0.40469
     169 ->181        -0.35053
     169 ->185        -0.18748
     169 ->187        -0.11431
     176 ->179         0.10326

 Excited State   4:      Singlet-A      2.9427 eV  421.33 nm  f=0.5474  <S**2>=0.000
     171 ->177        -0.10777
     175 ->177        -0.26920
     176 ->178         0.51688
     176 ->179         0.26026
     176 ->181        -0.10930

 Excited State   5:      Singlet-A      3.0081 eV  412.16 nm  f=0.0208  <S**2>=0.000
     168 ->177         0.31195
     168 ->178         0.24321
     168 ->179         0.29797
     168 ->181        -0.31114
     168 ->185         0.18300

 The electronic state is 1-A.
 Alpha  occ. eigenvalues --   -1.83155  -1.80590  -1.78527  -1.72411  -1.70763
 Alpha  occ. eigenvalues --   -1.69970  -1.65661  -1.60337  -1.57058  -1.56766
 Alpha  occ. eigenvalues --   -1.55369  -1.51723  -1.48956  -1.46750  -1.46318
 Alpha  occ. eigenvalues --   -1.43745  -1.42508  -1.39790  -1.38603  -1.37654
 Alpha  occ. eigenvalues --   -1.35854  -1.33837  -1.32369  -1.31215  -1.28822
 Alpha  occ. eigenvalues --   -1.27940  -1.24683  -1.21297  -1.20381  -1.18087
 Alpha  occ. eigenvalues --   -1.16787  -1.15481  -1.14891  -1.14615  -1.13357
 Alpha  occ. eigenvalues --   -1.12633  -1.10254  -1.09241  -1.04821  -1.04481
 Alpha  occ. eigenvalues --   -1.02092  -1.01333  -0.99241  -0.98013  -0.97229
 Alpha  occ. eigenvalues --   -0.96874  -0.94515  -0.94227  -0.93216  -0.92247
 Alpha  occ. eigenvalues --   -0.91330  -0.90562  -0.89875  -0.87854  -0.86340
 Alpha  occ. eigenvalues --   -0.85494  -0.83833  -0.82810  -0.82253  -0.80705
 Alpha  occ. eigenvalues --   -0.79206  -0.79186  -0.78460  -0.76502  -0.76101
 Alpha  occ. eigenvalues --   -0.75766  -0.74699  -0.74640  -0.73942  -0.73693
 Alpha  occ. eigenvalues --   -0.73203  -0.72257  -0.71782  -0.71459  -0.71188
 Alpha  occ. eigenvalues --   -0.70534  -0.69435  -0.69123  -0.68255  -0.68076
 Alpha  occ. eigenvalues --   -0.67723  -0.67061  -0.66633  -0.66244  -0.65463
 Alpha  occ. eigenvalues --   -0.65129  -0.64306  -0.63987  -0.63487  -0.63273
 Alpha  occ. eigenvalues --   -0.62986  -0.62764  -0.62512  -0.62093  -0.61910
 Alpha  occ. eigenvalues --   -0.61121  -0.60984  -0.60393  -0.60130  -0.59626
 Alpha  occ. eigenvalues --   -0.59469  -0.58990  -0.58637  -0.58534  -0.57985
 Alpha  occ. eigenvalues --   -0.57385  -0.57269  -0.56904  -0.56769  -0.56464
 Alpha  occ. eigenvalues --   -0.56180  -0.55778  -0.55428  -0.55219  -0.54578
 Alpha  occ. eigenvalues --   -0.54132  -0.53903  -0.53773  -0.53232  -0.52988
 Alpha  occ. eigenvalues --   -0.52751  -0.52602  -0.52342  -0.52139  -0.51685
 Alpha  occ. eigenvalues --   -0.51424  -0.50609  -0.50530  -0.50055  -0.50029
 Alpha  occ. eigenvalues --   -0.49912  -0.49824  -0.49218  -0.49141  -0.48714
 Alpha  occ. eigenvalues --   -0.48687  -0.48445  -0.48152  -0.47691  -0.47527
 Alpha  occ. eigenvalues --   -0.47379  -0.47013  -0.46766  -0.46391  -0.46324
 Alpha  occ. eigenvalues --   -0.46153  -0.45594  -0.45441  -0.45417  -0.45372
 Alpha  occ. eigenvalues --   -0.45342  -0.45113  -0.44651  -0.44021  -0.43944
 Alpha  occ. eigenvalues --   -0.43449  -0.43387  -0.42795  -0.42683  -0.42659
 Alpha  occ. eigenvalues --   -0.42599  -0.41736  -0.41275  -0.39840  -0.38784
 Alpha  occ. eigenvalues --   -0.38090  -0.37312  -0.35490  -0.35220  -0.34339
 Alpha  occ. eigenvalues --   -0.33027  -0.32999  -0.32786  -0.32383  -0.26731
 Alpha  occ. eigenvalues --   -0.21998
 Alpha virt. eigenvalues --   -0.09127  -0.01967  -0.00457   0.00545   0.01011
 Alpha virt. eigenvalues --    0.02775   0.03174   0.03356   0.04630   0.05219
 Alpha virt. eigenvalues --    0.05912   0.06361   0.07113   0.07175   0.07620

 Mulliken charges:
               1
     1  Mg   0.423648
     2  C   -0.033899
     3  C   -0.071355
     4  C   -0.065639
     5  C   -0.073282
     6  N   -0.283756
     7  C    0.100608
     8  C    0.003348
     9  C    0.011035
    10  C    0.132536
    11  C   -0.050097
    12  C   -0.009851
    13  C    0.005531
    14  C    0.461438
    15  O   -0.519331
    16  O   -0.269492
    17  N   -0.334276
    18  C    0.109989
    19  C   -0.002098
    20  C   -0.036450
    21  C    0.147662
    22  C   -0.047574
    23  C    0.323014
    24  O   -0.536236
    25  C   -0.024746
    26  N   -0.283207
    27  C    0.153680
    28  C    0.002014
    29  C    0.003399
    30  C    0.129141
    31  C   -0.054649
    32  C   -0.025162
    33  C   -0.074695
    34  N   -0.299413
    35  C    0.093382
    36  C    0.035705
    37  C   -0.057837
    38  C    0.108586
    39  C   -0.038401
    40  C    0.340816
    41  O   -0.526905
    42  C    0.056602
    43  C    0.492811
    44  O   -0.506012
    45  O   -0.279637
    46  C    0.073838
    47  C    0.106558
    48  C   -0.089547
    49  C    0.005284
    50  C   -0.048721
    51  C   -0.026274
    52  C   -0.030234
    53  C   -0.029209
    54  C   -0.009123
    55  C   -0.061201
    56  C   -0.028347
    57  C   -0.026793
    58  C   -0.046630
    59  C   -0.011195
    60  C   -0.058309
    61  C   -0.032307
    62  C   -0.039302
    63  C   -0.036203
    64  C   -0.014828
    65  C   -0.056726
    66  C   -0.068477
    67  H    0.015272
    68  H    0.043490
    69  H    0.028725
    70  H    0.034291
    71  H    0.022339
    72  H    0.030647
    73  H    0.014903
    74  H    0.037772
    75  H    0.028447
    76  H    0.025806
    77  H    0.039173
    78  H    0.048350
    79  H    0.043077
    80  H    0.032611
    81  H    0.022812
    82  H    0.035126
    83  H    0.042500
    84  H    0.032269
    85  H    0.031892
    86  H    0.023510
    87  H    0.018753
    88  H    0.030932
    89  H    0.025009
    90  H    0.023063
    91  H    0.019273
    92  H    0.024636
    93  H    0.008702
    94  H    0.028844
    95  H    0.027936
    96  H    0.036981
    97  H    0.040529
    98  H    0.048778
    99  H    0.044030
   100  H    0.034564
   101  H    0.053355
   102  H    0.057780
   103  H    0.039752
   104  H    0.020635
   105  H    0.028436
   106  H    0.017141
   107  H    0.020572
   108  H    0.034476
   109  H    0.007621
   110  H    0.029590
   111  H    0.024410
   112  H    0.010094
   113  H    0.016562
   114  H    0.019125
   115  H    0.017474
   116  H    0.017456
   117  H    0.015745
   118  H    0.021335
   119  H    0.015666
   120  H    0.016837
   121  H    0.018908
   122  H    0.000827
   123  H    0.026280
   124  H    0.020496
   125  H    0.013359
   126  H    0.011740
   127  H    0.023306
   128  H    0.032917
   129  H    0.009074
   130  H    0.026350
   131  H    0.015013
   132  H    0.025897
   133  H    0.005273
   134  H    0.019920
   135  H    0.026427
   136  H    0.013708
   137  H    0.030281
   138  H    0.017582
   139  H    0.005683
   140  H    0.024652
 Sum of Mulliken charges =  -0.00000

 Dipole moment (field-independent basis, Debye):
    X=             -4.7217    Y=              5.1005    Z=             -0.6655  Tot=              6.9823
 N-N= 4.167041320211D+03 E-N= 0.000000000000D+00  KE=-9.008218647568D+03
 Leave Link  601 at Thu Apr 28 05:45:14 2022, MaxMem=  6710886400 cpu:               0.8 elap:               0.0
 (Enter /sw/apps/gaussian-16.0/g16/l9999.exe)
 1\1\GINC-BP1-COMPUTE160\SP\RZINDO CIS\STO-3G\C55H74Mg1N4O6\OF15641\28-
 Apr-2022\0\\#p ZINDO=(nstates=5)\\step_1451_chromophore_16 ZINDO\\0,1\
 Mg,0,40.609,41.793,27.372\C,0,39.721,44.017,29.976\C,0,41.79,39.575,29
 .747\C,0,41.734,39.752,24.887\C,0,39.711,44.151,25.062\N,0,40.548,41.7
 21,29.639\C,0,40.109,42.737,30.48\C,0,40.376,42.267,31.968\C,0,41.292,
 41.052,31.821\C,0,41.24,40.746,30.328\C,0,42.69,41.072,32.467\C,0,39.0
 83,42.088,32.855\C,0,38.947,43.174,33.895\C,0,39.806,43.162,35.146\O,0

 Normal termination of Gaussian 16 at Thu Apr 28 05:45:14 2022.
