 Gaussian 16, Revision A.03,
 Gaussian 16:  ES64L-G16RevA.03 25-Dec-2016

 ------------------------------
 #p blyp/Def2SVP td=(nstates=5)
 ------------------------------

 --------------------------------------------------
 step_1101_chromophore_4 TDDFT with blyp functional
 --------------------------------------------------
 Symbolic Z-matrix:
 Charge =  0 Multiplicity = 1

                         Standard orientation:
 ---------------------------------------------------------------------
 Center     Atomic      Atomic             Coordinates (Angstroms)
 Number     Number       Type             X           Y           Z
 ---------------------------------------------------------------------
      1         12           0        5.793852    0.580381    0.245828
      2          6           0        3.366534   -1.990736   -0.173266
      3          6           0        3.294291    2.913691   -0.610799
      4          6           0        8.227607    2.921294   -0.133836
      5          6           0        8.323388   -1.974350    0.571441
      6          7           0        3.571870    0.464070   -0.313661
      7          6           0        2.833631   -0.712053   -0.369670
      8          6           0        1.322831   -0.383138   -0.653082
      9          6           0        1.381736    1.105544   -1.049127
     10          6           0        2.866306    1.526595   -0.568832
     11          6           0        0.985043    1.445303   -2.479914
     12          6           0        0.311909   -0.775769    0.499019
     13          6           0       -1.114654   -0.770446    0.055831
     14          6           0       -1.897399   -2.118913   -0.094584
     15          8           0       -2.072523   -2.715164   -1.183313
     16          8           0       -2.658683   -2.422063    1.026884
     17          7           0        5.744647    2.690063   -0.055459
     18          6           0        4.630770    3.426619   -0.364378
     19          6           0        5.073258    4.826350   -0.536560
     20          6           0        6.478000    4.855395   -0.457180
     21          6           0        6.894124    3.426025   -0.209982
     22          6           0        4.139592    5.977877   -0.815997
     23          6           0        7.402119    6.095488   -0.465064
     24          8           0        8.616167    5.956310   -0.352810
     25          6           0        6.814083    7.459059   -0.617701
     26          7           0        8.005247    0.463627    0.219859
     27          6           0        8.689908    1.583089    0.104774
     28          6           0       10.191141    1.300492    0.282549
     29          6           0       10.211314   -0.167537    0.764681
     30          6           0        8.775714   -0.621547    0.422794
     31          6           0       10.994139    1.530113   -1.058757
     32          6           0       10.505610   -0.374306    2.320365
     33          6           0       11.458323   -1.494948    2.605749
     34          7           0        5.871482   -1.482813    0.383491
     35          6           0        6.944575   -2.335088    0.533491
     36          6           0        6.339844   -3.692481    0.681205
     37          6           0        4.977956   -3.610590    0.374104
     38          6           0        4.733655   -2.229700    0.203021
     39          6           0        7.045107   -4.968422    1.063320
     40          6           0        3.695169   -4.362913    0.315156
     41          8           0        3.435774   -5.548020    0.440964
     42          6           0        2.647869   -3.347683   -0.092094
     43          6           0        2.048515   -3.950768   -1.239834
     44          8           0        2.448255   -3.781597   -2.373426
     45          8           0        0.809817   -4.518587   -0.864349
     46          6           0       -0.017171   -4.925508   -2.063702
     47          6           0       -3.655853   -3.472337    0.883580
     48          6           0       -5.002545   -2.790311    0.851797
     49          6           0       -6.253881   -3.284110    0.689035
     50          6           0       -6.685883   -4.738257    0.431624
     51          6           0       -7.458417   -2.345977    0.749836
     52          6           0       -8.127109   -1.933036   -0.575989
     53          6           0       -7.778536   -0.475511   -0.995022
     54          6           0       -9.061990    0.478024   -0.846558
     55          6           0       -9.680212    0.881229   -2.249816
     56          6           0       -8.814032    1.745381    0.006755
     57          6           0       -9.548362    1.535293    1.338459
     58          6           0       -9.978619    2.827752    2.001455
     59          6           0      -11.445995    2.870903    2.484504
     60          6           0      -11.753133    4.090681    3.365034
     61          6           0      -12.438737    2.921726    1.298875
     62          6           0      -13.236764    1.635574    1.216130
     63          6           0      -13.071376    0.836310   -0.078294
     64          6           0      -14.391498    0.679095   -0.868055
     65          6           0      -14.096876   -0.084683   -2.194313
     66          6           0      -15.285584    1.936777   -1.018102
     67          1           0        2.518745    3.594305   -0.969513
     68          1           0        8.969343    3.691691   -0.355552
     69          1           0        8.956563   -2.853901    0.710191
     70          1           0        1.206415   -0.907638   -1.601957
     71          1           0        0.632149    1.664573   -0.490734
     72          1           0        0.194081    2.186045   -2.360702
     73          1           0        0.609350    0.655348   -3.129052
     74          1           0        1.770303    1.883091   -3.096135
     75          1           0        0.431220    0.025333    1.229333
     76          1           0        0.415988   -1.753141    0.969729
     77          1           0       -1.231995   -0.272868   -0.907003
     78          1           0       -1.707162   -0.209102    0.778110
     79          1           0        3.737994    6.601106   -0.016946
     80          1           0        3.141427    5.601098   -1.041314
     81          1           0        4.602971    6.498321   -1.654526
     82          1           0        5.990132    7.622799    0.076672
     83          1           0        6.426949    7.338032   -1.628959
     84          1           0        7.493921    8.306425   -0.530099
     85          1           0       10.570325    1.905644    1.105726
     86          1           0       10.820174   -0.734317    0.060292
     87          1           0       11.536930    0.629801   -1.347954
     88          1           0       11.704344    2.345546   -0.921414
     89          1           0       10.330494    1.841068   -1.865444
     90          1           0        9.534197   -0.460014    2.808397
     91          1           0       10.992173    0.540625    2.659893
     92          1           0       12.447670   -1.108294    2.853082
     93          1           0       11.542160   -2.220650    1.796435
     94          1           0       11.210368   -2.154942    3.437720
     95          1           0        7.805898   -4.821684    1.829983
     96          1           0        7.439090   -5.367445    0.128498
     97          1           0        6.300092   -5.697089    1.382825
     98          1           0        1.923752   -3.357643    0.722534
     99          1           0        0.512755   -5.757519   -2.527491
    100          1           0       -0.080474   -4.201107   -2.874988
    101          1           0       -0.983932   -5.308600   -1.737741
    102          1           0       -3.548436   -4.142219    1.736226
    103          1           0       -3.370123   -4.182071    0.106812
    104          1           0       -4.849580   -1.711950    0.866868
    105          1           0       -6.583112   -5.053322   -0.606524
    106          1           0       -7.727731   -4.892922    0.711717
    107          1           0       -5.949902   -5.329134    0.976968
    108          1           0       -7.163170   -1.478040    1.339407
    109          1           0       -8.207618   -2.923771    1.291955
    110          1           0       -9.183690   -2.183981   -0.490890
    111          1           0       -7.739282   -2.563415   -1.376529
    112          1           0       -7.273579   -0.357876   -1.953804
    113          1           0       -6.965920   -0.129013   -0.357247
    114          1           0       -9.868185   -0.180887   -0.523888
    115          1           0      -10.217908    1.799450   -2.015120
    116          1           0      -10.388504    0.121989   -2.579833
    117          1           0       -8.916701    1.144836   -2.982754
    118          1           0       -9.090520    2.671997   -0.495341
    119          1           0       -7.756130    1.921673    0.205209
    120          1           0       -8.778025    1.120414    1.988039
    121          1           0      -10.393573    0.848221    1.367718
    122          1           0       -9.689088    3.725454    1.456414
    123          1           0       -9.473069    2.863299    2.966760
    124          1           0      -11.651747    2.005846    3.115316
    125          1           0      -10.893150    4.314891    3.996871
    126          1           0      -12.616124    3.978585    4.020513
    127          1           0      -11.928081    4.968067    2.742642
    128          1           0      -11.838000    3.019431    0.394113
    129          1           0      -13.157094    3.730266    1.428383
    130          1           0      -14.217337    2.099576    1.323302
    131          1           0      -13.187704    0.959076    2.070082
    132          1           0      -12.559292   -0.108715    0.100554
    133          1           0      -12.530781    1.472762   -0.777871
    134          1           0      -14.894463   -0.047076   -0.228624
    135          1           0      -14.807735   -0.882876   -2.408325
    136          1           0      -13.169078   -0.650939   -2.116333
    137          1           0      -14.101156    0.499292   -3.114736
    138          1           0      -16.022364    1.961652   -0.215357
    139          1           0      -15.703040    1.900467   -2.024815
    140          1           0      -14.719444    2.866457   -0.975348
 ---------------------------------------------------------------------

 SCF Done:  E(RB-LYP) =  -3007.35439953     A.U. after   21 cycles

 Excitation energies and oscillator strengths:

 Excited State   1:      Singlet-A      1.8221 eV  680.45 nm  f=0.2870  <S**2>=0.000
     245 -> 248       -0.21010
     246 -> 247        0.68165
     246 <- 247       -0.13900
 This state for optimization and/or second-order correction.
 Total Energy, E(TD-HF/TD-DFT) =  -3007.28743928
 Copying the excited state density for this state as the 1-particle RhoCI density.

 Excited State   2:      Singlet-A      2.0729 eV  598.12 nm  f=0.0387  <S**2>=0.000
     244 -> 247        0.14233
     245 -> 247        0.61302
     246 -> 248        0.30076

 Excited State   3:      Singlet-A      2.1770 eV  569.52 nm  f=0.0022  <S**2>=0.000
     244 -> 247        0.69115
     245 -> 247       -0.10967

 Excited State   4:      Singlet-A      2.2228 eV  557.78 nm  f=0.0010  <S**2>=0.000
     243 -> 247        0.70581

 Excited State   5:      Singlet-A      2.4360 eV  508.97 nm  f=0.0000  <S**2>=0.000
     242 -> 247        0.70710

 The electronic state is 1-A.
 Alpha  occ. eigenvalues --  -46.28335 -18.82461 -18.80946 -18.77028 -18.76353
 Alpha  occ. eigenvalues --  -18.75935 -18.75760 -14.03536 -14.03149 -14.01717
 Alpha  occ. eigenvalues --  -14.01238 -10.04796 -10.03018 -10.00405  -9.99907
 Alpha  occ. eigenvalues --   -9.97953  -9.97111  -9.96595  -9.96530  -9.96500
 Alpha  occ. eigenvalues --   -9.96434  -9.96370  -9.96040  -9.95722  -9.94780
 Alpha  occ. eigenvalues --   -9.94150  -9.94147  -9.94111  -9.94093  -9.94066
 Alpha  occ. eigenvalues --   -9.94061  -9.93748  -9.93498  -9.93333  -9.93286
 Alpha  occ. eigenvalues --   -9.93257  -9.93196  -9.93185  -9.93087  -9.93070
 Alpha  occ. eigenvalues --   -9.92926  -9.92550  -9.92510  -9.92497  -9.92252
 Alpha  occ. eigenvalues --   -9.92046  -9.92010  -9.91956  -9.91947  -9.91811
 Alpha  occ. eigenvalues --   -9.91697  -9.91679  -9.91612  -9.91332  -9.91269
 Alpha  occ. eigenvalues --   -9.91222  -9.91199  -9.90900  -9.90794  -9.90766
 Alpha  occ. eigenvalues --   -9.90731  -9.90611  -9.90469  -9.90384  -9.90321
 Alpha  occ. eigenvalues --   -9.90228  -2.92709  -1.73147  -1.72613  -1.72394
 Alpha  occ. eigenvalues --   -0.97320  -0.95819  -0.91782  -0.91573  -0.88867
 Alpha  occ. eigenvalues --   -0.88663  -0.87101  -0.86379  -0.85050  -0.84762
 Alpha  occ. eigenvalues --   -0.75485  -0.73518  -0.73406  -0.72912  -0.71786
 Alpha  occ. eigenvalues --   -0.71723  -0.71115  -0.70588  -0.70428  -0.70064
 Alpha  occ. eigenvalues --   -0.69446  -0.69059  -0.68067  -0.67566  -0.67152
 Alpha  occ. eigenvalues --   -0.66502  -0.66146  -0.65333  -0.64809  -0.64272
 Alpha  occ. eigenvalues --   -0.64108  -0.62368  -0.62118  -0.61387  -0.60528
 Alpha  occ. eigenvalues --   -0.60269  -0.60136  -0.59583  -0.59234  -0.59015
 Alpha  occ. eigenvalues --   -0.58514  -0.56930  -0.56590  -0.55950  -0.54378
 Alpha  occ. eigenvalues --   -0.53460  -0.53369  -0.52391  -0.52236  -0.51695
 Alpha  occ. eigenvalues --   -0.51502  -0.51222  -0.50830  -0.50183  -0.50077
 Alpha  occ. eigenvalues --   -0.49807  -0.48812  -0.48470  -0.47152  -0.46769
 Alpha  occ. eigenvalues --   -0.46505  -0.45942  -0.45552  -0.45256  -0.44726
 Alpha  occ. eigenvalues --   -0.44095  -0.43906  -0.43144  -0.42348  -0.42047
 Alpha  occ. eigenvalues --   -0.41919  -0.41862  -0.41605  -0.41250  -0.41109
 Alpha  occ. eigenvalues --   -0.40958  -0.40709  -0.40324  -0.39981  -0.39615
 Alpha  occ. eigenvalues --   -0.39522  -0.39282  -0.39056  -0.38951  -0.38813
 Alpha  occ. eigenvalues --   -0.38610  -0.38519  -0.38368  -0.38270  -0.38208
 Alpha  occ. eigenvalues --   -0.38011  -0.37783  -0.37638  -0.37459  -0.37089
 Alpha  occ. eigenvalues --   -0.36937  -0.36765  -0.36566  -0.36398  -0.36377
 Alpha  occ. eigenvalues --   -0.36177  -0.35823  -0.35738  -0.35543  -0.35363
 Alpha  occ. eigenvalues --   -0.35304  -0.35300  -0.35050  -0.34811  -0.34623
 Alpha  occ. eigenvalues --   -0.34473  -0.34393  -0.34247  -0.33938  -0.33766
 Alpha  occ. eigenvalues --   -0.33730  -0.33651  -0.33596  -0.33309  -0.33246
 Alpha  occ. eigenvalues --   -0.32933  -0.32838  -0.32537  -0.32236  -0.32172
 Alpha  occ. eigenvalues --   -0.32136  -0.31907  -0.31689  -0.31390  -0.31162
 Alpha  occ. eigenvalues --   -0.30929  -0.30906  -0.30854  -0.30597  -0.30452
 Alpha  occ. eigenvalues --   -0.30209  -0.30052  -0.29862  -0.29818  -0.29773
 Alpha  occ. eigenvalues --   -0.29678  -0.29408  -0.29345  -0.29012  -0.28846
 Alpha  occ. eigenvalues --   -0.28761  -0.28617  -0.28427  -0.28214  -0.27944
 Alpha  occ. eigenvalues --   -0.27823  -0.27666  -0.27627  -0.26951  -0.26114
 Alpha  occ. eigenvalues --   -0.26010  -0.25913  -0.25311  -0.25011  -0.24830
 Alpha  occ. eigenvalues --   -0.24487  -0.23852  -0.23833  -0.23726  -0.23077
 Alpha  occ. eigenvalues --   -0.22247  -0.22026  -0.21705  -0.21364  -0.20912
 Alpha  occ. eigenvalues --   -0.20294  -0.19988  -0.19120  -0.18930  -0.17226
 Alpha  occ. eigenvalues --   -0.15464
 Alpha virt. eigenvalues --   -0.11036  -0.07144  -0.06075  -0.04624  -0.04394
 Alpha virt. eigenvalues --   -0.02542  -0.02282  -0.02180  -0.01127   0.00031
 Alpha virt. eigenvalues --    0.01126   0.01541   0.01889   0.02334   0.02616

 Mulliken charges:
               1
     1  Mg   0.689233
     2  C    0.042758
     3  C   -0.052851
     4  C   -0.021351
     5  C   -0.044312
     6  N   -0.158358
     7  C   -0.123876
     8  C    0.062510
     9  C   -0.052198
    10  C    0.003750
    11  C    0.114389
    12  C    0.161328
    13  C    0.124137
    14  C    0.099576
    15  O   -0.219164
    16  O   -0.278934
    17  N   -0.284720
    18  C    0.142414
    19  C   -0.134838
    20  C    0.006439
    21  C    0.064327
    22  C    0.162458
    23  C   -0.059372
    24  O   -0.163727
    25  C    0.142098
    26  N   -0.161809
    27  C    0.026273
    28  C   -0.022323
    29  C    0.024793
    30  C   -0.012657
    31  C    0.124419
    32  C    0.140923
    33  C    0.061114
    34  N   -0.280732
    35  C    0.080527
    36  C   -0.215369
    37  C    0.066377
    38  C    0.082546
    39  C    0.168437
    40  C   -0.072834
    41  O   -0.124915
    42  C    0.108816
    43  C    0.117677
    44  O   -0.171255
    45  O   -0.310251
    46  C    0.245145
    47  C    0.285165
    48  C   -0.093314
    49  C   -0.143567
    50  C    0.141891
    51  C    0.111002
    52  C    0.093800
    53  C    0.114684
    54  C   -0.085486
    55  C    0.082779
    56  C    0.119160
    57  C    0.080238
    58  C    0.104927
    59  C   -0.089818
    60  C    0.103721
    61  C    0.123769
    62  C    0.068195
    63  C    0.069835
    64  C   -0.097213
    65  C    0.095938
    66  C    0.133254
    67  H   -0.060262
    68  H   -0.040110
    69  H   -0.056585
    70  H   -0.011772
    71  H   -0.035877
    72  H   -0.014664
    73  H    0.002902
    74  H   -0.008068
    75  H   -0.021310
    76  H   -0.000213
    77  H   -0.001263
    78  H   -0.013271
    79  H    0.006654
    80  H   -0.041041
    81  H    0.007970
    82  H    0.015047
    83  H    0.011236
    84  H   -0.003427
    85  H   -0.020547
    86  H   -0.035462
    87  H   -0.007952
    88  H   -0.000767
    89  H    0.000357
    90  H   -0.008125
    91  H   -0.021053
    92  H   -0.007158
    93  H   -0.008960
    94  H   -0.017639
    95  H   -0.000942
    96  H    0.005336
    97  H    0.003757
    98  H    0.007035
    99  H   -0.005913
   100  H    0.016623
   101  H    0.016512
   102  H   -0.004559
   103  H    0.006465
   104  H   -0.025012
   105  H    0.009728
   106  H   -0.009195
   107  H   -0.007708
   108  H   -0.023822
   109  H   -0.039119
   110  H   -0.027715
   111  H   -0.032985
   112  H   -0.037439
   113  H   -0.047987
   114  H   -0.019999
   115  H   -0.014683
   116  H   -0.006924
   117  H   -0.017059
   118  H   -0.033884
   119  H   -0.038348
   120  H   -0.032084
   121  H   -0.020406
   122  H   -0.034831
   123  H   -0.052556
   124  H   -0.040450
   125  H   -0.034958
   126  H   -0.018666
   127  H   -0.020508
   128  H   -0.030912
   129  H   -0.032035
   130  H   -0.052957
   131  H   -0.035107
   132  H   -0.012920
   133  H   -0.028066
   134  H   -0.043661
   135  H   -0.027963
   136  H   -0.027683
   137  H   -0.013935
   138  H    0.000065
   139  H   -0.016250
   140  H   -0.020493
 Sum of Mulliken charges =  -0.00000

 Dipole moment (field-independent basis, Debye):
    X=             -2.6484    Y=              3.4768    Z=              2.0779  Tot=              4.8394
 Quadrupole moment (field-independent basis, Debye-Ang):
   XX=           -379.6749   YY=           -417.4804   ZZ=           -409.9781
   XY=              3.0409   XZ=              8.7284   YZ=             -8.2822

 Normal termination of Gaussian 16 at Wed Apr 27 09:48:40 2022.
