 Gaussian 16, Revision A.03,
 Gaussian 16:  ES64L-G16RevA.03 25-Dec-2016

 -----------------------------------
 #p cam-b3lyp/Def2SVP td=(nstates=5)
 -----------------------------------

 -------------------------------------------------------
 step_1101_chromophore_4 TDDFT with cam-b3lyp functional
 -------------------------------------------------------
 Symbolic Z-matrix:
 Charge =  0 Multiplicity = 1

                         Standard orientation:
 ---------------------------------------------------------------------
 Center     Atomic      Atomic             Coordinates (Angstroms)
 Number     Number       Type             X           Y           Z
 ---------------------------------------------------------------------
      1         12           0        5.793852    0.580381    0.245828
      2          6           0        3.366534   -1.990736   -0.173266
      3          6           0        3.294291    2.913691   -0.610799
      4          6           0        8.227607    2.921294   -0.133836
      5          6           0        8.323388   -1.974350    0.571441
      6          7           0        3.571870    0.464070   -0.313661
      7          6           0        2.833631   -0.712053   -0.369670
      8          6           0        1.322831   -0.383138   -0.653082
      9          6           0        1.381736    1.105544   -1.049127
     10          6           0        2.866306    1.526595   -0.568832
     11          6           0        0.985043    1.445303   -2.479914
     12          6           0        0.311909   -0.775769    0.499019
     13          6           0       -1.114654   -0.770446    0.055831
     14          6           0       -1.897399   -2.118913   -0.094584
     15          8           0       -2.072523   -2.715164   -1.183313
     16          8           0       -2.658683   -2.422063    1.026884
     17          7           0        5.744647    2.690063   -0.055459
     18          6           0        4.630770    3.426619   -0.364378
     19          6           0        5.073258    4.826350   -0.536560
     20          6           0        6.478000    4.855395   -0.457180
     21          6           0        6.894124    3.426025   -0.209982
     22          6           0        4.139592    5.977877   -0.815997
     23          6           0        7.402119    6.095488   -0.465064
     24          8           0        8.616167    5.956310   -0.352810
     25          6           0        6.814083    7.459059   -0.617701
     26          7           0        8.005247    0.463627    0.219859
     27          6           0        8.689908    1.583089    0.104774
     28          6           0       10.191141    1.300492    0.282549
     29          6           0       10.211314   -0.167537    0.764681
     30          6           0        8.775714   -0.621547    0.422794
     31          6           0       10.994139    1.530113   -1.058757
     32          6           0       10.505610   -0.374306    2.320365
     33          6           0       11.458323   -1.494948    2.605749
     34          7           0        5.871482   -1.482813    0.383491
     35          6           0        6.944575   -2.335088    0.533491
     36          6           0        6.339844   -3.692481    0.681205
     37          6           0        4.977956   -3.610590    0.374104
     38          6           0        4.733655   -2.229700    0.203021
     39          6           0        7.045107   -4.968422    1.063320
     40          6           0        3.695169   -4.362913    0.315156
     41          8           0        3.435774   -5.548020    0.440964
     42          6           0        2.647869   -3.347683   -0.092094
     43          6           0        2.048515   -3.950768   -1.239834
     44          8           0        2.448255   -3.781597   -2.373426
     45          8           0        0.809817   -4.518587   -0.864349
     46          6           0       -0.017171   -4.925508   -2.063702
     47          6           0       -3.655853   -3.472337    0.883580
     48          6           0       -5.002545   -2.790311    0.851797
     49          6           0       -6.253881   -3.284110    0.689035
     50          6           0       -6.685883   -4.738257    0.431624
     51          6           0       -7.458417   -2.345977    0.749836
     52          6           0       -8.127109   -1.933036   -0.575989
     53          6           0       -7.778536   -0.475511   -0.995022
     54          6           0       -9.061990    0.478024   -0.846558
     55          6           0       -9.680212    0.881229   -2.249816
     56          6           0       -8.814032    1.745381    0.006755
     57          6           0       -9.548362    1.535293    1.338459
     58          6           0       -9.978619    2.827752    2.001455
     59          6           0      -11.445995    2.870903    2.484504
     60          6           0      -11.753133    4.090681    3.365034
     61          6           0      -12.438737    2.921726    1.298875
     62          6           0      -13.236764    1.635574    1.216130
     63          6           0      -13.071376    0.836310   -0.078294
     64          6           0      -14.391498    0.679095   -0.868055
     65          6           0      -14.096876   -0.084683   -2.194313
     66          6           0      -15.285584    1.936777   -1.018102
     67          1           0        2.518745    3.594305   -0.969513
     68          1           0        8.969343    3.691691   -0.355552
     69          1           0        8.956563   -2.853901    0.710191
     70          1           0        1.206415   -0.907638   -1.601957
     71          1           0        0.632149    1.664573   -0.490734
     72          1           0        0.194081    2.186045   -2.360702
     73          1           0        0.609350    0.655348   -3.129052
     74          1           0        1.770303    1.883091   -3.096135
     75          1           0        0.431220    0.025333    1.229333
     76          1           0        0.415988   -1.753141    0.969729
     77          1           0       -1.231995   -0.272868   -0.907003
     78          1           0       -1.707162   -0.209102    0.778110
     79          1           0        3.737994    6.601106   -0.016946
     80          1           0        3.141427    5.601098   -1.041314
     81          1           0        4.602971    6.498321   -1.654526
     82          1           0        5.990132    7.622799    0.076672
     83          1           0        6.426949    7.338032   -1.628959
     84          1           0        7.493921    8.306425   -0.530099
     85          1           0       10.570325    1.905644    1.105726
     86          1           0       10.820174   -0.734317    0.060292
     87          1           0       11.536930    0.629801   -1.347954
     88          1           0       11.704344    2.345546   -0.921414
     89          1           0       10.330494    1.841068   -1.865444
     90          1           0        9.534197   -0.460014    2.808397
     91          1           0       10.992173    0.540625    2.659893
     92          1           0       12.447670   -1.108294    2.853082
     93          1           0       11.542160   -2.220650    1.796435
     94          1           0       11.210368   -2.154942    3.437720
     95          1           0        7.805898   -4.821684    1.829983
     96          1           0        7.439090   -5.367445    0.128498
     97          1           0        6.300092   -5.697089    1.382825
     98          1           0        1.923752   -3.357643    0.722534
     99          1           0        0.512755   -5.757519   -2.527491
    100          1           0       -0.080474   -4.201107   -2.874988
    101          1           0       -0.983932   -5.308600   -1.737741
    102          1           0       -3.548436   -4.142219    1.736226
    103          1           0       -3.370123   -4.182071    0.106812
    104          1           0       -4.849580   -1.711950    0.866868
    105          1           0       -6.583112   -5.053322   -0.606524
    106          1           0       -7.727731   -4.892922    0.711717
    107          1           0       -5.949902   -5.329134    0.976968
    108          1           0       -7.163170   -1.478040    1.339407
    109          1           0       -8.207618   -2.923771    1.291955
    110          1           0       -9.183690   -2.183981   -0.490890
    111          1           0       -7.739282   -2.563415   -1.376529
    112          1           0       -7.273579   -0.357876   -1.953804
    113          1           0       -6.965920   -0.129013   -0.357247
    114          1           0       -9.868185   -0.180887   -0.523888
    115          1           0      -10.217908    1.799450   -2.015120
    116          1           0      -10.388504    0.121989   -2.579833
    117          1           0       -8.916701    1.144836   -2.982754
    118          1           0       -9.090520    2.671997   -0.495341
    119          1           0       -7.756130    1.921673    0.205209
    120          1           0       -8.778025    1.120414    1.988039
    121          1           0      -10.393573    0.848221    1.367718
    122          1           0       -9.689088    3.725454    1.456414
    123          1           0       -9.473069    2.863299    2.966760
    124          1           0      -11.651747    2.005846    3.115316
    125          1           0      -10.893150    4.314891    3.996871
    126          1           0      -12.616124    3.978585    4.020513
    127          1           0      -11.928081    4.968067    2.742642
    128          1           0      -11.838000    3.019431    0.394113
    129          1           0      -13.157094    3.730266    1.428383
    130          1           0      -14.217337    2.099576    1.323302
    131          1           0      -13.187704    0.959076    2.070082
    132          1           0      -12.559292   -0.108715    0.100554
    133          1           0      -12.530781    1.472762   -0.777871
    134          1           0      -14.894463   -0.047076   -0.228624
    135          1           0      -14.807735   -0.882876   -2.408325
    136          1           0      -13.169078   -0.650939   -2.116333
    137          1           0      -14.101156    0.499292   -3.114736
    138          1           0      -16.022364    1.961652   -0.215357
    139          1           0      -15.703040    1.900467   -2.024815
    140          1           0      -14.719444    2.866457   -0.975348
 ---------------------------------------------------------------------

 SCF Done:  E(RCAM-B3LYP) =  -3007.13984007     A.U. after   18 cycles

 Excitation energies and oscillator strengths:

 Excited State   1:      Singlet-A      1.7529 eV  707.31 nm  f=0.3593  <S**2>=0.000
     245 -> 248        0.19494
     246 -> 247        0.68097
     245 <- 248        0.10894
 This state for optimization and/or second-order correction.
 Total Energy, E(TD-HF/TD-DFT) =  -3007.07542193
 Copying the excited state density for this state as the 1-particle RhoCI density.

 Excited State   2:      Singlet-A      2.2980 eV  539.52 nm  f=0.0451  <S**2>=0.000
     245 -> 247        0.59479
     246 -> 248       -0.37212

 Excited State   3:      Singlet-A      3.4112 eV  363.47 nm  f=0.7916  <S**2>=0.000
     242 -> 247        0.19422
     245 -> 247        0.34891
     246 -> 248        0.57792
     245 <- 247       -0.11036

 Excited State   4:      Singlet-A      3.6468 eV  339.98 nm  f=0.0035  <S**2>=0.000
     242 -> 247       -0.22792
     244 -> 247        0.64886

 Excited State   5:      Singlet-A      3.7794 eV  328.05 nm  f=0.0014  <S**2>=0.000
     239 -> 247        0.47327
     239 -> 248        0.14469
     239 -> 249       -0.27422
     239 -> 250       -0.23504
     240 -> 247       -0.25073
     240 -> 249        0.11134

 The electronic state is 1-A.
 Alpha  occ. eigenvalues --  -46.89969 -19.25268 -19.23759 -19.20004 -19.19372
 Alpha  occ. eigenvalues --  -19.19319 -19.18991 -14.42377 -14.41972 -14.40352
 Alpha  occ. eigenvalues --  -14.39503 -10.40198 -10.38385 -10.35947 -10.35055
 Alpha  occ. eigenvalues --  -10.31944 -10.31882 -10.31443 -10.31292 -10.31035
 Alpha  occ. eigenvalues --  -10.30936 -10.30607 -10.29983 -10.29533 -10.29247
 Alpha  occ. eigenvalues --  -10.28791 -10.28313 -10.28307 -10.28109 -10.28092
 Alpha  occ. eigenvalues --  -10.28036 -10.27993 -10.27986 -10.27536 -10.27521
 Alpha  occ. eigenvalues --  -10.27369 -10.27351 -10.27198 -10.27127 -10.27010
 Alpha  occ. eigenvalues --  -10.26819 -10.26729 -10.26512 -10.26173 -10.26046
 Alpha  occ. eigenvalues --  -10.25929 -10.25749 -10.25740 -10.25645 -10.25320
 Alpha  occ. eigenvalues --  -10.25274 -10.25232 -10.25167 -10.25019 -10.24925
 Alpha  occ. eigenvalues --  -10.24864 -10.24849 -10.24550 -10.24516 -10.24452
 Alpha  occ. eigenvalues --  -10.24333 -10.24236 -10.24107 -10.23999 -10.23963
 Alpha  occ. eigenvalues --  -10.23840  -3.18235  -1.93155  -1.92699  -1.92513
 Alpha  occ. eigenvalues --   -1.15661  -1.14298  -1.10307  -1.10049  -1.06666
 Alpha  occ. eigenvalues --   -1.06411  -1.04812  -1.04121  -1.02759  -1.02141
 Alpha  occ. eigenvalues --   -0.92483  -0.90372  -0.90247  -0.89701  -0.88441
 Alpha  occ. eigenvalues --   -0.88379  -0.87993  -0.87214  -0.87146  -0.86578
 Alpha  occ. eigenvalues --   -0.85821  -0.85380  -0.84282  -0.83724  -0.83306
 Alpha  occ. eigenvalues --   -0.82591  -0.82505  -0.81225  -0.80679  -0.80090
 Alpha  occ. eigenvalues --   -0.79882  -0.78334  -0.77684  -0.76810  -0.75892
 Alpha  occ. eigenvalues --   -0.75533  -0.75385  -0.74832  -0.74511  -0.74275
 Alpha  occ. eigenvalues --   -0.73569  -0.71774  -0.71498  -0.70785  -0.68852
 Alpha  occ. eigenvalues --   -0.68035  -0.67888  -0.66935  -0.66652  -0.65704
 Alpha  occ. eigenvalues --   -0.65625  -0.65448  -0.64905  -0.64214  -0.64113
 Alpha  occ. eigenvalues --   -0.63562  -0.62737  -0.62338  -0.60787  -0.60312
 Alpha  occ. eigenvalues --   -0.60236  -0.59421  -0.59186  -0.58579  -0.58253
 Alpha  occ. eigenvalues --   -0.57539  -0.57221  -0.56464  -0.55450  -0.55164
 Alpha  occ. eigenvalues --   -0.54855  -0.54671  -0.54554  -0.54231  -0.53922
 Alpha  occ. eigenvalues --   -0.53729  -0.53627  -0.53158  -0.52646  -0.52470
 Alpha  occ. eigenvalues --   -0.51986  -0.51916  -0.51709  -0.51680  -0.51395
 Alpha  occ. eigenvalues --   -0.51167  -0.51080  -0.50879  -0.50843  -0.50700
 Alpha  occ. eigenvalues --   -0.50598  -0.50345  -0.50188  -0.49940  -0.49463
 Alpha  occ. eigenvalues --   -0.49299  -0.49143  -0.49020  -0.48833  -0.48465
 Alpha  occ. eigenvalues --   -0.48325  -0.48181  -0.47768  -0.47730  -0.47531
 Alpha  occ. eigenvalues --   -0.47175  -0.47098  -0.47077  -0.46815  -0.46644
 Alpha  occ. eigenvalues --   -0.46418  -0.46337  -0.46129  -0.45818  -0.45614
 Alpha  occ. eigenvalues --   -0.45448  -0.45404  -0.45328  -0.45033  -0.44981
 Alpha  occ. eigenvalues --   -0.44624  -0.44350  -0.44210  -0.44003  -0.43830
 Alpha  occ. eigenvalues --   -0.43590  -0.43483  -0.43133  -0.43097  -0.42928
 Alpha  occ. eigenvalues --   -0.42751  -0.42324  -0.42221  -0.42102  -0.41987
 Alpha  occ. eigenvalues --   -0.41770  -0.41391  -0.41292  -0.41129  -0.40984
 Alpha  occ. eigenvalues --   -0.40943  -0.40819  -0.40480  -0.40355  -0.40141
 Alpha  occ. eigenvalues --   -0.39810  -0.39582  -0.39461  -0.39121  -0.38996
 Alpha  occ. eigenvalues --   -0.38657  -0.38535  -0.38517  -0.37766  -0.37173
 Alpha  occ. eigenvalues --   -0.36797  -0.36549  -0.36350  -0.35981  -0.35505
 Alpha  occ. eigenvalues --   -0.35385  -0.35026  -0.34305  -0.33902  -0.33842
 Alpha  occ. eigenvalues --   -0.33822  -0.33012  -0.32585  -0.31584  -0.31240
 Alpha  occ. eigenvalues --   -0.30984  -0.30500  -0.29520  -0.29383  -0.24045
 Alpha  occ. eigenvalues --   -0.20662
 Alpha virt. eigenvalues --   -0.07943  -0.02168   0.00494   0.02417   0.02530
 Alpha virt. eigenvalues --    0.03298   0.05207   0.05534   0.05800   0.06540
 Alpha virt. eigenvalues --    0.07850   0.08042   0.08391   0.08592   0.09257

 Mulliken charges:
               1
     1  Mg   0.818777
     2  C    0.022800
     3  C   -0.074529
     4  C   -0.041646
     5  C   -0.048240
     6  N   -0.231347
     7  C   -0.077008
     8  C    0.009013
     9  C   -0.098552
    10  C    0.031286
    11  C    0.051829
    12  C    0.103594
    13  C    0.058475
    14  C    0.179429
    15  O   -0.260234
    16  O   -0.344204
    17  N   -0.375324
    18  C    0.159641
    19  C   -0.141994
    20  C   -0.054677
    21  C    0.094395
    22  C    0.103324
    23  C    0.020942
    24  O   -0.203442
    25  C    0.058467
    26  N   -0.233821
    27  C    0.047524
    28  C   -0.076673
    29  C   -0.031435
    30  C    0.006102
    31  C    0.067344
    32  C    0.083351
    33  C   -0.001761
    34  N   -0.368352
    35  C    0.081860
    36  C   -0.213780
    37  C   -0.007525
    38  C    0.110382
    39  C    0.112464
    40  C    0.026039
    41  O   -0.164213
    42  C    0.022484
    43  C    0.206723
    44  O   -0.207487
    45  O   -0.374738
    46  C    0.202722
    47  C    0.257317
    48  C   -0.116369
    49  C   -0.163769
    50  C    0.083020
    51  C    0.052991
    52  C    0.033880
    53  C    0.066092
    54  C   -0.139567
    55  C    0.035458
    56  C    0.064212
    57  C    0.027398
    58  C    0.052122
    59  C   -0.145792
    60  C    0.046718
    61  C    0.071785
    62  C    0.003722
    63  C    0.021673
    64  C   -0.151080
    65  C    0.036683
    66  C    0.068579
    67  H   -0.026292
    68  H    0.001275
    69  H   -0.019775
    70  H    0.022958
    71  H   -0.001163
    72  H    0.008849
    73  H    0.029383
    74  H    0.019431
    75  H    0.010219
    76  H    0.027783
    77  H    0.029020
    78  H    0.022146
    79  H    0.036114
    80  H   -0.009778
    81  H    0.033427
    82  H    0.043012
    83  H    0.035770
    84  H    0.033672
    85  H    0.014805
    86  H   -0.000096
    87  H    0.016846
    88  H    0.023018
    89  H    0.025326
    90  H    0.021160
    91  H    0.006128
    92  H    0.016221
    93  H    0.012089
    94  H    0.007800
    95  H    0.021495
    96  H    0.030387
    97  H    0.030317
    98  H    0.051226
    99  H    0.018726
   100  H    0.040942
   101  H    0.039385
   102  H    0.022583
   103  H    0.036926
   104  H    0.005369
   105  H    0.033927
   106  H    0.015408
   107  H    0.015157
   108  H    0.004046
   109  H   -0.008950
   110  H    0.000661
   111  H   -0.002871
   112  H   -0.007691
   113  H   -0.021411
   114  H    0.006671
   115  H    0.004941
   116  H    0.013658
   117  H    0.006276
   118  H   -0.006003
   119  H   -0.008506
   120  H   -0.003501
   121  H    0.004159
   122  H   -0.006666
   123  H   -0.021537
   124  H   -0.008695
   125  H   -0.009185
   126  H    0.007005
   127  H    0.002589
   128  H   -0.005075
   129  H   -0.002469
   130  H   -0.020728
   131  H   -0.005108
   132  H    0.012412
   133  H   -0.004744
   134  H   -0.011474
   135  H   -0.001824
   136  H   -0.004418
   137  H    0.009304
   138  H    0.023254
   139  H    0.009087
   140  H    0.002534
 Sum of Mulliken charges =  -0.00000

 Dipole moment (field-independent basis, Debye):
    X=             -2.6705    Y=              4.8043    Z=              1.9573  Tot=              5.8347
 Quadrupole moment (field-independent basis, Debye-Ang):
   XX=           -380.2702   YY=           -411.5399   ZZ=           -410.3083
   XY=              9.1728   XZ=              8.3281   YZ=             -8.9260

 Normal termination of Gaussian 16 at Wed Apr 27 08:37:20 2022.
