 Gaussian 16, Revision A.03,
 Gaussian 16:  ES64L-G16RevA.03 25-Dec-2016

 ---------------------------------
 #p PBE1PBE/Def2SVP td=(nstates=5)
 ---------------------------------

 -----------------------------------------------------
 step_1101_chromophore_4 TDDFT with PBE1PBE functional
 -----------------------------------------------------
 Symbolic Z-matrix:
 Charge =  0 Multiplicity = 1

                         Standard orientation:
 ---------------------------------------------------------------------
 Center     Atomic      Atomic             Coordinates (Angstroms)
 Number     Number       Type             X           Y           Z
 ---------------------------------------------------------------------
      1         12           0        5.793852    0.580381    0.245828
      2          6           0        3.366534   -1.990736   -0.173266
      3          6           0        3.294291    2.913691   -0.610799
      4          6           0        8.227607    2.921294   -0.133836
      5          6           0        8.323388   -1.974350    0.571441
      6          7           0        3.571870    0.464070   -0.313661
      7          6           0        2.833631   -0.712053   -0.369670
      8          6           0        1.322831   -0.383138   -0.653082
      9          6           0        1.381736    1.105544   -1.049127
     10          6           0        2.866306    1.526595   -0.568832
     11          6           0        0.985043    1.445303   -2.479914
     12          6           0        0.311909   -0.775769    0.499019
     13          6           0       -1.114654   -0.770446    0.055831
     14          6           0       -1.897399   -2.118913   -0.094584
     15          8           0       -2.072523   -2.715164   -1.183313
     16          8           0       -2.658683   -2.422063    1.026884
     17          7           0        5.744647    2.690063   -0.055459
     18          6           0        4.630770    3.426619   -0.364378
     19          6           0        5.073258    4.826350   -0.536560
     20          6           0        6.478000    4.855395   -0.457180
     21          6           0        6.894124    3.426025   -0.209982
     22          6           0        4.139592    5.977877   -0.815997
     23          6           0        7.402119    6.095488   -0.465064
     24          8           0        8.616167    5.956310   -0.352810
     25          6           0        6.814083    7.459059   -0.617701
     26          7           0        8.005247    0.463627    0.219859
     27          6           0        8.689908    1.583089    0.104774
     28          6           0       10.191141    1.300492    0.282549
     29          6           0       10.211314   -0.167537    0.764681
     30          6           0        8.775714   -0.621547    0.422794
     31          6           0       10.994139    1.530113   -1.058757
     32          6           0       10.505610   -0.374306    2.320365
     33          6           0       11.458323   -1.494948    2.605749
     34          7           0        5.871482   -1.482813    0.383491
     35          6           0        6.944575   -2.335088    0.533491
     36          6           0        6.339844   -3.692481    0.681205
     37          6           0        4.977956   -3.610590    0.374104
     38          6           0        4.733655   -2.229700    0.203021
     39          6           0        7.045107   -4.968422    1.063320
     40          6           0        3.695169   -4.362913    0.315156
     41          8           0        3.435774   -5.548020    0.440964
     42          6           0        2.647869   -3.347683   -0.092094
     43          6           0        2.048515   -3.950768   -1.239834
     44          8           0        2.448255   -3.781597   -2.373426
     45          8           0        0.809817   -4.518587   -0.864349
     46          6           0       -0.017171   -4.925508   -2.063702
     47          6           0       -3.655853   -3.472337    0.883580
     48          6           0       -5.002545   -2.790311    0.851797
     49          6           0       -6.253881   -3.284110    0.689035
     50          6           0       -6.685883   -4.738257    0.431624
     51          6           0       -7.458417   -2.345977    0.749836
     52          6           0       -8.127109   -1.933036   -0.575989
     53          6           0       -7.778536   -0.475511   -0.995022
     54          6           0       -9.061990    0.478024   -0.846558
     55          6           0       -9.680212    0.881229   -2.249816
     56          6           0       -8.814032    1.745381    0.006755
     57          6           0       -9.548362    1.535293    1.338459
     58          6           0       -9.978619    2.827752    2.001455
     59          6           0      -11.445995    2.870903    2.484504
     60          6           0      -11.753133    4.090681    3.365034
     61          6           0      -12.438737    2.921726    1.298875
     62          6           0      -13.236764    1.635574    1.216130
     63          6           0      -13.071376    0.836310   -0.078294
     64          6           0      -14.391498    0.679095   -0.868055
     65          6           0      -14.096876   -0.084683   -2.194313
     66          6           0      -15.285584    1.936777   -1.018102
     67          1           0        2.518745    3.594305   -0.969513
     68          1           0        8.969343    3.691691   -0.355552
     69          1           0        8.956563   -2.853901    0.710191
     70          1           0        1.206415   -0.907638   -1.601957
     71          1           0        0.632149    1.664573   -0.490734
     72          1           0        0.194081    2.186045   -2.360702
     73          1           0        0.609350    0.655348   -3.129052
     74          1           0        1.770303    1.883091   -3.096135
     75          1           0        0.431220    0.025333    1.229333
     76          1           0        0.415988   -1.753141    0.969729
     77          1           0       -1.231995   -0.272868   -0.907003
     78          1           0       -1.707162   -0.209102    0.778110
     79          1           0        3.737994    6.601106   -0.016946
     80          1           0        3.141427    5.601098   -1.041314
     81          1           0        4.602971    6.498321   -1.654526
     82          1           0        5.990132    7.622799    0.076672
     83          1           0        6.426949    7.338032   -1.628959
     84          1           0        7.493921    8.306425   -0.530099
     85          1           0       10.570325    1.905644    1.105726
     86          1           0       10.820174   -0.734317    0.060292
     87          1           0       11.536930    0.629801   -1.347954
     88          1           0       11.704344    2.345546   -0.921414
     89          1           0       10.330494    1.841068   -1.865444
     90          1           0        9.534197   -0.460014    2.808397
     91          1           0       10.992173    0.540625    2.659893
     92          1           0       12.447670   -1.108294    2.853082
     93          1           0       11.542160   -2.220650    1.796435
     94          1           0       11.210368   -2.154942    3.437720
     95          1           0        7.805898   -4.821684    1.829983
     96          1           0        7.439090   -5.367445    0.128498
     97          1           0        6.300092   -5.697089    1.382825
     98          1           0        1.923752   -3.357643    0.722534
     99          1           0        0.512755   -5.757519   -2.527491
    100          1           0       -0.080474   -4.201107   -2.874988
    101          1           0       -0.983932   -5.308600   -1.737741
    102          1           0       -3.548436   -4.142219    1.736226
    103          1           0       -3.370123   -4.182071    0.106812
    104          1           0       -4.849580   -1.711950    0.866868
    105          1           0       -6.583112   -5.053322   -0.606524
    106          1           0       -7.727731   -4.892922    0.711717
    107          1           0       -5.949902   -5.329134    0.976968
    108          1           0       -7.163170   -1.478040    1.339407
    109          1           0       -8.207618   -2.923771    1.291955
    110          1           0       -9.183690   -2.183981   -0.490890
    111          1           0       -7.739282   -2.563415   -1.376529
    112          1           0       -7.273579   -0.357876   -1.953804
    113          1           0       -6.965920   -0.129013   -0.357247
    114          1           0       -9.868185   -0.180887   -0.523888
    115          1           0      -10.217908    1.799450   -2.015120
    116          1           0      -10.388504    0.121989   -2.579833
    117          1           0       -8.916701    1.144836   -2.982754
    118          1           0       -9.090520    2.671997   -0.495341
    119          1           0       -7.756130    1.921673    0.205209
    120          1           0       -8.778025    1.120414    1.988039
    121          1           0      -10.393573    0.848221    1.367718
    122          1           0       -9.689088    3.725454    1.456414
    123          1           0       -9.473069    2.863299    2.966760
    124          1           0      -11.651747    2.005846    3.115316
    125          1           0      -10.893150    4.314891    3.996871
    126          1           0      -12.616124    3.978585    4.020513
    127          1           0      -11.928081    4.968067    2.742642
    128          1           0      -11.838000    3.019431    0.394113
    129          1           0      -13.157094    3.730266    1.428383
    130          1           0      -14.217337    2.099576    1.323302
    131          1           0      -13.187704    0.959076    2.070082
    132          1           0      -12.559292   -0.108715    0.100554
    133          1           0      -12.530781    1.472762   -0.777871
    134          1           0      -14.894463   -0.047076   -0.228624
    135          1           0      -14.807735   -0.882876   -2.408325
    136          1           0      -13.169078   -0.650939   -2.116333
    137          1           0      -14.101156    0.499292   -3.114736
    138          1           0      -16.022364    1.961652   -0.215357
    139          1           0      -15.703040    1.900467   -2.024815
    140          1           0      -14.719444    2.866457   -0.975348
 ---------------------------------------------------------------------

 SCF Done:  E(RPBE1PBE) =  -3005.32833338     A.U. after   15 cycles

 Excitation energies and oscillator strengths:

 Excited State   1:      Singlet-A      1.8850 eV  657.76 nm  f=0.3509  <S**2>=0.000
     245 -> 248        0.19040
     246 -> 247        0.68662
 This state for optimization and/or second-order correction.
 Total Energy, E(TD-HF/TD-DFT) =  -3005.25906245
 Copying the excited state density for this state as the 1-particle RhoCI density.

 Excited State   2:      Singlet-A      2.3061 eV  537.63 nm  f=0.0514  <S**2>=0.000
     245 -> 247        0.61293
     246 -> 248       -0.34242

 Excited State   3:      Singlet-A      3.2337 eV  383.41 nm  f=0.0960  <S**2>=0.000
     241 -> 247        0.12322
     242 -> 247       -0.19469
     243 -> 247        0.60407
     245 -> 247       -0.13002
     246 -> 248       -0.20737
     246 -> 249        0.10183

 Excited State   4:      Singlet-A      3.2477 eV  381.76 nm  f=0.3543  <S**2>=0.000
     239 -> 247        0.10302
     241 -> 247       -0.11006
     242 -> 247        0.18608
     243 -> 247        0.32532
     245 -> 247        0.24762
     246 -> 248        0.50604

 Excited State   5:      Singlet-A      3.3037 eV  375.29 nm  f=0.0504  <S**2>=0.000
     240 -> 247        0.50348
     240 -> 249       -0.11189
     241 -> 247       -0.29771
     242 -> 247        0.24567
     246 -> 248       -0.16069

 The electronic state is 1-A.
 Alpha  occ. eigenvalues --  -46.93354 -19.26013 -19.24515 -19.20315 -19.19659
 Alpha  occ. eigenvalues --  -19.19385 -19.19315 -14.41875 -14.41448 -14.39903
 Alpha  occ. eigenvalues --  -14.39304 -10.37284 -10.35455 -10.32874 -10.32386
 Alpha  occ. eigenvalues --  -10.29462 -10.29323 -10.28853 -10.28814 -10.28739
 Alpha  occ. eigenvalues --  -10.28591 -10.28588 -10.27627 -10.27287 -10.26769
 Alpha  occ. eigenvalues --  -10.26603 -10.26211 -10.26038 -10.25960 -10.25646
 Alpha  occ. eigenvalues --  -10.25645 -10.25574 -10.25418 -10.25388 -10.25259
 Alpha  occ. eigenvalues --  -10.25106 -10.24949 -10.24929 -10.24874 -10.24770
 Alpha  occ. eigenvalues --  -10.24337 -10.24217 -10.23936 -10.23573 -10.23495
 Alpha  occ. eigenvalues --  -10.23492 -10.23455 -10.23309 -10.23221 -10.22891
 Alpha  occ. eigenvalues --  -10.22862 -10.22850 -10.22637 -10.22621 -10.22617
 Alpha  occ. eigenvalues --  -10.22553 -10.22430 -10.22231 -10.22029 -10.21994
 Alpha  occ. eigenvalues --  -10.21729 -10.21657 -10.21647 -10.21517 -10.21392
 Alpha  occ. eigenvalues --  -10.21386  -3.15210  -1.88068  -1.87591  -1.87409
 Alpha  occ. eigenvalues --   -1.10505  -1.09089  -1.04957  -1.04824  -1.01538
 Alpha  occ. eigenvalues --   -1.01326  -0.99452  -0.98720  -0.97302  -0.96965
 Alpha  occ. eigenvalues --   -0.86977  -0.84501  -0.84391  -0.83840  -0.82693
 Alpha  occ. eigenvalues --   -0.82487  -0.82132  -0.81417  -0.81260  -0.80881
 Alpha  occ. eigenvalues --   -0.80136  -0.79810  -0.78482  -0.78107  -0.77558
 Alpha  occ. eigenvalues --   -0.76711  -0.76613  -0.75451  -0.74997  -0.74477
 Alpha  occ. eigenvalues --   -0.74052  -0.72472  -0.71996  -0.71164  -0.69963
 Alpha  occ. eigenvalues --   -0.69836  -0.69648  -0.69179  -0.68659  -0.68421
 Alpha  occ. eigenvalues --   -0.67869  -0.66309  -0.65953  -0.65084  -0.63221
 Alpha  occ. eigenvalues --   -0.62547  -0.62131  -0.61292  -0.60902  -0.60182
 Alpha  occ. eigenvalues --   -0.60074  -0.59656  -0.59455  -0.58682  -0.58341
 Alpha  occ. eigenvalues --   -0.58064  -0.56873  -0.56543  -0.55444  -0.54736
 Alpha  occ. eigenvalues --   -0.54665  -0.54055  -0.53721  -0.53224  -0.52747
 Alpha  occ. eigenvalues --   -0.52166  -0.51663  -0.50979  -0.50027  -0.49765
 Alpha  occ. eigenvalues --   -0.49452  -0.49184  -0.48987  -0.48776  -0.48426
 Alpha  occ. eigenvalues --   -0.48069  -0.48009  -0.47830  -0.47298  -0.46938
 Alpha  occ. eigenvalues --   -0.46487  -0.46412  -0.46327  -0.46215  -0.45956
 Alpha  occ. eigenvalues --   -0.45685  -0.45602  -0.45409  -0.45393  -0.45378
 Alpha  occ. eigenvalues --   -0.45116  -0.45021  -0.44761  -0.44448  -0.44071
 Alpha  occ. eigenvalues --   -0.43857  -0.43768  -0.43630  -0.43472  -0.43013
 Alpha  occ. eigenvalues --   -0.42904  -0.42810  -0.42351  -0.42322  -0.42201
 Alpha  occ. eigenvalues --   -0.41820  -0.41787  -0.41723  -0.41486  -0.41318
 Alpha  occ. eigenvalues --   -0.41107  -0.41039  -0.40832  -0.40488  -0.40221
 Alpha  occ. eigenvalues --   -0.40208  -0.40161  -0.39992  -0.39842  -0.39556
 Alpha  occ. eigenvalues --   -0.39458  -0.39060  -0.39018  -0.38735  -0.38590
 Alpha  occ. eigenvalues --   -0.38390  -0.38298  -0.37782  -0.37768  -0.37724
 Alpha  occ. eigenvalues --   -0.37618  -0.36992  -0.36972  -0.36874  -0.36811
 Alpha  occ. eigenvalues --   -0.36620  -0.36235  -0.36174  -0.36019  -0.35852
 Alpha  occ. eigenvalues --   -0.35726  -0.35593  -0.35302  -0.35199  -0.34978
 Alpha  occ. eigenvalues --   -0.34672  -0.34451  -0.34359  -0.33993  -0.33921
 Alpha  occ. eigenvalues --   -0.33672  -0.33327  -0.33280  -0.32521  -0.32213
 Alpha  occ. eigenvalues --   -0.31722  -0.31644  -0.31282  -0.31071  -0.30410
 Alpha  occ. eigenvalues --   -0.30335  -0.29909  -0.29216  -0.29166  -0.28873
 Alpha  occ. eigenvalues --   -0.28674  -0.28404  -0.27501  -0.26847  -0.26118
 Alpha  occ. eigenvalues --   -0.26017  -0.25941  -0.25201  -0.24831  -0.20945
 Alpha  occ. eigenvalues --   -0.18337
 Alpha virt. eigenvalues --   -0.10522  -0.05604  -0.03767  -0.01980  -0.01270
 Alpha virt. eigenvalues --   -0.00209   0.00765   0.00818   0.01697   0.02917
 Alpha virt. eigenvalues --    0.03657   0.04613   0.04746   0.05237   0.05544

 Mulliken charges:
               1
     1  Mg   0.958479
     2  C    0.023451
     3  C   -0.066984
     4  C   -0.026333
     5  C   -0.043358
     6  N   -0.338549
     7  C   -0.001691
     8  C   -0.061793
     9  C   -0.168469
    10  C    0.072368
    11  C   -0.003071
    12  C    0.040296
    13  C   -0.014342
    14  C    0.244004
    15  O   -0.290995
    16  O   -0.374394
    17  N   -0.488640
    18  C    0.183726
    19  C   -0.172948
    20  C   -0.101523
    21  C    0.124588
    22  C    0.044307
    23  C    0.069569
    24  O   -0.242519
    25  C   -0.016221
    26  N   -0.339379
    27  C    0.078963
    28  C   -0.153757
    29  C   -0.107052
    30  C    0.050957
    31  C    0.011953
    32  C    0.020202
    33  C   -0.071156
    34  N   -0.497307
    35  C    0.113314
    36  C   -0.236756
    37  C   -0.037590
    38  C    0.149069
    39  C    0.055892
    40  C    0.110277
    41  O   -0.208663
    42  C   -0.092869
    43  C    0.299929
    44  O   -0.242999
    45  O   -0.404562
    46  C    0.145184
    47  C    0.224261
    48  C   -0.131446
    49  C   -0.205244
    50  C    0.021906
    51  C   -0.015601
    52  C   -0.029839
    53  C    0.019859
    54  C   -0.225476
    55  C   -0.026082
    56  C    0.010063
    57  C   -0.037930
    58  C   -0.003386
    59  C   -0.233718
    60  C   -0.013687
    61  C    0.019697
    62  C   -0.056298
    63  C   -0.043816
    64  C   -0.238319
    65  C   -0.025337
    66  C    0.002720
    67  H    0.006175
    68  H    0.032720
    69  H    0.012719
    70  H    0.064070
    71  H    0.036091
    72  H    0.034986
    73  H    0.054305
    74  H    0.046893
    75  H    0.043895
    76  H    0.062129
    77  H    0.062060
    78  H    0.054199
    79  H    0.060730
    80  H    0.017978
    81  H    0.060458
    82  H    0.069670
    83  H    0.063468
    84  H    0.060257
    85  H    0.051053
    86  H    0.037229
    87  H    0.043130
    88  H    0.050261
    89  H    0.052926
    90  H    0.053786
    91  H    0.040057
    92  H    0.044176
    93  H    0.038487
    94  H    0.035864
    95  H    0.048776
    96  H    0.060546
    97  H    0.059368
    98  H    0.090510
    99  H    0.042321
   100  H    0.062825
   101  H    0.061601
   102  H    0.049112
   103  H    0.061633
   104  H    0.035080
   105  H    0.060753
   106  H    0.040635
   107  H    0.043248
   108  H    0.036378
   109  H    0.025428
   110  H    0.030459
   111  H    0.031331
   112  H    0.023045
   113  H    0.010913
   114  H    0.046514
   115  H    0.032574
   116  H    0.041814
   117  H    0.034081
   118  H    0.023994
   119  H    0.023543
   120  H    0.031333
   121  H    0.038524
   122  H    0.024650
   123  H    0.013075
   124  H    0.028938
   125  H    0.018797
   126  H    0.035601
   127  H    0.030621
   128  H    0.028756
   129  H    0.028745
   130  H    0.013045
   131  H    0.026197
   132  H    0.042276
   133  H    0.034762
   134  H    0.028615
   135  H    0.026428
   136  H    0.023469
   137  H    0.036192
   138  H    0.049598
   139  H    0.037711
   140  H    0.031476
 Sum of Mulliken charges =  -0.00000

 Dipole moment (field-independent basis, Debye):
    X=             -2.6405    Y=              4.1904    Z=              2.0381  Tot=              5.3559
 Quadrupole moment (field-independent basis, Debye-Ang):
   XX=           -374.2526   YY=           -409.3929   ZZ=           -407.8253
   XY=              4.9318   XZ=              9.4534   YZ=             -9.0256

 Normal termination of Gaussian 16 at Wed Apr 27 09:00:18 2022.
