 Gaussian 16, Revision A.03,
 Gaussian 16:  ES64L-G16RevA.03 25-Dec-2016

 --------------------------------
 #p wB97XD/Def2SVP td=(nstates=5)
 --------------------------------

 ----------------------------------------------------
 step_1101_chromophore_4 TDDFT with wB97XD functional
 ----------------------------------------------------
 Symbolic Z-matrix:
 Charge =  0 Multiplicity = 1

                         Standard orientation:
 ---------------------------------------------------------------------
 Center     Atomic      Atomic             Coordinates (Angstroms)
 Number     Number       Type             X           Y           Z
 ---------------------------------------------------------------------
      1         12           0        5.793852    0.580381    0.245828
      2          6           0        3.366534   -1.990736   -0.173266
      3          6           0        3.294291    2.913691   -0.610799
      4          6           0        8.227607    2.921294   -0.133836
      5          6           0        8.323388   -1.974350    0.571441
      6          7           0        3.571870    0.464070   -0.313661
      7          6           0        2.833631   -0.712053   -0.369670
      8          6           0        1.322831   -0.383138   -0.653082
      9          6           0        1.381736    1.105544   -1.049127
     10          6           0        2.866306    1.526595   -0.568832
     11          6           0        0.985043    1.445303   -2.479914
     12          6           0        0.311909   -0.775769    0.499019
     13          6           0       -1.114654   -0.770446    0.055831
     14          6           0       -1.897399   -2.118913   -0.094584
     15          8           0       -2.072523   -2.715164   -1.183313
     16          8           0       -2.658683   -2.422063    1.026884
     17          7           0        5.744647    2.690063   -0.055459
     18          6           0        4.630770    3.426619   -0.364378
     19          6           0        5.073258    4.826350   -0.536560
     20          6           0        6.478000    4.855395   -0.457180
     21          6           0        6.894124    3.426025   -0.209982
     22          6           0        4.139592    5.977877   -0.815997
     23          6           0        7.402119    6.095488   -0.465064
     24          8           0        8.616167    5.956310   -0.352810
     25          6           0        6.814083    7.459059   -0.617701
     26          7           0        8.005247    0.463627    0.219859
     27          6           0        8.689908    1.583089    0.104774
     28          6           0       10.191141    1.300492    0.282549
     29          6           0       10.211314   -0.167537    0.764681
     30          6           0        8.775714   -0.621547    0.422794
     31          6           0       10.994139    1.530113   -1.058757
     32          6           0       10.505610   -0.374306    2.320365
     33          6           0       11.458323   -1.494948    2.605749
     34          7           0        5.871482   -1.482813    0.383491
     35          6           0        6.944575   -2.335088    0.533491
     36          6           0        6.339844   -3.692481    0.681205
     37          6           0        4.977956   -3.610590    0.374104
     38          6           0        4.733655   -2.229700    0.203021
     39          6           0        7.045107   -4.968422    1.063320
     40          6           0        3.695169   -4.362913    0.315156
     41          8           0        3.435774   -5.548020    0.440964
     42          6           0        2.647869   -3.347683   -0.092094
     43          6           0        2.048515   -3.950768   -1.239834
     44          8           0        2.448255   -3.781597   -2.373426
     45          8           0        0.809817   -4.518587   -0.864349
     46          6           0       -0.017171   -4.925508   -2.063702
     47          6           0       -3.655853   -3.472337    0.883580
     48          6           0       -5.002545   -2.790311    0.851797
     49          6           0       -6.253881   -3.284110    0.689035
     50          6           0       -6.685883   -4.738257    0.431624
     51          6           0       -7.458417   -2.345977    0.749836
     52          6           0       -8.127109   -1.933036   -0.575989
     53          6           0       -7.778536   -0.475511   -0.995022
     54          6           0       -9.061990    0.478024   -0.846558
     55          6           0       -9.680212    0.881229   -2.249816
     56          6           0       -8.814032    1.745381    0.006755
     57          6           0       -9.548362    1.535293    1.338459
     58          6           0       -9.978619    2.827752    2.001455
     59          6           0      -11.445995    2.870903    2.484504
     60          6           0      -11.753133    4.090681    3.365034
     61          6           0      -12.438737    2.921726    1.298875
     62          6           0      -13.236764    1.635574    1.216130
     63          6           0      -13.071376    0.836310   -0.078294
     64          6           0      -14.391498    0.679095   -0.868055
     65          6           0      -14.096876   -0.084683   -2.194313
     66          6           0      -15.285584    1.936777   -1.018102
     67          1           0        2.518745    3.594305   -0.969513
     68          1           0        8.969343    3.691691   -0.355552
     69          1           0        8.956563   -2.853901    0.710191
     70          1           0        1.206415   -0.907638   -1.601957
     71          1           0        0.632149    1.664573   -0.490734
     72          1           0        0.194081    2.186045   -2.360702
     73          1           0        0.609350    0.655348   -3.129052
     74          1           0        1.770303    1.883091   -3.096135
     75          1           0        0.431220    0.025333    1.229333
     76          1           0        0.415988   -1.753141    0.969729
     77          1           0       -1.231995   -0.272868   -0.907003
     78          1           0       -1.707162   -0.209102    0.778110
     79          1           0        3.737994    6.601106   -0.016946
     80          1           0        3.141427    5.601098   -1.041314
     81          1           0        4.602971    6.498321   -1.654526
     82          1           0        5.990132    7.622799    0.076672
     83          1           0        6.426949    7.338032   -1.628959
     84          1           0        7.493921    8.306425   -0.530099
     85          1           0       10.570325    1.905644    1.105726
     86          1           0       10.820174   -0.734317    0.060292
     87          1           0       11.536930    0.629801   -1.347954
     88          1           0       11.704344    2.345546   -0.921414
     89          1           0       10.330494    1.841068   -1.865444
     90          1           0        9.534197   -0.460014    2.808397
     91          1           0       10.992173    0.540625    2.659893
     92          1           0       12.447670   -1.108294    2.853082
     93          1           0       11.542160   -2.220650    1.796435
     94          1           0       11.210368   -2.154942    3.437720
     95          1           0        7.805898   -4.821684    1.829983
     96          1           0        7.439090   -5.367445    0.128498
     97          1           0        6.300092   -5.697089    1.382825
     98          1           0        1.923752   -3.357643    0.722534
     99          1           0        0.512755   -5.757519   -2.527491
    100          1           0       -0.080474   -4.201107   -2.874988
    101          1           0       -0.983932   -5.308600   -1.737741
    102          1           0       -3.548436   -4.142219    1.736226
    103          1           0       -3.370123   -4.182071    0.106812
    104          1           0       -4.849580   -1.711950    0.866868
    105          1           0       -6.583112   -5.053322   -0.606524
    106          1           0       -7.727731   -4.892922    0.711717
    107          1           0       -5.949902   -5.329134    0.976968
    108          1           0       -7.163170   -1.478040    1.339407
    109          1           0       -8.207618   -2.923771    1.291955
    110          1           0       -9.183690   -2.183981   -0.490890
    111          1           0       -7.739282   -2.563415   -1.376529
    112          1           0       -7.273579   -0.357876   -1.953804
    113          1           0       -6.965920   -0.129013   -0.357247
    114          1           0       -9.868185   -0.180887   -0.523888
    115          1           0      -10.217908    1.799450   -2.015120
    116          1           0      -10.388504    0.121989   -2.579833
    117          1           0       -8.916701    1.144836   -2.982754
    118          1           0       -9.090520    2.671997   -0.495341
    119          1           0       -7.756130    1.921673    0.205209
    120          1           0       -8.778025    1.120414    1.988039
    121          1           0      -10.393573    0.848221    1.367718
    122          1           0       -9.689088    3.725454    1.456414
    123          1           0       -9.473069    2.863299    2.966760
    124          1           0      -11.651747    2.005846    3.115316
    125          1           0      -10.893150    4.314891    3.996871
    126          1           0      -12.616124    3.978585    4.020513
    127          1           0      -11.928081    4.968067    2.742642
    128          1           0      -11.838000    3.019431    0.394113
    129          1           0      -13.157094    3.730266    1.428383
    130          1           0      -14.217337    2.099576    1.323302
    131          1           0      -13.187704    0.959076    2.070082
    132          1           0      -12.559292   -0.108715    0.100554
    133          1           0      -12.530781    1.472762   -0.777871
    134          1           0      -14.894463   -0.047076   -0.228624
    135          1           0      -14.807735   -0.882876   -2.408325
    136          1           0      -13.169078   -0.650939   -2.116333
    137          1           0      -14.101156    0.499292   -3.114736
    138          1           0      -16.022364    1.961652   -0.215357
    139          1           0      -15.703040    1.900467   -2.024815
    140          1           0      -14.719444    2.866457   -0.975348
 ---------------------------------------------------------------------

 SCF Done:  E(RwB97XD) =  -3007.83922119     A.U. after   19 cycles

 Excitation energies and oscillator strengths:

 Excited State   1:      Singlet-A      1.7078 eV  725.98 nm  f=0.3573  <S**2>=0.000
     245 -> 248        0.19952
     246 -> 247        0.67911
     245 <- 248        0.11758
 This state for optimization and/or second-order correction.
 Total Energy, E(TD-HF/TD-DFT) =  -3007.77646025
 Copying the excited state density for this state as the 1-particle RhoCI density.

 Excited State   2:      Singlet-A      2.2453 eV  552.18 nm  f=0.0446  <S**2>=0.000
     245 -> 247        0.59424
     246 -> 248       -0.37200

 Excited State   3:      Singlet-A      3.4156 eV  362.99 nm  f=0.7860  <S**2>=0.000
     242 -> 247        0.20698
     245 -> 247        0.34184
     246 -> 248        0.57371
     245 <- 247       -0.11383

 Excited State   4:      Singlet-A      3.6831 eV  336.63 nm  f=0.0095  <S**2>=0.000
     242 -> 247       -0.27824
     244 -> 247        0.61505

 Excited State   5:      Singlet-A      3.7790 eV  328.08 nm  f=0.0005  <S**2>=0.000
     239 -> 247        0.33864
     239 -> 248        0.11241
     239 -> 249       -0.22807
     239 -> 250        0.19422
     240 -> 247        0.40500
     240 -> 248        0.10799
     240 -> 249       -0.21841
     240 -> 250        0.17149

 The electronic state is 1-A.
 Alpha  occ. eigenvalues --  -46.96299 -19.30514 -19.28978 -19.24942 -19.24402
 Alpha  occ. eigenvalues --  -19.24281 -19.23979 -14.46957 -14.46543 -14.44979
 Alpha  occ. eigenvalues --  -14.44067 -10.44027 -10.42204 -10.39968 -10.39028
 Alpha  occ. eigenvalues --  -10.36036 -10.35752 -10.35608 -10.35444 -10.35107
 Alpha  occ. eigenvalues --  -10.34963 -10.34576 -10.33752 -10.33492 -10.33481
 Alpha  occ. eigenvalues --  -10.32749 -10.32431 -10.32364 -10.32182 -10.32170
 Alpha  occ. eigenvalues --  -10.32114 -10.32002 -10.31989 -10.31567 -10.31533
 Alpha  occ. eigenvalues --  -10.31398 -10.31384 -10.31201 -10.31181 -10.31053
 Alpha  occ. eigenvalues --  -10.30855 -10.30729 -10.30429 -10.29998 -10.29910
 Alpha  occ. eigenvalues --  -10.29871 -10.29754 -10.29623 -10.29594 -10.29242
 Alpha  occ. eigenvalues --  -10.29203 -10.29051 -10.28962 -10.28961 -10.28894
 Alpha  occ. eigenvalues --  -10.28797 -10.28669 -10.28537 -10.28419 -10.28373
 Alpha  occ. eigenvalues --  -10.28149 -10.28076 -10.28027 -10.27870 -10.27828
 Alpha  occ. eigenvalues --  -10.27751  -3.22042  -1.95644  -1.95165  -1.94983
 Alpha  occ. eigenvalues --   -1.17843  -1.16415  -1.12574  -1.12234  -1.08852
 Alpha  occ. eigenvalues --   -1.08604  -1.06810  -1.06130  -1.04855  -1.04133
 Alpha  occ. eigenvalues --   -0.94433  -0.92151  -0.92046  -0.91499  -0.90352
 Alpha  occ. eigenvalues --   -0.90147  -0.89911  -0.89184  -0.88922  -0.88479
 Alpha  occ. eigenvalues --   -0.87726  -0.87291  -0.86123  -0.85652  -0.85189
 Alpha  occ. eigenvalues --   -0.84548  -0.84342  -0.83085  -0.82586  -0.82082
 Alpha  occ. eigenvalues --   -0.81711  -0.80345  -0.79572  -0.78725  -0.77669
 Alpha  occ. eigenvalues --   -0.77404  -0.77265  -0.76778  -0.76334  -0.76089
 Alpha  occ. eigenvalues --   -0.75474  -0.73746  -0.73494  -0.72704  -0.70734
 Alpha  occ. eigenvalues --   -0.70036  -0.69756  -0.68975  -0.68525  -0.67621
 Alpha  occ. eigenvalues --   -0.67570  -0.67291  -0.66913  -0.66142  -0.66002
 Alpha  occ. eigenvalues --   -0.65513  -0.64541  -0.64170  -0.62774  -0.62357
 Alpha  occ. eigenvalues --   -0.62158  -0.61405  -0.61170  -0.60567  -0.60172
 Alpha  occ. eigenvalues --   -0.59551  -0.59113  -0.58475  -0.57381  -0.57108
 Alpha  occ. eigenvalues --   -0.56802  -0.56544  -0.56448  -0.56152  -0.55862
 Alpha  occ. eigenvalues --   -0.55681  -0.55472  -0.55105  -0.54605  -0.54363
 Alpha  occ. eigenvalues --   -0.53922  -0.53789  -0.53594  -0.53557  -0.53362
 Alpha  occ. eigenvalues --   -0.53087  -0.52986  -0.52780  -0.52740  -0.52627
 Alpha  occ. eigenvalues --   -0.52467  -0.52244  -0.52106  -0.51909  -0.51397
 Alpha  occ. eigenvalues --   -0.51233  -0.51081  -0.50964  -0.50707  -0.50370
 Alpha  occ. eigenvalues --   -0.50215  -0.50085  -0.49692  -0.49624  -0.49471
 Alpha  occ. eigenvalues --   -0.49043  -0.48978  -0.48946  -0.48733  -0.48560
 Alpha  occ. eigenvalues --   -0.48313  -0.48233  -0.48033  -0.47773  -0.47460
 Alpha  occ. eigenvalues --   -0.47381  -0.47240  -0.47230  -0.46952  -0.46817
 Alpha  occ. eigenvalues --   -0.46547  -0.46201  -0.46117  -0.45962  -0.45763
 Alpha  occ. eigenvalues --   -0.45497  -0.45389  -0.45067  -0.44965  -0.44884
 Alpha  occ. eigenvalues --   -0.44736  -0.44299  -0.44174  -0.43944  -0.43876
 Alpha  occ. eigenvalues --   -0.43701  -0.43333  -0.43218  -0.43056  -0.42853
 Alpha  occ. eigenvalues --   -0.42814  -0.42665  -0.42339  -0.42229  -0.42020
 Alpha  occ. eigenvalues --   -0.41671  -0.41425  -0.41351  -0.40973  -0.40877
 Alpha  occ. eigenvalues --   -0.40554  -0.40373  -0.40369  -0.39594  -0.39097
 Alpha  occ. eigenvalues --   -0.38751  -0.38664  -0.38275  -0.37916  -0.37361
 Alpha  occ. eigenvalues --   -0.37351  -0.36867  -0.36146  -0.35908  -0.35799
 Alpha  occ. eigenvalues --   -0.35742  -0.35214  -0.34410  -0.33633  -0.33409
 Alpha  occ. eigenvalues --   -0.32919  -0.32725  -0.31542  -0.31500  -0.25987
 Alpha  occ. eigenvalues --   -0.22482
 Alpha virt. eigenvalues --   -0.06287  -0.00280   0.02548   0.04508   0.05561
 Alpha virt. eigenvalues --    0.05746   0.07490   0.07697   0.08383   0.09203
 Alpha virt. eigenvalues --    0.10187   0.11402   0.11450   0.11880   0.12261

 Mulliken charges:
               1
     1  Mg   0.952895
     2  C    0.015043
     3  C   -0.087127
     4  C   -0.048702
     5  C   -0.056276
     6  N   -0.301942
     7  C   -0.035014
     8  C   -0.034027
     9  C   -0.144716
    10  C    0.057539
    11  C    0.003775
    12  C    0.056424
    13  C    0.002003
    14  C    0.230952
    15  O   -0.288028
    16  O   -0.373740
    17  N   -0.458625
    18  C    0.180223
    19  C   -0.161377
    20  C   -0.093286
    21  C    0.118975
    22  C    0.056697
    23  C    0.065936
    24  O   -0.235244
    25  C   -0.001625
    26  N   -0.303676
    27  C    0.067911
    28  C   -0.129096
    29  C   -0.078591
    30  C    0.030389
    31  C    0.021737
    32  C    0.035398
    33  C   -0.056505
    34  N   -0.458992
    35  C    0.097061
    36  C   -0.231089
    37  C   -0.041103
    38  C    0.135051
    39  C    0.065873
    40  C    0.095828
    41  O   -0.200279
    42  C   -0.049951
    43  C    0.275753
    44  O   -0.237325
    45  O   -0.403955
    46  C    0.157197
    47  C    0.236197
    48  C   -0.139300
    49  C   -0.193373
    50  C    0.034448
    51  C    0.009082
    52  C   -0.015818
    53  C    0.032182
    54  C   -0.190835
    55  C   -0.008889
    56  C    0.024771
    57  C   -0.016233
    58  C    0.012125
    59  C   -0.202965
    60  C   -0.000550
    61  C    0.036945
    62  C   -0.042278
    63  C   -0.016471
    64  C   -0.209534
    65  C   -0.012818
    66  C    0.014764
    67  H   -0.000716
    68  H    0.028851
    69  H    0.008654
    70  H    0.049900
    71  H    0.024980
    72  H    0.029937
    73  H    0.050676
    74  H    0.041401
    75  H    0.036028
    76  H    0.051928
    77  H    0.054183
    78  H    0.049455
    79  H    0.058950
    80  H    0.014124
    81  H    0.054663
    82  H    0.063520
    83  H    0.055622
    84  H    0.060986
    85  H    0.041131
    86  H    0.024063
    87  H    0.038339
    88  H    0.045043
    89  H    0.046418
    90  H    0.045431
    91  H    0.030580
    92  H    0.038467
    93  H    0.031359
    94  H    0.030434
    95  H    0.042730
    96  H    0.053771
    97  H    0.054405
    98  H    0.081518
    99  H    0.038167
   100  H    0.059865
   101  H    0.059388
   102  H    0.044683
   103  H    0.057089
   104  H    0.030098
   105  H    0.055706
   106  H    0.036031
   107  H    0.037322
   108  H    0.026272
   109  H    0.016082
   110  H    0.024432
   111  H    0.022913
   112  H    0.016919
   113  H   -0.002150
   114  H    0.023999
   115  H    0.022497
   116  H    0.036134
   117  H    0.028476
   118  H    0.014173
   119  H    0.016566
   120  H    0.022862
   121  H    0.022425
   122  H    0.016351
   123  H    0.003224
   124  H    0.016384
   125  H    0.012498
   126  H    0.030314
   127  H    0.022940
   128  H    0.013618
   129  H    0.020565
   130  H    0.002588
   131  H    0.019061
   132  H    0.034901
   133  H    0.011978
   134  H    0.016910
   135  H    0.020939
   136  H    0.016271
   137  H    0.030379
   138  H    0.044493
   139  H    0.032211
   140  H    0.023777
 Sum of Mulliken charges =  -0.00000

 Dipole moment (field-independent basis, Debye):
    X=             -2.6934    Y=              5.0243    Z=              1.9535  Tot=              6.0262
 Quadrupole moment (field-independent basis, Debye-Ang):
   XX=           -375.6239   YY=           -406.5434   ZZ=           -407.5139
   XY=             10.0554   XZ=              8.8848   YZ=             -9.1681

 Normal termination of Gaussian 16 at Wed Apr 27 09:36:50 2022.
