 Gaussian 16, Revision A.03,
 Gaussian 16:  ES64L-G16RevA.03 25-Dec-2016

 --------------------
 #p ZINDO=(nstates=5)
 --------------------

 -----------------------------
 step_1101_chromophore_4 ZINDO
 -----------------------------
 Symbolic Z-matrix:
 Charge =  0 Multiplicity = 1

                         Standard orientation:
 ---------------------------------------------------------------------
 Center     Atomic      Atomic             Coordinates (Angstroms)
 Number     Number       Type             X           Y           Z
 ---------------------------------------------------------------------
      1         12           0        5.793852    0.580381    0.245828
      2          6           0        3.366534   -1.990736   -0.173266
      3          6           0        3.294291    2.913691   -0.610799
      4          6           0        8.227607    2.921294   -0.133836
      5          6           0        8.323388   -1.974350    0.571441
      6          7           0        3.571870    0.464070   -0.313661
      7          6           0        2.833631   -0.712053   -0.369670
      8          6           0        1.322831   -0.383138   -0.653082
      9          6           0        1.381736    1.105544   -1.049127
     10          6           0        2.866306    1.526595   -0.568832
     11          6           0        0.985043    1.445303   -2.479914
     12          6           0        0.311909   -0.775769    0.499019
     13          6           0       -1.114654   -0.770446    0.055831
     14          6           0       -1.897399   -2.118913   -0.094584
     15          8           0       -2.072523   -2.715164   -1.183313
     16          8           0       -2.658683   -2.422063    1.026884
     17          7           0        5.744647    2.690063   -0.055459
     18          6           0        4.630770    3.426619   -0.364378
     19          6           0        5.073258    4.826350   -0.536560
     20          6           0        6.478000    4.855395   -0.457180
     21          6           0        6.894124    3.426025   -0.209982
     22          6           0        4.139592    5.977877   -0.815997
     23          6           0        7.402119    6.095488   -0.465064
     24          8           0        8.616167    5.956310   -0.352810
     25          6           0        6.814083    7.459059   -0.617701
     26          7           0        8.005247    0.463627    0.219859
     27          6           0        8.689908    1.583089    0.104774
     28          6           0       10.191141    1.300492    0.282549
     29          6           0       10.211314   -0.167537    0.764681
     30          6           0        8.775714   -0.621547    0.422794
     31          6           0       10.994139    1.530113   -1.058757
     32          6           0       10.505610   -0.374306    2.320365
     33          6           0       11.458323   -1.494948    2.605749
     34          7           0        5.871482   -1.482813    0.383491
     35          6           0        6.944575   -2.335088    0.533491
     36          6           0        6.339844   -3.692481    0.681205
     37          6           0        4.977956   -3.610590    0.374104
     38          6           0        4.733655   -2.229700    0.203021
     39          6           0        7.045107   -4.968422    1.063320
     40          6           0        3.695169   -4.362913    0.315156
     41          8           0        3.435774   -5.548020    0.440964
     42          6           0        2.647869   -3.347683   -0.092094
     43          6           0        2.048515   -3.950768   -1.239834
     44          8           0        2.448255   -3.781597   -2.373426
     45          8           0        0.809817   -4.518587   -0.864349
     46          6           0       -0.017171   -4.925508   -2.063702
     47          6           0       -3.655853   -3.472337    0.883580
     48          6           0       -5.002545   -2.790311    0.851797
     49          6           0       -6.253881   -3.284110    0.689035
     50          6           0       -6.685883   -4.738257    0.431624
     51          6           0       -7.458417   -2.345977    0.749836
     52          6           0       -8.127109   -1.933036   -0.575989
     53          6           0       -7.778536   -0.475511   -0.995022
     54          6           0       -9.061990    0.478024   -0.846558
     55          6           0       -9.680212    0.881229   -2.249816
     56          6           0       -8.814032    1.745381    0.006755
     57          6           0       -9.548362    1.535293    1.338459
     58          6           0       -9.978619    2.827752    2.001455
     59          6           0      -11.445995    2.870903    2.484504
     60          6           0      -11.753133    4.090681    3.365034
     61          6           0      -12.438737    2.921726    1.298875
     62          6           0      -13.236764    1.635574    1.216130
     63          6           0      -13.071376    0.836310   -0.078294
     64          6           0      -14.391498    0.679095   -0.868055
     65          6           0      -14.096876   -0.084683   -2.194313
     66          6           0      -15.285584    1.936777   -1.018102
     67          1           0        2.518745    3.594305   -0.969513
     68          1           0        8.969343    3.691691   -0.355552
     69          1           0        8.956563   -2.853901    0.710191
     70          1           0        1.206415   -0.907638   -1.601957
     71          1           0        0.632149    1.664573   -0.490734
     72          1           0        0.194081    2.186045   -2.360702
     73          1           0        0.609350    0.655348   -3.129052
     74          1           0        1.770303    1.883091   -3.096135
     75          1           0        0.431220    0.025333    1.229333
     76          1           0        0.415988   -1.753141    0.969729
     77          1           0       -1.231995   -0.272868   -0.907003
     78          1           0       -1.707162   -0.209102    0.778110
     79          1           0        3.737994    6.601106   -0.016946
     80          1           0        3.141427    5.601098   -1.041314
     81          1           0        4.602971    6.498321   -1.654526
     82          1           0        5.990132    7.622799    0.076672
     83          1           0        6.426949    7.338032   -1.628959
     84          1           0        7.493921    8.306425   -0.530099
     85          1           0       10.570325    1.905644    1.105726
     86          1           0       10.820174   -0.734317    0.060292
     87          1           0       11.536930    0.629801   -1.347954
     88          1           0       11.704344    2.345546   -0.921414
     89          1           0       10.330494    1.841068   -1.865444
     90          1           0        9.534197   -0.460014    2.808397
     91          1           0       10.992173    0.540625    2.659893
     92          1           0       12.447670   -1.108294    2.853082
     93          1           0       11.542160   -2.220650    1.796435
     94          1           0       11.210368   -2.154942    3.437720
     95          1           0        7.805898   -4.821684    1.829983
     96          1           0        7.439090   -5.367445    0.128498
     97          1           0        6.300092   -5.697089    1.382825
     98          1           0        1.923752   -3.357643    0.722534
     99          1           0        0.512755   -5.757519   -2.527491
    100          1           0       -0.080474   -4.201107   -2.874988
    101          1           0       -0.983932   -5.308600   -1.737741
    102          1           0       -3.548436   -4.142219    1.736226
    103          1           0       -3.370123   -4.182071    0.106812
    104          1           0       -4.849580   -1.711950    0.866868
    105          1           0       -6.583112   -5.053322   -0.606524
    106          1           0       -7.727731   -4.892922    0.711717
    107          1           0       -5.949902   -5.329134    0.976968
    108          1           0       -7.163170   -1.478040    1.339407
    109          1           0       -8.207618   -2.923771    1.291955
    110          1           0       -9.183690   -2.183981   -0.490890
    111          1           0       -7.739282   -2.563415   -1.376529
    112          1           0       -7.273579   -0.357876   -1.953804
    113          1           0       -6.965920   -0.129013   -0.357247
    114          1           0       -9.868185   -0.180887   -0.523888
    115          1           0      -10.217908    1.799450   -2.015120
    116          1           0      -10.388504    0.121989   -2.579833
    117          1           0       -8.916701    1.144836   -2.982754
    118          1           0       -9.090520    2.671997   -0.495341
    119          1           0       -7.756130    1.921673    0.205209
    120          1           0       -8.778025    1.120414    1.988039
    121          1           0      -10.393573    0.848221    1.367718
    122          1           0       -9.689088    3.725454    1.456414
    123          1           0       -9.473069    2.863299    2.966760
    124          1           0      -11.651747    2.005846    3.115316
    125          1           0      -10.893150    4.314891    3.996871
    126          1           0      -12.616124    3.978585    4.020513
    127          1           0      -11.928081    4.968067    2.742642
    128          1           0      -11.838000    3.019431    0.394113
    129          1           0      -13.157094    3.730266    1.428383
    130          1           0      -14.217337    2.099576    1.323302
    131          1           0      -13.187704    0.959076    2.070082
    132          1           0      -12.559292   -0.108715    0.100554
    133          1           0      -12.530781    1.472762   -0.777871
    134          1           0      -14.894463   -0.047076   -0.228624
    135          1           0      -14.807735   -0.882876   -2.408325
    136          1           0      -13.169078   -0.650939   -2.116333
    137          1           0      -14.101156    0.499292   -3.114736
    138          1           0      -16.022364    1.961652   -0.215357
    139          1           0      -15.703040    1.900467   -2.024815
    140          1           0      -14.719444    2.866457   -0.975348
 ---------------------------------------------------------------------

 SCF Done:  E(RZINDO/S) =  -474.018465616     A.U. after   19 cycles

 Excitation energies and oscillator strengths:

 Excited State   1:      Singlet-A      1.3096 eV  946.72 nm  f=0.5436  <S**2>=0.000
     175 ->178         0.19274
     176 ->177         0.66401
 This state for optimization and/or second-order correction.
 Total Energy, E(CIS/TDA) =  -473.970338218
 Copying the excited state density for this state as the 1-particle RhoCI density.

 Excited State   2:      Singlet-A      1.9173 eV  646.67 nm  f=0.0003  <S**2>=0.000
     175 ->177        -0.47050
     176 ->178         0.50676

 Excited State   3:      Singlet-A      2.9316 eV  422.92 nm  f=0.1165  <S**2>=0.000
     170 ->181        -0.10614
     175 ->177        -0.14757
     176 ->178        -0.13241
     176 ->179         0.59014
     176 ->181        -0.20967
     176 ->184        -0.12159

 Excited State   4:      Singlet-A      2.9830 eV  415.64 nm  f=1.2279  <S**2>=0.000
     171 ->177         0.12362
     175 ->177         0.44367
     176 ->178         0.42897
     176 ->179         0.21075

 Excited State   5:      Singlet-A      3.0393 eV  407.93 nm  f=0.0435  <S**2>=0.000
     167 ->179        -0.12606
     167 ->181        -0.10713
     168 ->177         0.29096
     168 ->178        -0.10712
     168 ->179        -0.37503
     168 ->181        -0.30325
     168 ->184        -0.13964
     168 ->185        -0.19407

 The electronic state is 1-A.
 Alpha  occ. eigenvalues --   -1.82215  -1.80415  -1.78213  -1.72042  -1.71643
 Alpha  occ. eigenvalues --   -1.69630  -1.67369  -1.59731  -1.59108  -1.57119
 Alpha  occ. eigenvalues --   -1.55153  -1.50824  -1.48843  -1.47389  -1.45569
 Alpha  occ. eigenvalues --   -1.43530  -1.42390  -1.40396  -1.37705  -1.37561
 Alpha  occ. eigenvalues --   -1.35698  -1.32537  -1.32290  -1.31637  -1.28566
 Alpha  occ. eigenvalues --   -1.28166  -1.24422  -1.22835  -1.20165  -1.17343
 Alpha  occ. eigenvalues --   -1.17160  -1.17042  -1.14529  -1.12699  -1.12341
 Alpha  occ. eigenvalues --   -1.11945  -1.11166  -1.10285  -1.04578  -1.03655
 Alpha  occ. eigenvalues --   -1.02499  -0.99885  -0.98345  -0.97108  -0.96609
 Alpha  occ. eigenvalues --   -0.96369  -0.94367  -0.93979  -0.93316  -0.92413
 Alpha  occ. eigenvalues --   -0.90478  -0.89806  -0.88875  -0.88725  -0.86875
 Alpha  occ. eigenvalues --   -0.86143  -0.84670  -0.83654  -0.81935  -0.80390
 Alpha  occ. eigenvalues --   -0.79564  -0.78575  -0.77467  -0.76543  -0.75923
 Alpha  occ. eigenvalues --   -0.75756  -0.75646  -0.74680  -0.73926  -0.73360
 Alpha  occ. eigenvalues --   -0.72969  -0.72511  -0.71927  -0.71435  -0.71315
 Alpha  occ. eigenvalues --   -0.69787  -0.69554  -0.69055  -0.68579  -0.68279
 Alpha  occ. eigenvalues --   -0.67656  -0.67422  -0.66773  -0.66597  -0.66000
 Alpha  occ. eigenvalues --   -0.64814  -0.64774  -0.64305  -0.63560  -0.63375
 Alpha  occ. eigenvalues --   -0.62848  -0.62270  -0.61951  -0.61811  -0.61550
 Alpha  occ. eigenvalues --   -0.61138  -0.60906  -0.60713  -0.60169  -0.59715
 Alpha  occ. eigenvalues --   -0.59343  -0.59003  -0.58871  -0.58163  -0.57944
 Alpha  occ. eigenvalues --   -0.57692  -0.57301  -0.56930  -0.56460  -0.56189
 Alpha  occ. eigenvalues --   -0.55762  -0.55478  -0.55120  -0.54577  -0.54457
 Alpha  occ. eigenvalues --   -0.54288  -0.53572  -0.52940  -0.52805  -0.52762
 Alpha  occ. eigenvalues --   -0.52501  -0.52461  -0.52211  -0.51974  -0.51705
 Alpha  occ. eigenvalues --   -0.51546  -0.51102  -0.50914  -0.50729  -0.50421
 Alpha  occ. eigenvalues --   -0.50074  -0.49816  -0.49491  -0.49277  -0.49170
 Alpha  occ. eigenvalues --   -0.48767  -0.48605  -0.48511  -0.48364  -0.48239
 Alpha  occ. eigenvalues --   -0.47647  -0.47399  -0.46581  -0.46512  -0.46343
 Alpha  occ. eigenvalues --   -0.46120  -0.45913  -0.45554  -0.45368  -0.45075
 Alpha  occ. eigenvalues --   -0.45006  -0.44763  -0.44343  -0.43951  -0.43586
 Alpha  occ. eigenvalues --   -0.43368  -0.42481  -0.41898  -0.41815  -0.41223
 Alpha  occ. eigenvalues --   -0.41046  -0.40864  -0.39802  -0.38845  -0.38415
 Alpha  occ. eigenvalues --   -0.37351  -0.36696  -0.36036  -0.34683  -0.34429
 Alpha  occ. eigenvalues --   -0.33892  -0.32353  -0.31989  -0.31632  -0.26664
 Alpha  occ. eigenvalues --   -0.21217
 Alpha virt. eigenvalues --   -0.07642  -0.02364  -0.00409   0.00811   0.01256
 Alpha virt. eigenvalues --    0.02137   0.02982   0.03345   0.04741   0.04774
 Alpha virt. eigenvalues --    0.06037   0.06421   0.06670   0.07421   0.08151

 Mulliken charges:
               1
     1  Mg   0.425628
     2  C   -0.033374
     3  C   -0.113194
     4  C   -0.081776
     5  C   -0.065474
     6  N   -0.261896
     7  C    0.081121
     8  C   -0.003630
     9  C    0.004298
    10  C    0.159225
    11  C   -0.047973
    12  C   -0.010844
    13  C    0.012685
    14  C    0.454678
    15  O   -0.518575
    16  O   -0.270818
    17  N   -0.324056
    18  C    0.132828
    19  C    0.020734
    20  C   -0.042554
    21  C    0.139453
    22  C   -0.055943
    23  C    0.335321
    24  O   -0.522207
    25  C   -0.024985
    26  N   -0.247071
    27  C    0.164486
    28  C   -0.000239
    29  C   -0.009565
    30  C    0.088044
    31  C   -0.050606
    32  C   -0.017809
    33  C   -0.052528
    34  N   -0.312391
    35  C    0.063775
    36  C    0.014754
    37  C   -0.066999
    38  C    0.090917
    39  C   -0.044134
    40  C    0.346085
    41  O   -0.520071
    42  C    0.065675
    43  C    0.505850
    44  O   -0.522040
    45  O   -0.277879
    46  C    0.070308
    47  C    0.107959
    48  C   -0.081255
    49  C   -0.008210
    50  C   -0.045122
    51  C   -0.023785
    52  C   -0.025905
    53  C   -0.039926
    54  C   -0.025343
    55  C   -0.068282
    56  C   -0.024363
    57  C   -0.034310
    58  C   -0.035538
    59  C   -0.013918
    60  C   -0.059189
    61  C   -0.034484
    62  C   -0.045980
    63  C   -0.034035
    64  C   -0.011232
    65  C   -0.061757
    66  C   -0.050518
    67  H    0.031469
    68  H    0.051581
    69  H    0.041007
    70  H    0.041237
    71  H    0.019466
    72  H    0.012722
    73  H    0.029895
    74  H    0.021477
    75  H    0.023395
    76  H    0.038681
    77  H    0.039200
    78  H    0.029180
    79  H    0.043434
    80  H    0.017367
    81  H    0.037136
    82  H    0.034732
    83  H    0.043867
    84  H    0.043061
    85  H    0.033133
    86  H    0.031549
    87  H    0.025343
    88  H    0.021167
    89  H    0.027094
    90  H    0.032204
    91  H    0.017893
    92  H    0.018085
    93  H    0.017803
    94  H    0.015244
    95  H    0.026700
    96  H    0.033228
    97  H    0.030641
    98  H    0.052705
    99  H    0.032962
   100  H    0.053896
   101  H    0.040834
   102  H    0.033033
   103  H    0.060550
   104  H    0.031987
   105  H    0.032308
   106  H    0.029250
   107  H    0.023876
   108  H    0.020996
   109  H    0.014870
   110  H    0.025292
   111  H    0.015601
   112  H    0.024247
   113  H    0.014301
   114  H    0.026996
   115  H    0.013400
   116  H    0.022679
   117  H    0.023138
   118  H    0.021566
   119  H    0.018116
   120  H    0.011843
   121  H    0.030453
   122  H    0.025599
   123  H    0.003812
   124  H    0.022119
   125  H    0.007784
   126  H    0.018395
   127  H    0.015149
   128  H    0.022412
   129  H    0.023186
   130  H    0.011702
   131  H    0.019745
   132  H    0.026900
   133  H    0.016035
   134  H    0.010588
   135  H    0.010233
   136  H    0.014030
   137  H    0.021810
   138  H    0.025285
   139  H    0.020017
   140  H    0.019264
 Sum of Mulliken charges =  -0.00000

 Dipole moment (field-independent basis, Debye):
    X=             -3.7843    Y=              8.4642    Z=              2.5586  Tot=              9.6183
 N-N= 4.285086653520D+03 E-N= 0.000000000000D+00  KE=-9.244731739469D+03
 Leave Link  601 at Wed Apr 27 09:48:51 2022, MaxMem=  6710886400 cpu:               1.0 elap:               0.1
 (Enter /sw/apps/gaussian-16.0/g16/l9999.exe)
 1\1\GINC-BP1-COMPUTE070\SP\RZINDO CIS\STO-3G\C55H74Mg1N4O6\OF15641\27-
 Apr-2022\0\\#p ZINDO=(nstates=5)\\step_1101_chromophore_4 ZINDO\\0,1\M
 g,0,9.071,4.001,27.934\C,0,10.042,2.268,30.889\C,0,7.481,6.378,29.995\
 C,0,7.489,5.207,25.179\C,0,10.283,1.207,25.996\N,0,8.81,4.29,30.195\C,
 0,9.344,3.449,31.164\C,0,9.072,4.04,32.595\C,0,8.053,5.158,32.298\C,0,
 8.17,5.307,30.693\C,0,6.659,4.982,32.886\C,0,10.359,4.448,33.42\C,0,10
 .081,4.669,34.871\C,0,10.611,3.652,35.938\O,0,9.919,2.739,36.447\O,0,1

 Normal termination of Gaussian 16 at Wed Apr 27 09:48:52 2022.
