 Gaussian 16, Revision A.03,
 Gaussian 16:  ES64L-G16RevA.03 25-Dec-2016

 ------------------------------
 #p blyp/Def2SVP td=(nstates=5)
 ------------------------------

 ---------------------------------------------------
 step_1651_chromophore_24 TDDFT with blyp functional
 ---------------------------------------------------
 Symbolic Z-matrix:
 Charge =  0 Multiplicity = 1

                         Standard orientation:
 ---------------------------------------------------------------------
 Center     Atomic      Atomic             Coordinates (Angstroms)
 Number     Number       Type             X           Y           Z
 ---------------------------------------------------------------------
      1         12           0        5.370639    1.184283   -0.086894
      2          6           0        4.717221   -2.271386    0.029868
      3          6           0        1.936829    1.704153   -0.003679
      4          6           0        5.978995    4.379055   -0.078173
      5          6           0        8.751166    0.387051   -0.775833
      6          7           0        3.578015   -0.156024   -0.150953
      7          6           0        3.561628   -1.490143    0.083596
      8          6           0        2.069803   -1.996832    0.245600
      9          6           0        1.173345   -0.728003   -0.202116
     10          6           0        2.286321    0.339585   -0.039337
     11          6           0        0.529704   -0.705941   -1.648793
     12          6           0        1.818514   -2.514878    1.632966
     13          6           0        1.105676   -3.931138    1.701579
     14          6           0       -0.043905   -4.271231    0.717321
     15          8           0        0.171559   -5.029721   -0.248897
     16          8           0       -1.284456   -3.790702    1.030445
     17          7           0        4.136881    2.798685   -0.040734
     18          6           0        2.783566    2.831120    0.085340
     19          6           0        2.283611    4.155192    0.219948
     20          6           0        3.473141    5.001178    0.128292
     21          6           0        4.637997    4.116522    0.054028
     22          6           0        0.839002    4.470007    0.424919
     23          6           0        3.526035    6.552097    0.132688
     24          8           0        4.642216    7.134529    0.110268
     25          6           0        2.263161    7.323970   -0.055487
     26          7           0        7.085564    2.270549   -0.373159
     27          6           0        7.092401    3.591555   -0.164027
     28          6           0        8.541651    4.120493   -0.228265
     29          6           0        9.495426    2.859366   -0.263178
     30          6           0        8.403647    1.766428   -0.504168
     31          6           0        8.810373    5.121060   -1.344060
     32          6           0       10.203929    2.524599    1.032444
     33          6           0        9.499193    2.921634    2.390279
     34          7           0        6.573867   -0.501173   -0.331721
     35          6           0        7.882329   -0.664556   -0.679621
     36          6           0        8.259655   -2.098383   -0.664383
     37          6           0        7.020586   -2.726485   -0.309496
     38          6           0        6.012892   -1.738525   -0.236462
     39          6           0        9.626930   -2.669456   -0.894854
     40          6           0        6.475632   -3.992925   -0.177505
     41          8           0        6.931098   -5.132585   -0.259662
     42          6           0        4.949936   -3.714281   -0.007080
     43          6           0        4.227555   -4.411978   -1.078338
     44          8           0        4.452807   -4.357663   -2.282901
     45          8           0        3.415250   -5.314777   -0.507220
     46          6           0        2.841502   -6.436579   -1.268046
     47          6           0       -2.393372   -4.467066    0.388593
     48          6           0       -3.597009   -3.550403    0.252589
     49          6           0       -4.867787   -3.781701   -0.069313
     50          6           0       -5.359605   -5.143598   -0.549849
     51          6           0       -5.956508   -2.646458    0.006610
     52          6           0       -6.735893   -2.644110    1.333025
     53          6           0       -6.558470   -1.236286    2.118979
     54          6           0       -7.915719   -0.475802    2.357200
     55          6           0       -7.858365    0.277576    3.702002
     56          6           0       -8.252711    0.556851    1.246620
     57          6           0       -9.398617    0.020769    0.347094
     58          6           0      -10.792400    0.341040    0.977092
     59          6           0      -11.686794    1.274386    0.094964
     60          6           0      -12.028441    2.550732    0.850804
     61          6           0      -12.964649    0.521233   -0.477929
     62          6           0      -13.760272    1.210397   -1.574711
     63          6           0      -15.206091    1.539117   -1.124676
     64          6           0      -16.091192    2.386673   -1.999405
     65          6           0      -16.033756    3.844687   -1.658010
     66          6           0      -17.572548    1.886486   -1.868289
     67          1           0        0.854006    1.826249    0.056088
     68          1           0        6.272275    5.410326    0.128766
     69          1           0        9.814829    0.139432   -0.795800
     70          1           0        2.107011   -2.739657   -0.550537
     71          1           0        0.299889   -0.535941    0.421474
     72          1           0        0.918093   -1.493498   -2.294912
     73          1           0        0.963849    0.206005   -2.060037
     74          1           0       -0.554383   -0.625510   -1.722249
     75          1           0        1.219471   -1.900920    2.304173
     76          1           0        2.750744   -2.623170    2.187696
     77          1           0        0.579911   -4.000865    2.654549
     78          1           0        1.839314   -4.724230    1.558055
     79          1           0        0.465636    4.776817   -0.551979
     80          1           0        0.749575    5.293111    1.134204
     81          1           0        0.215930    3.653602    0.789550
     82          1           0        1.499067    6.903076   -0.708929
     83          1           0        2.602058    8.277202   -0.461318
     84          1           0        1.781212    7.478275    0.909307
     85          1           0        8.740433    4.708566    0.667183
     86          1           0       10.163869    2.850390   -1.123943
     87          1           0        9.297038    4.671857   -2.210335
     88          1           0        9.256794    6.031643   -0.945735
     89          1           0        7.950797    5.457757   -1.922760
     90          1           0       11.190919    2.988509    1.055117
     91          1           0       10.481548    1.474198    0.950329
     92          1           0        8.509552    3.378537    2.405605
     93          1           0       10.216588    3.650578    2.766592
     94          1           0        9.393547    2.048625    3.033949
     95          1           0       10.246361   -1.973517   -1.461801
     96          1           0        9.543080   -3.519371   -1.571681
     97          1           0       10.025167   -2.942453    0.082020
     98          1           0        4.622243   -4.029358    0.983303
     99          1           0        2.634995   -7.263767   -0.589349
    100          1           0        3.623797   -6.752267   -1.957554
    101          1           0        1.928750   -6.216543   -1.822989
    102          1           0       -2.614593   -5.418371    0.871978
    103          1           0       -2.068050   -4.729862   -0.617806
    104          1           0       -3.332874   -2.630335    0.774137
    105          1           0       -5.908309   -5.565105    0.291489
    106          1           0       -4.478753   -5.698920   -0.872140
    107          1           0       -5.854421   -4.931174   -1.497390
    108          1           0       -6.722255   -2.859578   -0.739503
    109          1           0       -5.370322   -1.770002   -0.269827
    110          1           0       -6.528561   -3.506870    1.965311
    111          1           0       -7.786039   -2.588860    1.045532
    112          1           0       -5.952828   -0.506968    1.581319
    113          1           0       -6.060049   -1.445448    3.065353
    114          1           0       -8.642811   -1.279875    2.477831
    115          1           0       -7.277223   -0.323002    4.401016
    116          1           0       -8.892037    0.433321    4.011935
    117          1           0       -7.328478    1.222111    3.579057
    118          1           0       -7.450967    0.781905    0.543520
    119          1           0       -8.633194    1.536763    1.533721
    120          1           0       -9.413231   -1.068337    0.385146
    121          1           0       -9.187783    0.129027   -0.716941
    122          1           0      -10.667733    0.578328    2.034039
    123          1           0      -11.343812   -0.599890    0.962223
    124          1           0      -11.216485    1.507540   -0.859531
    125          1           0      -11.515049    2.688783    1.802878
    126          1           0      -13.102813    2.532764    1.029283
    127          1           0      -11.786308    3.454897    0.291679
    128          1           0      -13.562162    0.332532    0.413541
    129          1           0      -12.637238   -0.415004   -0.931132
    130          1           0      -13.869300    0.578586   -2.456552
    131          1           0      -13.231643    2.099328   -1.916947
    132          1           0      -15.079598    2.006175   -0.148149
    133          1           0      -15.616581    0.532519   -1.046326
    134          1           0      -15.864781    2.275046   -3.060153
    135          1           0      -15.155639    4.270037   -2.143692
    136          1           0      -16.038754    4.032095   -0.584060
    137          1           0      -16.949853    4.293691   -2.041675
    138          1           0      -17.694405    0.918170   -1.382583
    139          1           0      -17.980024    1.832965   -2.878137
    140          1           0      -18.116247    2.647829   -1.308202
 ---------------------------------------------------------------------

 SCF Done:  E(RB-LYP) =  -3007.35683628     A.U. after   22 cycles

 Excitation energies and oscillator strengths:

 Excited State   1:      Singlet-A      1.7938 eV  691.18 nm  f=0.2669  <S**2>=0.000
     244 -> 247        0.17162
     245 -> 248        0.18062
     246 -> 247        0.66249
     246 <- 247       -0.14326
 This state for optimization and/or second-order correction.
 Total Energy, E(TD-HF/TD-DFT) =  -3007.29091499
 Copying the excited state density for this state as the 1-particle RhoCI density.

 Excited State   2:      Singlet-A      1.8691 eV  663.32 nm  f=0.0335  <S**2>=0.000
     244 -> 247        0.65502
     245 -> 247        0.17442
     246 -> 247       -0.18110

 Excited State   3:      Singlet-A      1.9582 eV  633.14 nm  f=0.0598  <S**2>=0.000
     243 -> 247       -0.36216
     244 -> 247       -0.17938
     245 -> 247        0.53617
     246 -> 248       -0.17059

 Excited State   4:      Singlet-A      1.9919 eV  622.43 nm  f=0.0259  <S**2>=0.000
     243 -> 247        0.60546
     245 -> 247        0.31986
     246 -> 248       -0.12239

 Excited State   5:      Singlet-A      2.4040 eV  515.73 nm  f=0.0000  <S**2>=0.000
     240 -> 247        0.68764
     241 -> 247        0.11816
     242 -> 247        0.10930

 The electronic state is 1-A.
 Alpha  occ. eigenvalues --  -46.25991 -18.83168 -18.80985 -18.76994 -18.75599
 Alpha  occ. eigenvalues --  -18.75202 -18.74944 -14.03264 -14.03071 -14.00701
 Alpha  occ. eigenvalues --  -14.00564 -10.04762 -10.02651 -10.00148  -9.98364
 Alpha  occ. eigenvalues --   -9.98159  -9.96914  -9.96712  -9.96375  -9.96270
 Alpha  occ. eigenvalues --   -9.95915  -9.95669  -9.95137  -9.95080  -9.94691
 Alpha  occ. eigenvalues --   -9.94556  -9.94380  -9.94038  -9.93969  -9.93954
 Alpha  occ. eigenvalues --   -9.93886  -9.93708  -9.93471  -9.93451  -9.93210
 Alpha  occ. eigenvalues --   -9.93121  -9.92937  -9.92931  -9.92842  -9.92644
 Alpha  occ. eigenvalues --   -9.92599  -9.92579  -9.92501  -9.92418  -9.92385
 Alpha  occ. eigenvalues --   -9.92359  -9.92287  -9.92282  -9.92209  -9.91918
 Alpha  occ. eigenvalues --   -9.91755  -9.91690  -9.91534  -9.91533  -9.91482
 Alpha  occ. eigenvalues --   -9.91422  -9.91307  -9.91079  -9.91064  -9.91014
 Alpha  occ. eigenvalues --   -9.90973  -9.90727  -9.90715  -9.90695  -9.90612
 Alpha  occ. eigenvalues --   -9.90553  -2.90807  -1.71233  -1.70698  -1.70509
 Alpha  occ. eigenvalues --   -0.98485  -0.97003  -0.90281  -0.89697  -0.89527
 Alpha  occ. eigenvalues --   -0.88257  -0.86142  -0.85275  -0.85115  -0.84113
 Alpha  occ. eigenvalues --   -0.76376  -0.73466  -0.73078  -0.72600  -0.72493
 Alpha  occ. eigenvalues --   -0.72202  -0.71626  -0.71015  -0.70616  -0.70276
 Alpha  occ. eigenvalues --   -0.69632  -0.68805  -0.68128  -0.67502  -0.67264
 Alpha  occ. eigenvalues --   -0.66490  -0.66055  -0.65489  -0.65173  -0.64645
 Alpha  occ. eigenvalues --   -0.64442  -0.62719  -0.62332  -0.61883  -0.60497
 Alpha  occ. eigenvalues --   -0.60154  -0.60004  -0.59784  -0.59551  -0.58945
 Alpha  occ. eigenvalues --   -0.58435  -0.57578  -0.56717  -0.56005  -0.55598
 Alpha  occ. eigenvalues --   -0.53910  -0.53639  -0.52646  -0.52457  -0.51406
 Alpha  occ. eigenvalues --   -0.51261  -0.50636  -0.50467  -0.50284  -0.50088
 Alpha  occ. eigenvalues --   -0.50003  -0.49336  -0.48480  -0.47811  -0.46547
 Alpha  occ. eigenvalues --   -0.46362  -0.45830  -0.45392  -0.44942  -0.44496
 Alpha  occ. eigenvalues --   -0.44132  -0.43054  -0.42845  -0.42469  -0.42276
 Alpha  occ. eigenvalues --   -0.41823  -0.41700  -0.41644  -0.41371  -0.41221
 Alpha  occ. eigenvalues --   -0.40873  -0.40565  -0.40435  -0.40244  -0.39923
 Alpha  occ. eigenvalues --   -0.39772  -0.39662  -0.39546  -0.39481  -0.39174
 Alpha  occ. eigenvalues --   -0.39052  -0.38930  -0.38734  -0.38695  -0.38279
 Alpha  occ. eigenvalues --   -0.38014  -0.37907  -0.37742  -0.37342  -0.37229
 Alpha  occ. eigenvalues --   -0.37084  -0.36942  -0.36735  -0.36683  -0.36418
 Alpha  occ. eigenvalues --   -0.36328  -0.36159  -0.36001  -0.35708  -0.35548
 Alpha  occ. eigenvalues --   -0.35386  -0.35199  -0.34995  -0.34883  -0.34718
 Alpha  occ. eigenvalues --   -0.34371  -0.34181  -0.34133  -0.33913  -0.33803
 Alpha  occ. eigenvalues --   -0.33719  -0.33661  -0.33474  -0.33338  -0.33140
 Alpha  occ. eigenvalues --   -0.32874  -0.32700  -0.32313  -0.32059  -0.31997
 Alpha  occ. eigenvalues --   -0.31982  -0.31959  -0.31735  -0.31483  -0.31378
 Alpha  occ. eigenvalues --   -0.31257  -0.31108  -0.30825  -0.30583  -0.30544
 Alpha  occ. eigenvalues --   -0.30365  -0.30192  -0.30095  -0.29912  -0.29782
 Alpha  occ. eigenvalues --   -0.29642  -0.29328  -0.29244  -0.29161  -0.28897
 Alpha  occ. eigenvalues --   -0.28542  -0.28359  -0.27584  -0.27463  -0.27435
 Alpha  occ. eigenvalues --   -0.27288  -0.27200  -0.26935  -0.26639  -0.26527
 Alpha  occ. eigenvalues --   -0.26192  -0.25986  -0.25783  -0.25479  -0.25225
 Alpha  occ. eigenvalues --   -0.24917  -0.24603  -0.24051  -0.23851  -0.23212
 Alpha  occ. eigenvalues --   -0.23189  -0.22036  -0.21769  -0.20642  -0.20392
 Alpha  occ. eigenvalues --   -0.20378  -0.20053  -0.18758  -0.18288  -0.17142
 Alpha  occ. eigenvalues --   -0.15805
 Alpha virt. eigenvalues --   -0.11557  -0.07124  -0.06070  -0.04807  -0.04092
 Alpha virt. eigenvalues --   -0.01944  -0.01588  -0.01526  -0.01379   0.00401
 Alpha virt. eigenvalues --    0.01592   0.01780   0.02242   0.02584   0.03042

 Mulliken charges:
               1
     1  Mg   0.691004
     2  C   -0.022487
     3  C   -0.084890
     4  C   -0.035090
     5  C   -0.087449
     6  N   -0.197197
     7  C   -0.113280
     8  C    0.055617
     9  C   -0.029968
    10  C    0.011406
    11  C    0.122739
    12  C    0.155578
    13  C    0.108680
    14  C    0.081479
    15  O   -0.220134
    16  O   -0.260083
    17  N   -0.326665
    18  C    0.181926
    19  C   -0.157134
    20  C    0.019440
    21  C    0.131904
    22  C    0.183480
    23  C   -0.054167
    24  O   -0.195502
    25  C    0.123920
    26  N   -0.256674
    27  C    0.033342
    28  C    0.028225
    29  C    0.061758
    30  C   -0.006185
    31  C    0.132472
    32  C    0.087724
    33  C    0.051167
    34  N   -0.256412
    35  C    0.142676
    36  C   -0.177132
    37  C    0.089561
    38  C    0.084220
    39  C    0.184139
    40  C   -0.076508
    41  O   -0.136141
    42  C    0.119354
    43  C    0.100146
    44  O   -0.185406
    45  O   -0.264111
    46  C    0.223456
    47  C    0.291708
    48  C   -0.095840
    49  C   -0.215305
    50  C    0.163254
    51  C    0.138163
    52  C    0.093155
    53  C    0.078027
    54  C   -0.073091
    55  C    0.101248
    56  C    0.127433
    57  C    0.031594
    58  C    0.123343
    59  C   -0.070374
    60  C    0.117914
    61  C    0.072720
    62  C    0.095144
    63  C    0.066184
    64  C   -0.071507
    65  C    0.126079
    66  C    0.091235
    67  H   -0.073122
    68  H   -0.039157
    69  H   -0.050575
    70  H    0.006772
    71  H   -0.028666
    72  H    0.001599
    73  H   -0.015818
    74  H    0.002509
    75  H   -0.018564
    76  H   -0.016754
    77  H   -0.012937
    78  H    0.017889
    79  H    0.009221
    80  H   -0.003153
    81  H   -0.002322
    82  H    0.002971
    83  H    0.001683
    84  H    0.012395
    85  H   -0.027811
    86  H   -0.027882
    87  H   -0.022918
    88  H   -0.003228
    89  H   -0.017922
    90  H   -0.028933
    91  H   -0.031828
    92  H    0.015982
    93  H   -0.000837
    94  H   -0.002461
    95  H   -0.012664
    96  H    0.013212
    97  H    0.021493
    98  H   -0.021854
    99  H    0.007067
   100  H    0.010466
   101  H    0.029378
   102  H    0.002513
   103  H    0.006121
   104  H   -0.033528
   105  H    0.019096
   106  H   -0.018569
   107  H   -0.002374
   108  H   -0.041532
   109  H   -0.008382
   110  H   -0.010778
   111  H   -0.027186
   112  H   -0.035021
   113  H   -0.034214
   114  H   -0.028128
   115  H   -0.025867
   116  H   -0.009999
   117  H   -0.014174
   118  H   -0.041659
   119  H   -0.024176
   120  H   -0.046057
   121  H   -0.037734
   122  H   -0.028614
   123  H   -0.049885
   124  H   -0.038564
   125  H   -0.019008
   126  H   -0.022193
   127  H   -0.018799
   128  H   -0.030945
   129  H   -0.034374
   130  H   -0.038758
   131  H   -0.042143
   132  H   -0.028850
   133  H   -0.030730
   134  H   -0.043555
   135  H   -0.013700
   136  H   -0.016310
   137  H   -0.022922
   138  H   -0.016925
   139  H   -0.016405
   140  H   -0.022780
 Sum of Mulliken charges =  -0.00000

 Dipole moment (field-independent basis, Debye):
    X=             -4.4376    Y=              2.0664    Z=              3.0151  Tot=              5.7492
 Quadrupole moment (field-independent basis, Debye-Ang):
   XX=           -381.7528   YY=           -435.6747   ZZ=           -406.8761
   XY=             27.9032   XZ=             16.1368   YZ=            -10.7222

 Normal termination of Gaussian 16 at Thu Apr 28 18:00:12 2022.
