 Gaussian 16, Revision A.03,
 Gaussian 16:  ES64L-G16RevA.03 25-Dec-2016

 -----------------------------------
 #p cam-b3lyp/Def2SVP td=(nstates=5)
 -----------------------------------

 --------------------------------------------------------
 step_1651_chromophore_24 TDDFT with cam-b3lyp functional
 --------------------------------------------------------
 Symbolic Z-matrix:
 Charge =  0 Multiplicity = 1

                         Standard orientation:
 ---------------------------------------------------------------------
 Center     Atomic      Atomic             Coordinates (Angstroms)
 Number     Number       Type             X           Y           Z
 ---------------------------------------------------------------------
      1         12           0        5.370639    1.184283   -0.086894
      2          6           0        4.717221   -2.271386    0.029868
      3          6           0        1.936829    1.704153   -0.003679
      4          6           0        5.978995    4.379055   -0.078173
      5          6           0        8.751166    0.387051   -0.775833
      6          7           0        3.578015   -0.156024   -0.150953
      7          6           0        3.561628   -1.490143    0.083596
      8          6           0        2.069803   -1.996832    0.245600
      9          6           0        1.173345   -0.728003   -0.202116
     10          6           0        2.286321    0.339585   -0.039337
     11          6           0        0.529704   -0.705941   -1.648793
     12          6           0        1.818514   -2.514878    1.632966
     13          6           0        1.105676   -3.931138    1.701579
     14          6           0       -0.043905   -4.271231    0.717321
     15          8           0        0.171559   -5.029721   -0.248897
     16          8           0       -1.284456   -3.790702    1.030445
     17          7           0        4.136881    2.798685   -0.040734
     18          6           0        2.783566    2.831120    0.085340
     19          6           0        2.283611    4.155192    0.219948
     20          6           0        3.473141    5.001178    0.128292
     21          6           0        4.637997    4.116522    0.054028
     22          6           0        0.839002    4.470007    0.424919
     23          6           0        3.526035    6.552097    0.132688
     24          8           0        4.642216    7.134529    0.110268
     25          6           0        2.263161    7.323970   -0.055487
     26          7           0        7.085564    2.270549   -0.373159
     27          6           0        7.092401    3.591555   -0.164027
     28          6           0        8.541651    4.120493   -0.228265
     29          6           0        9.495426    2.859366   -0.263178
     30          6           0        8.403647    1.766428   -0.504168
     31          6           0        8.810373    5.121060   -1.344060
     32          6           0       10.203929    2.524599    1.032444
     33          6           0        9.499193    2.921634    2.390279
     34          7           0        6.573867   -0.501173   -0.331721
     35          6           0        7.882329   -0.664556   -0.679621
     36          6           0        8.259655   -2.098383   -0.664383
     37          6           0        7.020586   -2.726485   -0.309496
     38          6           0        6.012892   -1.738525   -0.236462
     39          6           0        9.626930   -2.669456   -0.894854
     40          6           0        6.475632   -3.992925   -0.177505
     41          8           0        6.931098   -5.132585   -0.259662
     42          6           0        4.949936   -3.714281   -0.007080
     43          6           0        4.227555   -4.411978   -1.078338
     44          8           0        4.452807   -4.357663   -2.282901
     45          8           0        3.415250   -5.314777   -0.507220
     46          6           0        2.841502   -6.436579   -1.268046
     47          6           0       -2.393372   -4.467066    0.388593
     48          6           0       -3.597009   -3.550403    0.252589
     49          6           0       -4.867787   -3.781701   -0.069313
     50          6           0       -5.359605   -5.143598   -0.549849
     51          6           0       -5.956508   -2.646458    0.006610
     52          6           0       -6.735893   -2.644110    1.333025
     53          6           0       -6.558470   -1.236286    2.118979
     54          6           0       -7.915719   -0.475802    2.357200
     55          6           0       -7.858365    0.277576    3.702002
     56          6           0       -8.252711    0.556851    1.246620
     57          6           0       -9.398617    0.020769    0.347094
     58          6           0      -10.792400    0.341040    0.977092
     59          6           0      -11.686794    1.274386    0.094964
     60          6           0      -12.028441    2.550732    0.850804
     61          6           0      -12.964649    0.521233   -0.477929
     62          6           0      -13.760272    1.210397   -1.574711
     63          6           0      -15.206091    1.539117   -1.124676
     64          6           0      -16.091192    2.386673   -1.999405
     65          6           0      -16.033756    3.844687   -1.658010
     66          6           0      -17.572548    1.886486   -1.868289
     67          1           0        0.854006    1.826249    0.056088
     68          1           0        6.272275    5.410326    0.128766
     69          1           0        9.814829    0.139432   -0.795800
     70          1           0        2.107011   -2.739657   -0.550537
     71          1           0        0.299889   -0.535941    0.421474
     72          1           0        0.918093   -1.493498   -2.294912
     73          1           0        0.963849    0.206005   -2.060037
     74          1           0       -0.554383   -0.625510   -1.722249
     75          1           0        1.219471   -1.900920    2.304173
     76          1           0        2.750744   -2.623170    2.187696
     77          1           0        0.579911   -4.000865    2.654549
     78          1           0        1.839314   -4.724230    1.558055
     79          1           0        0.465636    4.776817   -0.551979
     80          1           0        0.749575    5.293111    1.134204
     81          1           0        0.215930    3.653602    0.789550
     82          1           0        1.499067    6.903076   -0.708929
     83          1           0        2.602058    8.277202   -0.461318
     84          1           0        1.781212    7.478275    0.909307
     85          1           0        8.740433    4.708566    0.667183
     86          1           0       10.163869    2.850390   -1.123943
     87          1           0        9.297038    4.671857   -2.210335
     88          1           0        9.256794    6.031643   -0.945735
     89          1           0        7.950797    5.457757   -1.922760
     90          1           0       11.190919    2.988509    1.055117
     91          1           0       10.481548    1.474198    0.950329
     92          1           0        8.509552    3.378537    2.405605
     93          1           0       10.216588    3.650578    2.766592
     94          1           0        9.393547    2.048625    3.033949
     95          1           0       10.246361   -1.973517   -1.461801
     96          1           0        9.543080   -3.519371   -1.571681
     97          1           0       10.025167   -2.942453    0.082020
     98          1           0        4.622243   -4.029358    0.983303
     99          1           0        2.634995   -7.263767   -0.589349
    100          1           0        3.623797   -6.752267   -1.957554
    101          1           0        1.928750   -6.216543   -1.822989
    102          1           0       -2.614593   -5.418371    0.871978
    103          1           0       -2.068050   -4.729862   -0.617806
    104          1           0       -3.332874   -2.630335    0.774137
    105          1           0       -5.908309   -5.565105    0.291489
    106          1           0       -4.478753   -5.698920   -0.872140
    107          1           0       -5.854421   -4.931174   -1.497390
    108          1           0       -6.722255   -2.859578   -0.739503
    109          1           0       -5.370322   -1.770002   -0.269827
    110          1           0       -6.528561   -3.506870    1.965311
    111          1           0       -7.786039   -2.588860    1.045532
    112          1           0       -5.952828   -0.506968    1.581319
    113          1           0       -6.060049   -1.445448    3.065353
    114          1           0       -8.642811   -1.279875    2.477831
    115          1           0       -7.277223   -0.323002    4.401016
    116          1           0       -8.892037    0.433321    4.011935
    117          1           0       -7.328478    1.222111    3.579057
    118          1           0       -7.450967    0.781905    0.543520
    119          1           0       -8.633194    1.536763    1.533721
    120          1           0       -9.413231   -1.068337    0.385146
    121          1           0       -9.187783    0.129027   -0.716941
    122          1           0      -10.667733    0.578328    2.034039
    123          1           0      -11.343812   -0.599890    0.962223
    124          1           0      -11.216485    1.507540   -0.859531
    125          1           0      -11.515049    2.688783    1.802878
    126          1           0      -13.102813    2.532764    1.029283
    127          1           0      -11.786308    3.454897    0.291679
    128          1           0      -13.562162    0.332532    0.413541
    129          1           0      -12.637238   -0.415004   -0.931132
    130          1           0      -13.869300    0.578586   -2.456552
    131          1           0      -13.231643    2.099328   -1.916947
    132          1           0      -15.079598    2.006175   -0.148149
    133          1           0      -15.616581    0.532519   -1.046326
    134          1           0      -15.864781    2.275046   -3.060153
    135          1           0      -15.155639    4.270037   -2.143692
    136          1           0      -16.038754    4.032095   -0.584060
    137          1           0      -16.949853    4.293691   -2.041675
    138          1           0      -17.694405    0.918170   -1.382583
    139          1           0      -17.980024    1.832965   -2.878137
    140          1           0      -18.116247    2.647829   -1.308202
 ---------------------------------------------------------------------

 SCF Done:  E(RCAM-B3LYP) =  -3007.14692797     A.U. after   19 cycles

 Excitation energies and oscillator strengths:

 Excited State   1:      Singlet-A      1.6892 eV  734.00 nm  f=0.3785  <S**2>=0.000
     245 -> 248        0.18020
     246 -> 247        0.68435
     245 <- 248        0.10712
 This state for optimization and/or second-order correction.
 Total Energy, E(TD-HF/TD-DFT) =  -3007.08485271
 Copying the excited state density for this state as the 1-particle RhoCI density.

 Excited State   2:      Singlet-A      2.1959 eV  564.62 nm  f=0.1117  <S**2>=0.000
     245 -> 247        0.63851
     246 -> 248       -0.28773

 Excited State   3:      Singlet-A      3.3115 eV  374.40 nm  f=0.0003  <S**2>=0.000
     241 -> 247       -0.11030
     243 -> 247       -0.14346
     244 -> 247        0.65339

 Excited State   4:      Singlet-A      3.3762 eV  367.23 nm  f=0.0309  <S**2>=0.000
     241 -> 247        0.36770
     241 -> 249       -0.20921
     241 -> 250       -0.13806
     243 -> 247        0.41310
     244 -> 247        0.21750
     246 -> 248        0.23440

 Excited State   5:      Singlet-A      3.4563 eV  358.72 nm  f=0.1784  <S**2>=0.000
     241 -> 247        0.41929
     241 -> 249       -0.17155
     241 -> 250       -0.11312
     243 -> 247       -0.27862
     245 -> 247       -0.14649
     246 -> 248       -0.40955

 The electronic state is 1-A.
 Alpha  occ. eigenvalues --  -46.87439 -19.26042 -19.23851 -19.19934 -19.18874
 Alpha  occ. eigenvalues --  -19.18192 -19.18064 -14.42055 -14.42034 -14.39120
 Alpha  occ. eigenvalues --  -14.38984 -10.40074 -10.37961 -10.35492 -10.33653
 Alpha  occ. eigenvalues --  -10.32179 -10.31469 -10.31307 -10.30820 -10.30239
 Alpha  occ. eigenvalues --  -10.30224 -10.29982 -10.29410 -10.29297 -10.29008
 Alpha  occ. eigenvalues --  -10.28728 -10.28711 -10.28495 -10.28211 -10.27957
 Alpha  occ. eigenvalues --  -10.27909 -10.27893 -10.27533 -10.27363 -10.27323
 Alpha  occ. eigenvalues --  -10.27310 -10.27130 -10.27079 -10.26640 -10.26599
 Alpha  occ. eigenvalues --  -10.26598 -10.26464 -10.26381 -10.26259 -10.26256
 Alpha  occ. eigenvalues --  -10.26210 -10.26117 -10.25868 -10.25850 -10.25681
 Alpha  occ. eigenvalues --  -10.25680 -10.25527 -10.25468 -10.25187 -10.25165
 Alpha  occ. eigenvalues --  -10.25119 -10.25029 -10.24786 -10.24752 -10.24684
 Alpha  occ. eigenvalues --  -10.24631 -10.24586 -10.24358 -10.24310 -10.24291
 Alpha  occ. eigenvalues --  -10.24220  -3.16169  -1.91069  -1.90639  -1.90470
 Alpha  occ. eigenvalues --   -1.16875  -1.15479  -1.08619  -1.08076  -1.07352
 Alpha  occ. eigenvalues --   -1.06124  -1.03871  -1.02910  -1.02692  -1.01553
 Alpha  occ. eigenvalues --   -0.93576  -0.90345  -0.89909  -0.89326  -0.89236
 Alpha  occ. eigenvalues --   -0.88931  -0.88236  -0.87618  -0.87188  -0.86887
 Alpha  occ. eigenvalues --   -0.86209  -0.85097  -0.84404  -0.83683  -0.83387
 Alpha  occ. eigenvalues --   -0.82541  -0.82293  -0.81427  -0.81043  -0.80460
 Alpha  occ. eigenvalues --   -0.80233  -0.78435  -0.77949  -0.77392  -0.75891
 Alpha  occ. eigenvalues --   -0.75499  -0.75349  -0.75124  -0.74789  -0.74184
 Alpha  occ. eigenvalues --   -0.73493  -0.72627  -0.71606  -0.70844  -0.70269
 Alpha  occ. eigenvalues --   -0.68570  -0.68219  -0.67074  -0.66853  -0.65589
 Alpha  occ. eigenvalues --   -0.65479  -0.64593  -0.64369  -0.64294  -0.64052
 Alpha  occ. eigenvalues --   -0.64021  -0.63336  -0.62363  -0.61472  -0.60183
 Alpha  occ. eigenvalues --   -0.59857  -0.59336  -0.58899  -0.58258  -0.58063
 Alpha  occ. eigenvalues --   -0.57509  -0.56210  -0.56141  -0.55681  -0.55351
 Alpha  occ. eigenvalues --   -0.54965  -0.54818  -0.54467  -0.54264  -0.53995
 Alpha  occ. eigenvalues --   -0.53554  -0.53506  -0.53207  -0.52877  -0.52657
 Alpha  occ. eigenvalues --   -0.52450  -0.52290  -0.52208  -0.52172  -0.51794
 Alpha  occ. eigenvalues --   -0.51562  -0.51353  -0.51313  -0.50995  -0.50695
 Alpha  occ. eigenvalues --   -0.50527  -0.50180  -0.50040  -0.49674  -0.49517
 Alpha  occ. eigenvalues --   -0.49344  -0.49217  -0.49091  -0.48949  -0.48870
 Alpha  occ. eigenvalues --   -0.48620  -0.48508  -0.48330  -0.48191  -0.47790
 Alpha  occ. eigenvalues --   -0.47590  -0.47224  -0.47153  -0.46935  -0.46736
 Alpha  occ. eigenvalues --   -0.46107  -0.45979  -0.45891  -0.45742  -0.45649
 Alpha  occ. eigenvalues --   -0.45476  -0.45366  -0.45269  -0.44992  -0.44935
 Alpha  occ. eigenvalues --   -0.44757  -0.44482  -0.44077  -0.43827  -0.43649
 Alpha  occ. eigenvalues --   -0.43485  -0.43467  -0.43433  -0.43102  -0.42896
 Alpha  occ. eigenvalues --   -0.42786  -0.42645  -0.42264  -0.42150  -0.41849
 Alpha  occ. eigenvalues --   -0.41805  -0.41758  -0.41460  -0.41079  -0.40942
 Alpha  occ. eigenvalues --   -0.40910  -0.40677  -0.40517  -0.40214  -0.39930
 Alpha  occ. eigenvalues --   -0.39893  -0.39322  -0.39279  -0.38343  -0.38298
 Alpha  occ. eigenvalues --   -0.38211  -0.38124  -0.37914  -0.37421  -0.37325
 Alpha  occ. eigenvalues --   -0.37197  -0.36949  -0.36929  -0.36135  -0.36060
 Alpha  occ. eigenvalues --   -0.35424  -0.35331  -0.35189  -0.34100  -0.33870
 Alpha  occ. eigenvalues --   -0.33603  -0.33538  -0.32997  -0.31142  -0.30844
 Alpha  occ. eigenvalues --   -0.30492  -0.30242  -0.29617  -0.29330  -0.23907
 Alpha  occ. eigenvalues --   -0.21072
 Alpha virt. eigenvalues --   -0.08684  -0.01889   0.00292   0.02140   0.03174
 Alpha virt. eigenvalues --    0.03745   0.05325   0.06052   0.06229   0.06907
 Alpha virt. eigenvalues --    0.08248   0.08606   0.08749   0.09142   0.09264

 Mulliken charges:
               1
     1  Mg   0.826613
     2  C   -0.052809
     3  C   -0.097769
     4  C   -0.050739
     5  C   -0.090334
     6  N   -0.266917
     7  C   -0.065888
     8  C   -0.005705
     9  C   -0.072906
    10  C    0.025176
    11  C    0.065756
    12  C    0.103638
    13  C    0.046756
    14  C    0.159715
    15  O   -0.263231
    16  O   -0.324634
    17  N   -0.414959
    18  C    0.190467
    19  C   -0.165227
    20  C   -0.044181
    21  C    0.149903
    22  C    0.121970
    23  C    0.028840
    24  O   -0.236579
    25  C    0.037845
    26  N   -0.325758
    27  C    0.051191
    28  C   -0.033751
    29  C    0.011562
    30  C    0.009076
    31  C    0.070019
    32  C    0.034985
    33  C   -0.013373
    34  N   -0.345913
    35  C    0.143538
    36  C   -0.163523
    37  C    0.005620
    38  C    0.127801
    39  C    0.132228
    40  C    0.021690
    41  O   -0.176499
    42  C    0.035777
    43  C    0.187835
    44  O   -0.223416
    45  O   -0.329084
    46  C    0.187075
    47  C    0.260495
    48  C   -0.118405
    49  C   -0.235734
    50  C    0.101076
    51  C    0.083202
    52  C    0.038639
    53  C    0.031206
    54  C   -0.133322
    55  C    0.046995
    56  C    0.068650
    57  C   -0.020157
    58  C    0.067772
    59  C   -0.121558
    60  C    0.059216
    61  C    0.020315
    62  C    0.041618
    63  C    0.016047
    64  C   -0.134557
    65  C    0.064914
    66  C    0.031426
    67  H   -0.037954
    68  H   -0.000181
    69  H   -0.016137
    70  H    0.038969
    71  H    0.006109
    72  H    0.026740
    73  H    0.010751
    74  H    0.026254
    75  H    0.012915
    76  H    0.015266
    77  H    0.019779
    78  H    0.047813
    79  H    0.035523
    80  H    0.021788
    81  H    0.025675
    82  H    0.032724
    83  H    0.036491
    84  H    0.040564
    85  H    0.008338
    86  H    0.008762
    87  H    0.002631
    88  H    0.021610
    89  H    0.010155
    90  H    0.000927
    91  H   -0.003414
    92  H    0.036235
    93  H    0.022253
    94  H    0.022407
    95  H    0.012820
    96  H    0.041705
    97  H    0.048001
    98  H    0.022569
    99  H    0.029877
   100  H    0.035129
   101  H    0.051256
   102  H    0.028223
   103  H    0.038831
   104  H   -0.000543
   105  H    0.041302
   106  H    0.005760
   107  H    0.021927
   108  H   -0.010830
   109  H    0.019936
   110  H    0.017218
   111  H   -0.000842
   112  H   -0.008162
   113  H   -0.004506
   114  H    0.002335
   115  H   -0.001035
   116  H    0.012595
   117  H    0.009020
   118  H   -0.011208
   119  H    0.003848
   120  H   -0.020187
   121  H   -0.007394
   122  H   -0.002129
   123  H   -0.017862
   124  H   -0.007391
   125  H    0.005407
   126  H   -0.001083
   127  H    0.005799
   128  H   -0.002927
   129  H   -0.004811
   130  H   -0.009136
   131  H   -0.014983
   132  H   -0.006117
   133  H   -0.002281
   134  H   -0.010548
   135  H    0.010179
   136  H    0.007479
   137  H    0.002460
   138  H    0.008081
   139  H    0.007995
   140  H    0.001513
 Sum of Mulliken charges =  -0.00000

 Dipole moment (field-independent basis, Debye):
    X=             -4.6887    Y=              2.3697    Z=              3.1719  Tot=              6.1368
 Quadrupole moment (field-independent basis, Debye-Ang):
   XX=           -379.7349   YY=           -432.3297   ZZ=           -407.1052
   XY=             28.4188   XZ=             16.6850   YZ=            -11.2071

 Normal termination of Gaussian 16 at Thu Apr 28 16:55:09 2022.
