 Gaussian 16, Revision A.03,
 Gaussian 16:  ES64L-G16RevA.03 25-Dec-2016

 ---------------------------------
 #p PBE1PBE/Def2SVP td=(nstates=5)
 ---------------------------------

 ------------------------------------------------------
 step_1651_chromophore_24 TDDFT with PBE1PBE functional
 ------------------------------------------------------
 Symbolic Z-matrix:
 Charge =  0 Multiplicity = 1

                         Standard orientation:
 ---------------------------------------------------------------------
 Center     Atomic      Atomic             Coordinates (Angstroms)
 Number     Number       Type             X           Y           Z
 ---------------------------------------------------------------------
      1         12           0        5.370639    1.184283   -0.086894
      2          6           0        4.717221   -2.271386    0.029868
      3          6           0        1.936829    1.704153   -0.003679
      4          6           0        5.978995    4.379055   -0.078173
      5          6           0        8.751166    0.387051   -0.775833
      6          7           0        3.578015   -0.156024   -0.150953
      7          6           0        3.561628   -1.490143    0.083596
      8          6           0        2.069803   -1.996832    0.245600
      9          6           0        1.173345   -0.728003   -0.202116
     10          6           0        2.286321    0.339585   -0.039337
     11          6           0        0.529704   -0.705941   -1.648793
     12          6           0        1.818514   -2.514878    1.632966
     13          6           0        1.105676   -3.931138    1.701579
     14          6           0       -0.043905   -4.271231    0.717321
     15          8           0        0.171559   -5.029721   -0.248897
     16          8           0       -1.284456   -3.790702    1.030445
     17          7           0        4.136881    2.798685   -0.040734
     18          6           0        2.783566    2.831120    0.085340
     19          6           0        2.283611    4.155192    0.219948
     20          6           0        3.473141    5.001178    0.128292
     21          6           0        4.637997    4.116522    0.054028
     22          6           0        0.839002    4.470007    0.424919
     23          6           0        3.526035    6.552097    0.132688
     24          8           0        4.642216    7.134529    0.110268
     25          6           0        2.263161    7.323970   -0.055487
     26          7           0        7.085564    2.270549   -0.373159
     27          6           0        7.092401    3.591555   -0.164027
     28          6           0        8.541651    4.120493   -0.228265
     29          6           0        9.495426    2.859366   -0.263178
     30          6           0        8.403647    1.766428   -0.504168
     31          6           0        8.810373    5.121060   -1.344060
     32          6           0       10.203929    2.524599    1.032444
     33          6           0        9.499193    2.921634    2.390279
     34          7           0        6.573867   -0.501173   -0.331721
     35          6           0        7.882329   -0.664556   -0.679621
     36          6           0        8.259655   -2.098383   -0.664383
     37          6           0        7.020586   -2.726485   -0.309496
     38          6           0        6.012892   -1.738525   -0.236462
     39          6           0        9.626930   -2.669456   -0.894854
     40          6           0        6.475632   -3.992925   -0.177505
     41          8           0        6.931098   -5.132585   -0.259662
     42          6           0        4.949936   -3.714281   -0.007080
     43          6           0        4.227555   -4.411978   -1.078338
     44          8           0        4.452807   -4.357663   -2.282901
     45          8           0        3.415250   -5.314777   -0.507220
     46          6           0        2.841502   -6.436579   -1.268046
     47          6           0       -2.393372   -4.467066    0.388593
     48          6           0       -3.597009   -3.550403    0.252589
     49          6           0       -4.867787   -3.781701   -0.069313
     50          6           0       -5.359605   -5.143598   -0.549849
     51          6           0       -5.956508   -2.646458    0.006610
     52          6           0       -6.735893   -2.644110    1.333025
     53          6           0       -6.558470   -1.236286    2.118979
     54          6           0       -7.915719   -0.475802    2.357200
     55          6           0       -7.858365    0.277576    3.702002
     56          6           0       -8.252711    0.556851    1.246620
     57          6           0       -9.398617    0.020769    0.347094
     58          6           0      -10.792400    0.341040    0.977092
     59          6           0      -11.686794    1.274386    0.094964
     60          6           0      -12.028441    2.550732    0.850804
     61          6           0      -12.964649    0.521233   -0.477929
     62          6           0      -13.760272    1.210397   -1.574711
     63          6           0      -15.206091    1.539117   -1.124676
     64          6           0      -16.091192    2.386673   -1.999405
     65          6           0      -16.033756    3.844687   -1.658010
     66          6           0      -17.572548    1.886486   -1.868289
     67          1           0        0.854006    1.826249    0.056088
     68          1           0        6.272275    5.410326    0.128766
     69          1           0        9.814829    0.139432   -0.795800
     70          1           0        2.107011   -2.739657   -0.550537
     71          1           0        0.299889   -0.535941    0.421474
     72          1           0        0.918093   -1.493498   -2.294912
     73          1           0        0.963849    0.206005   -2.060037
     74          1           0       -0.554383   -0.625510   -1.722249
     75          1           0        1.219471   -1.900920    2.304173
     76          1           0        2.750744   -2.623170    2.187696
     77          1           0        0.579911   -4.000865    2.654549
     78          1           0        1.839314   -4.724230    1.558055
     79          1           0        0.465636    4.776817   -0.551979
     80          1           0        0.749575    5.293111    1.134204
     81          1           0        0.215930    3.653602    0.789550
     82          1           0        1.499067    6.903076   -0.708929
     83          1           0        2.602058    8.277202   -0.461318
     84          1           0        1.781212    7.478275    0.909307
     85          1           0        8.740433    4.708566    0.667183
     86          1           0       10.163869    2.850390   -1.123943
     87          1           0        9.297038    4.671857   -2.210335
     88          1           0        9.256794    6.031643   -0.945735
     89          1           0        7.950797    5.457757   -1.922760
     90          1           0       11.190919    2.988509    1.055117
     91          1           0       10.481548    1.474198    0.950329
     92          1           0        8.509552    3.378537    2.405605
     93          1           0       10.216588    3.650578    2.766592
     94          1           0        9.393547    2.048625    3.033949
     95          1           0       10.246361   -1.973517   -1.461801
     96          1           0        9.543080   -3.519371   -1.571681
     97          1           0       10.025167   -2.942453    0.082020
     98          1           0        4.622243   -4.029358    0.983303
     99          1           0        2.634995   -7.263767   -0.589349
    100          1           0        3.623797   -6.752267   -1.957554
    101          1           0        1.928750   -6.216543   -1.822989
    102          1           0       -2.614593   -5.418371    0.871978
    103          1           0       -2.068050   -4.729862   -0.617806
    104          1           0       -3.332874   -2.630335    0.774137
    105          1           0       -5.908309   -5.565105    0.291489
    106          1           0       -4.478753   -5.698920   -0.872140
    107          1           0       -5.854421   -4.931174   -1.497390
    108          1           0       -6.722255   -2.859578   -0.739503
    109          1           0       -5.370322   -1.770002   -0.269827
    110          1           0       -6.528561   -3.506870    1.965311
    111          1           0       -7.786039   -2.588860    1.045532
    112          1           0       -5.952828   -0.506968    1.581319
    113          1           0       -6.060049   -1.445448    3.065353
    114          1           0       -8.642811   -1.279875    2.477831
    115          1           0       -7.277223   -0.323002    4.401016
    116          1           0       -8.892037    0.433321    4.011935
    117          1           0       -7.328478    1.222111    3.579057
    118          1           0       -7.450967    0.781905    0.543520
    119          1           0       -8.633194    1.536763    1.533721
    120          1           0       -9.413231   -1.068337    0.385146
    121          1           0       -9.187783    0.129027   -0.716941
    122          1           0      -10.667733    0.578328    2.034039
    123          1           0      -11.343812   -0.599890    0.962223
    124          1           0      -11.216485    1.507540   -0.859531
    125          1           0      -11.515049    2.688783    1.802878
    126          1           0      -13.102813    2.532764    1.029283
    127          1           0      -11.786308    3.454897    0.291679
    128          1           0      -13.562162    0.332532    0.413541
    129          1           0      -12.637238   -0.415004   -0.931132
    130          1           0      -13.869300    0.578586   -2.456552
    131          1           0      -13.231643    2.099328   -1.916947
    132          1           0      -15.079598    2.006175   -0.148149
    133          1           0      -15.616581    0.532519   -1.046326
    134          1           0      -15.864781    2.275046   -3.060153
    135          1           0      -15.155639    4.270037   -2.143692
    136          1           0      -16.038754    4.032095   -0.584060
    137          1           0      -16.949853    4.293691   -2.041675
    138          1           0      -17.694405    0.918170   -1.382583
    139          1           0      -17.980024    1.832965   -2.878137
    140          1           0      -18.116247    2.647829   -1.308202
 ---------------------------------------------------------------------

 SCF Done:  E(RPBE1PBE) =  -3005.33574934     A.U. after   15 cycles

 Excitation energies and oscillator strengths:

 Excited State   1:      Singlet-A      1.8484 eV  670.78 nm  f=0.3655  <S**2>=0.000
     245 -> 248        0.17162
     246 -> 247        0.69140
     246 <- 247       -0.10751
 This state for optimization and/or second-order correction.
 Total Energy, E(TD-HF/TD-DFT) =  -3005.26782306
 Copying the excited state density for this state as the 1-particle RhoCI density.

 Excited State   2:      Singlet-A      2.1938 eV  565.17 nm  f=0.1126  <S**2>=0.000
     245 -> 247        0.65152
     246 -> 248       -0.25228

 Excited State   3:      Singlet-A      2.8791 eV  430.64 nm  f=0.0004  <S**2>=0.000
     241 -> 247        0.31834
     241 -> 249       -0.10726
     243 -> 247        0.35249
     244 -> 247        0.48289

 Excited State   4:      Singlet-A      2.9958 eV  413.86 nm  f=0.0011  <S**2>=0.000
     241 -> 247       -0.17407
     243 -> 247       -0.47692
     244 -> 247        0.48081

 Excited State   5:      Singlet-A      3.1161 eV  397.89 nm  f=0.0028  <S**2>=0.000
     240 -> 247        0.59494
     240 -> 248        0.12865
     240 -> 249        0.13972
     240 -> 250        0.10492
     241 -> 247       -0.26805
     243 -> 247        0.13228

 The electronic state is 1-A.
 Alpha  occ. eigenvalues --  -46.90843 -19.26715 -19.24491 -19.20229 -19.19100
 Alpha  occ. eigenvalues --  -19.18429 -19.18319 -14.41615 -14.41524 -14.38816
 Alpha  occ. eigenvalues --  -14.38635 -10.37143 -10.34964 -10.32631 -10.30753
 Alpha  occ. eigenvalues --  -10.29589 -10.29306 -10.29015 -10.28597 -10.27985
 Alpha  occ. eigenvalues --  -10.27733 -10.27443 -10.27083 -10.26989 -10.26651
 Alpha  occ. eigenvalues --  -10.26562 -10.26296 -10.26295 -10.25935 -10.25745
 Alpha  occ. eigenvalues --  -10.25551 -10.25407 -10.25306 -10.25202 -10.25179
 Alpha  occ. eigenvalues --  -10.24799 -10.24758 -10.24634 -10.24320 -10.24294
 Alpha  occ. eigenvalues --  -10.24213 -10.23849 -10.23837 -10.23836 -10.23775
 Alpha  occ. eigenvalues --  -10.23646 -10.23635 -10.23380 -10.23339 -10.23321
 Alpha  occ. eigenvalues --  -10.23221 -10.23144 -10.23051 -10.22823 -10.22752
 Alpha  occ. eigenvalues --  -10.22623 -10.22620 -10.22355 -10.22335 -10.22321
 Alpha  occ. eigenvalues --  -10.22197 -10.21999 -10.21898 -10.21675 -10.21660
 Alpha  occ. eigenvalues --  -10.21637  -3.13149  -1.85992  -1.85539  -1.85374
 Alpha  occ. eigenvalues --   -1.11699  -1.10254  -1.03354  -1.02773  -1.02201
 Alpha  occ. eigenvalues --   -1.00939  -0.98480  -0.97498  -0.97343  -0.96232
 Alpha  occ. eigenvalues --   -0.87967  -0.84450  -0.84009  -0.83627  -0.83378
 Alpha  occ. eigenvalues --   -0.83098  -0.82565  -0.81732  -0.81509  -0.81164
 Alpha  occ. eigenvalues --   -0.80485  -0.79341  -0.78617  -0.77961  -0.77606
 Alpha  occ. eigenvalues --   -0.76785  -0.76456  -0.75663  -0.75285  -0.74728
 Alpha  occ. eigenvalues --   -0.74506  -0.72733  -0.72240  -0.71693  -0.70225
 Alpha  occ. eigenvalues --   -0.69672  -0.69454  -0.69223  -0.69157  -0.68366
 Alpha  occ. eigenvalues --   -0.67801  -0.67046  -0.66007  -0.65155  -0.64635
 Alpha  occ. eigenvalues --   -0.63056  -0.62445  -0.61492  -0.61145  -0.60066
 Alpha  occ. eigenvalues --   -0.59706  -0.59140  -0.58934  -0.58785  -0.58478
 Alpha  occ. eigenvalues --   -0.58187  -0.57441  -0.56573  -0.56037  -0.54721
 Alpha  occ. eigenvalues --   -0.54269  -0.53940  -0.53479  -0.52856  -0.52508
 Alpha  occ. eigenvalues --   -0.52091  -0.50798  -0.50538  -0.50237  -0.49866
 Alpha  occ. eigenvalues --   -0.49535  -0.49347  -0.48809  -0.48715  -0.48428
 Alpha  occ. eigenvalues --   -0.48057  -0.47931  -0.47699  -0.47449  -0.47294
 Alpha  occ. eigenvalues --   -0.47041  -0.46883  -0.46747  -0.46573  -0.46337
 Alpha  occ. eigenvalues --   -0.46112  -0.45826  -0.45798  -0.45545  -0.45300
 Alpha  occ. eigenvalues --   -0.45089  -0.44725  -0.44563  -0.44311  -0.44211
 Alpha  occ. eigenvalues --   -0.43884  -0.43840  -0.43685  -0.43568  -0.43473
 Alpha  occ. eigenvalues --   -0.43261  -0.43123  -0.42957  -0.42829  -0.42436
 Alpha  occ. eigenvalues --   -0.42226  -0.41898  -0.41847  -0.41567  -0.41360
 Alpha  occ. eigenvalues --   -0.40823  -0.40720  -0.40500  -0.40468  -0.40436
 Alpha  occ. eigenvalues --   -0.40210  -0.40022  -0.39950  -0.39692  -0.39560
 Alpha  occ. eigenvalues --   -0.39430  -0.39245  -0.38835  -0.38592  -0.38413
 Alpha  occ. eigenvalues --   -0.38264  -0.38177  -0.38155  -0.37869  -0.37679
 Alpha  occ. eigenvalues --   -0.37623  -0.37442  -0.37038  -0.36843  -0.36669
 Alpha  occ. eigenvalues --   -0.36634  -0.36527  -0.36333  -0.35890  -0.35823
 Alpha  occ. eigenvalues --   -0.35674  -0.35582  -0.35360  -0.35029  -0.34795
 Alpha  occ. eigenvalues --   -0.34689  -0.34167  -0.34101  -0.33195  -0.33176
 Alpha  occ. eigenvalues --   -0.33103  -0.32909  -0.32869  -0.32352  -0.32269
 Alpha  occ. eigenvalues --   -0.32149  -0.32007  -0.31732  -0.31207  -0.30984
 Alpha  occ. eigenvalues --   -0.30392  -0.30272  -0.30026  -0.29302  -0.29116
 Alpha  occ. eigenvalues --   -0.28611  -0.28497  -0.27990  -0.26505  -0.25859
 Alpha  occ. eigenvalues --   -0.25523  -0.25491  -0.25106  -0.24927  -0.20844
 Alpha  occ. eigenvalues --   -0.18722
 Alpha virt. eigenvalues --   -0.11150  -0.05414  -0.03879  -0.02262  -0.00893
 Alpha virt. eigenvalues --    0.00567   0.00950   0.01590   0.01625   0.03334
 Alpha virt. eigenvalues --    0.04296   0.04870   0.05179   0.05462   0.06055

 Mulliken charges:
               1
     1  Mg   0.982714
     2  C   -0.060588
     3  C   -0.081322
     4  C   -0.050641
     5  C   -0.081196
     6  N   -0.366223
     7  C    0.004329
     8  C   -0.085188
     9  C   -0.136592
    10  C    0.049980
    11  C    0.010881
    12  C    0.058168
    13  C   -0.032216
    14  C    0.226393
    15  O   -0.294300
    16  O   -0.357789
    17  N   -0.531582
    18  C    0.212573
    19  C   -0.193272
    20  C   -0.087407
    21  C    0.178835
    22  C    0.057198
    23  C    0.080549
    24  O   -0.272466
    25  C   -0.034132
    26  N   -0.431417
    27  C    0.087441
    28  C   -0.113918
    29  C   -0.063531
    30  C    0.046352
    31  C    0.017406
    32  C   -0.022574
    33  C   -0.086549
    34  N   -0.470734
    35  C    0.160195
    36  C   -0.170113
    37  C   -0.039931
    38  C    0.181102
    39  C    0.077593
    40  C    0.107692
    41  O   -0.224972
    42  C   -0.078737
    43  C    0.281704
    44  O   -0.260464
    45  O   -0.363247
    46  C    0.134167
    47  C    0.226197
    48  C   -0.127877
    49  C   -0.281453
    50  C    0.034696
    51  C    0.022107
    52  C   -0.030191
    53  C   -0.012803
    54  C   -0.224622
    55  C   -0.015637
    56  C    0.014061
    57  C   -0.082233
    58  C    0.010346
    59  C   -0.201136
    60  C    0.000351
    61  C   -0.038479
    62  C   -0.018034
    63  C   -0.042116
    64  C   -0.229187
    65  C    0.002696
    66  C   -0.029395
    67  H   -0.005698
    68  H    0.031285
    69  H    0.012670
    70  H    0.081877
    71  H    0.040848
    72  H    0.054228
    73  H    0.039652
    74  H    0.052348
    75  H    0.043681
    76  H    0.047874
    77  H    0.052303
    78  H    0.081339
    79  H    0.064211
    80  H    0.051040
    81  H    0.052089
    82  H    0.058862
    83  H    0.063359
    84  H    0.066939
    85  H    0.046289
    86  H    0.044152
    87  H    0.030200
    88  H    0.048433
    89  H    0.037763
    90  H    0.034118
    91  H    0.031321
    92  H    0.063268
    93  H    0.049614
    94  H    0.050727
    95  H    0.038807
    96  H    0.068737
    97  H    0.074795
    98  H    0.062530
    99  H    0.051248
   100  H    0.056357
   101  H    0.072539
   102  H    0.054525
   103  H    0.064895
   104  H    0.029630
   105  H    0.068376
   106  H    0.034208
   107  H    0.049664
   108  H    0.021970
   109  H    0.049838
   110  H    0.048415
   111  H    0.034608
   112  H    0.023166
   113  H    0.027486
   114  H    0.039803
   115  H    0.027086
   116  H    0.041044
   117  H    0.037216
   118  H    0.020940
   119  H    0.037519
   120  H    0.015493
   121  H    0.022708
   122  H    0.030266
   123  H    0.015988
   124  H    0.030487
   125  H    0.031940
   126  H    0.027683
   127  H    0.032902
   128  H    0.029531
   129  H    0.028769
   130  H    0.024227
   131  H    0.017821
   132  H    0.028160
   133  H    0.031133
   134  H    0.027131
   135  H    0.038612
   136  H    0.034496
   137  H    0.031088
   138  H    0.034774
   139  H    0.035831
   140  H    0.029309
 Sum of Mulliken charges =  -0.00000

 Dipole moment (field-independent basis, Debye):
    X=             -4.6870    Y=              2.3986    Z=              3.1652  Tot=              6.1433
 Quadrupole moment (field-independent basis, Debye-Ang):
   XX=           -374.3003   YY=           -429.4522   ZZ=           -404.6368
   XY=             29.2515   XZ=             16.9301   YZ=            -11.1965

 Normal termination of Gaussian 16 at Thu Apr 28 17:18:06 2022.
