 Gaussian 16, Revision A.03,
 Gaussian 16:  ES64L-G16RevA.03 25-Dec-2016

 --------------------------------
 #p wB97XD/Def2SVP td=(nstates=5)
 --------------------------------

 -----------------------------------------------------
 step_1651_chromophore_24 TDDFT with wB97XD functional
 -----------------------------------------------------
 Symbolic Z-matrix:
 Charge =  0 Multiplicity = 1

                         Standard orientation:
 ---------------------------------------------------------------------
 Center     Atomic      Atomic             Coordinates (Angstroms)
 Number     Number       Type             X           Y           Z
 ---------------------------------------------------------------------
      1         12           0        5.370639    1.184283   -0.086894
      2          6           0        4.717221   -2.271386    0.029868
      3          6           0        1.936829    1.704153   -0.003679
      4          6           0        5.978995    4.379055   -0.078173
      5          6           0        8.751166    0.387051   -0.775833
      6          7           0        3.578015   -0.156024   -0.150953
      7          6           0        3.561628   -1.490143    0.083596
      8          6           0        2.069803   -1.996832    0.245600
      9          6           0        1.173345   -0.728003   -0.202116
     10          6           0        2.286321    0.339585   -0.039337
     11          6           0        0.529704   -0.705941   -1.648793
     12          6           0        1.818514   -2.514878    1.632966
     13          6           0        1.105676   -3.931138    1.701579
     14          6           0       -0.043905   -4.271231    0.717321
     15          8           0        0.171559   -5.029721   -0.248897
     16          8           0       -1.284456   -3.790702    1.030445
     17          7           0        4.136881    2.798685   -0.040734
     18          6           0        2.783566    2.831120    0.085340
     19          6           0        2.283611    4.155192    0.219948
     20          6           0        3.473141    5.001178    0.128292
     21          6           0        4.637997    4.116522    0.054028
     22          6           0        0.839002    4.470007    0.424919
     23          6           0        3.526035    6.552097    0.132688
     24          8           0        4.642216    7.134529    0.110268
     25          6           0        2.263161    7.323970   -0.055487
     26          7           0        7.085564    2.270549   -0.373159
     27          6           0        7.092401    3.591555   -0.164027
     28          6           0        8.541651    4.120493   -0.228265
     29          6           0        9.495426    2.859366   -0.263178
     30          6           0        8.403647    1.766428   -0.504168
     31          6           0        8.810373    5.121060   -1.344060
     32          6           0       10.203929    2.524599    1.032444
     33          6           0        9.499193    2.921634    2.390279
     34          7           0        6.573867   -0.501173   -0.331721
     35          6           0        7.882329   -0.664556   -0.679621
     36          6           0        8.259655   -2.098383   -0.664383
     37          6           0        7.020586   -2.726485   -0.309496
     38          6           0        6.012892   -1.738525   -0.236462
     39          6           0        9.626930   -2.669456   -0.894854
     40          6           0        6.475632   -3.992925   -0.177505
     41          8           0        6.931098   -5.132585   -0.259662
     42          6           0        4.949936   -3.714281   -0.007080
     43          6           0        4.227555   -4.411978   -1.078338
     44          8           0        4.452807   -4.357663   -2.282901
     45          8           0        3.415250   -5.314777   -0.507220
     46          6           0        2.841502   -6.436579   -1.268046
     47          6           0       -2.393372   -4.467066    0.388593
     48          6           0       -3.597009   -3.550403    0.252589
     49          6           0       -4.867787   -3.781701   -0.069313
     50          6           0       -5.359605   -5.143598   -0.549849
     51          6           0       -5.956508   -2.646458    0.006610
     52          6           0       -6.735893   -2.644110    1.333025
     53          6           0       -6.558470   -1.236286    2.118979
     54          6           0       -7.915719   -0.475802    2.357200
     55          6           0       -7.858365    0.277576    3.702002
     56          6           0       -8.252711    0.556851    1.246620
     57          6           0       -9.398617    0.020769    0.347094
     58          6           0      -10.792400    0.341040    0.977092
     59          6           0      -11.686794    1.274386    0.094964
     60          6           0      -12.028441    2.550732    0.850804
     61          6           0      -12.964649    0.521233   -0.477929
     62          6           0      -13.760272    1.210397   -1.574711
     63          6           0      -15.206091    1.539117   -1.124676
     64          6           0      -16.091192    2.386673   -1.999405
     65          6           0      -16.033756    3.844687   -1.658010
     66          6           0      -17.572548    1.886486   -1.868289
     67          1           0        0.854006    1.826249    0.056088
     68          1           0        6.272275    5.410326    0.128766
     69          1           0        9.814829    0.139432   -0.795800
     70          1           0        2.107011   -2.739657   -0.550537
     71          1           0        0.299889   -0.535941    0.421474
     72          1           0        0.918093   -1.493498   -2.294912
     73          1           0        0.963849    0.206005   -2.060037
     74          1           0       -0.554383   -0.625510   -1.722249
     75          1           0        1.219471   -1.900920    2.304173
     76          1           0        2.750744   -2.623170    2.187696
     77          1           0        0.579911   -4.000865    2.654549
     78          1           0        1.839314   -4.724230    1.558055
     79          1           0        0.465636    4.776817   -0.551979
     80          1           0        0.749575    5.293111    1.134204
     81          1           0        0.215930    3.653602    0.789550
     82          1           0        1.499067    6.903076   -0.708929
     83          1           0        2.602058    8.277202   -0.461318
     84          1           0        1.781212    7.478275    0.909307
     85          1           0        8.740433    4.708566    0.667183
     86          1           0       10.163869    2.850390   -1.123943
     87          1           0        9.297038    4.671857   -2.210335
     88          1           0        9.256794    6.031643   -0.945735
     89          1           0        7.950797    5.457757   -1.922760
     90          1           0       11.190919    2.988509    1.055117
     91          1           0       10.481548    1.474198    0.950329
     92          1           0        8.509552    3.378537    2.405605
     93          1           0       10.216588    3.650578    2.766592
     94          1           0        9.393547    2.048625    3.033949
     95          1           0       10.246361   -1.973517   -1.461801
     96          1           0        9.543080   -3.519371   -1.571681
     97          1           0       10.025167   -2.942453    0.082020
     98          1           0        4.622243   -4.029358    0.983303
     99          1           0        2.634995   -7.263767   -0.589349
    100          1           0        3.623797   -6.752267   -1.957554
    101          1           0        1.928750   -6.216543   -1.822989
    102          1           0       -2.614593   -5.418371    0.871978
    103          1           0       -2.068050   -4.729862   -0.617806
    104          1           0       -3.332874   -2.630335    0.774137
    105          1           0       -5.908309   -5.565105    0.291489
    106          1           0       -4.478753   -5.698920   -0.872140
    107          1           0       -5.854421   -4.931174   -1.497390
    108          1           0       -6.722255   -2.859578   -0.739503
    109          1           0       -5.370322   -1.770002   -0.269827
    110          1           0       -6.528561   -3.506870    1.965311
    111          1           0       -7.786039   -2.588860    1.045532
    112          1           0       -5.952828   -0.506968    1.581319
    113          1           0       -6.060049   -1.445448    3.065353
    114          1           0       -8.642811   -1.279875    2.477831
    115          1           0       -7.277223   -0.323002    4.401016
    116          1           0       -8.892037    0.433321    4.011935
    117          1           0       -7.328478    1.222111    3.579057
    118          1           0       -7.450967    0.781905    0.543520
    119          1           0       -8.633194    1.536763    1.533721
    120          1           0       -9.413231   -1.068337    0.385146
    121          1           0       -9.187783    0.129027   -0.716941
    122          1           0      -10.667733    0.578328    2.034039
    123          1           0      -11.343812   -0.599890    0.962223
    124          1           0      -11.216485    1.507540   -0.859531
    125          1           0      -11.515049    2.688783    1.802878
    126          1           0      -13.102813    2.532764    1.029283
    127          1           0      -11.786308    3.454897    0.291679
    128          1           0      -13.562162    0.332532    0.413541
    129          1           0      -12.637238   -0.415004   -0.931132
    130          1           0      -13.869300    0.578586   -2.456552
    131          1           0      -13.231643    2.099328   -1.916947
    132          1           0      -15.079598    2.006175   -0.148149
    133          1           0      -15.616581    0.532519   -1.046326
    134          1           0      -15.864781    2.275046   -3.060153
    135          1           0      -15.155639    4.270037   -2.143692
    136          1           0      -16.038754    4.032095   -0.584060
    137          1           0      -16.949853    4.293691   -2.041675
    138          1           0      -17.694405    0.918170   -1.382583
    139          1           0      -17.980024    1.832965   -2.878137
    140          1           0      -18.116247    2.647829   -1.308202
 ---------------------------------------------------------------------

 SCF Done:  E(RwB97XD) =  -3007.84493112     A.U. after   20 cycles

 Excitation energies and oscillator strengths:

 Excited State   1:      Singlet-A      1.6289 eV  761.16 nm  f=0.3771  <S**2>=0.000
     245 -> 248        0.18598
     246 -> 247        0.68215
     245 <- 248        0.11677
 This state for optimization and/or second-order correction.
 Total Energy, E(TD-HF/TD-DFT) =  -3007.78507049
 Copying the excited state density for this state as the 1-particle RhoCI density.

 Excited State   2:      Singlet-A      2.1386 eV  579.75 nm  f=0.1079  <S**2>=0.000
     245 -> 247        0.63640
     246 -> 248       -0.29042

 Excited State   3:      Singlet-A      3.3318 eV  372.13 nm  f=0.0010  <S**2>=0.000
     243 -> 247       -0.19981
     243 -> 249        0.11248
     244 -> 247        0.63389

 Excited State   4:      Singlet-A      3.4007 eV  364.58 nm  f=0.0579  <S**2>=0.000
     241 -> 247        0.30038
     241 -> 249       -0.19974
     241 -> 250        0.12740
     243 -> 247        0.42122
     244 -> 247        0.24785
     246 -> 248        0.28383

 Excited State   5:      Singlet-A      3.4741 eV  356.88 nm  f=0.1979  <S**2>=0.000
     241 -> 247        0.45071
     241 -> 249       -0.20398
     241 -> 250        0.13103
     243 -> 247       -0.18308
     245 -> 247       -0.15113
     246 -> 248       -0.40650

 The electronic state is 1-A.
 Alpha  occ. eigenvalues --  -46.93795 -19.31271 -19.29069 -19.24859 -19.23910
 Alpha  occ. eigenvalues --  -19.23162 -19.23156 -14.46668 -14.46619 -14.43743
 Alpha  occ. eigenvalues --  -14.43596 -10.43896 -10.41812 -10.39467 -10.37680
 Alpha  occ. eigenvalues --  -10.36065 -10.35529 -10.35349 -10.34848 -10.34221
 Alpha  occ. eigenvalues --  -10.34008 -10.33978 -10.33431 -10.33293 -10.33050
 Alpha  occ. eigenvalues --  -10.32899 -10.32782 -10.32565 -10.32329 -10.31951
 Alpha  occ. eigenvalues --  -10.31926 -10.31826 -10.31637 -10.31435 -10.31394
 Alpha  occ. eigenvalues --  -10.31231 -10.31134 -10.31129 -10.30632 -10.30627
 Alpha  occ. eigenvalues --  -10.30579 -10.30366 -10.30236 -10.30206 -10.30161
 Alpha  occ. eigenvalues --  -10.30112 -10.30086 -10.29701 -10.29683 -10.29664
 Alpha  occ. eigenvalues --  -10.29623 -10.29499 -10.29488 -10.29111 -10.29103
 Alpha  occ. eigenvalues --  -10.28977 -10.28962 -10.28717 -10.28696 -10.28678
 Alpha  occ. eigenvalues --  -10.28582 -10.28428 -10.28279 -10.28123 -10.28096
 Alpha  occ. eigenvalues --  -10.28043  -3.19932  -1.93528  -1.93077  -1.92911
 Alpha  occ. eigenvalues --   -1.19059  -1.17661  -1.10878  -1.10279  -1.09527
 Alpha  occ. eigenvalues --   -1.08323  -1.05883  -1.04898  -1.04720  -1.03585
 Alpha  occ. eigenvalues --   -0.95590  -0.92135  -0.91681  -0.91210  -0.91035
 Alpha  occ. eigenvalues --   -0.90752  -0.90139  -0.89395  -0.89109  -0.88823
 Alpha  occ. eigenvalues --   -0.88161  -0.86980  -0.86267  -0.85584  -0.85247
 Alpha  occ. eigenvalues --   -0.84412  -0.84194  -0.83332  -0.82935  -0.82350
 Alpha  occ. eigenvalues --   -0.82150  -0.80379  -0.79864  -0.79298  -0.77845
 Alpha  occ. eigenvalues --   -0.77354  -0.77143  -0.76921  -0.76723  -0.76025
 Alpha  occ. eigenvalues --   -0.75411  -0.74624  -0.73546  -0.72763  -0.72185
 Alpha  occ. eigenvalues --   -0.70587  -0.70086  -0.69041  -0.68761  -0.67550
 Alpha  occ. eigenvalues --   -0.67344  -0.66582  -0.66374  -0.66254  -0.65956
 Alpha  occ. eigenvalues --   -0.65867  -0.65133  -0.64201  -0.63466  -0.62162
 Alpha  occ. eigenvalues --   -0.61773  -0.61331  -0.60894  -0.60237  -0.60025
 Alpha  occ. eigenvalues --   -0.59494  -0.58182  -0.58016  -0.57647  -0.57272
 Alpha  occ. eigenvalues --   -0.56924  -0.56759  -0.56304  -0.56143  -0.55875
 Alpha  occ. eigenvalues --   -0.55488  -0.55355  -0.55102  -0.54795  -0.54602
 Alpha  occ. eigenvalues --   -0.54362  -0.54225  -0.54125  -0.54070  -0.53688
 Alpha  occ. eigenvalues --   -0.53454  -0.53300  -0.53174  -0.52881  -0.52597
 Alpha  occ. eigenvalues --   -0.52446  -0.52055  -0.51984  -0.51599  -0.51475
 Alpha  occ. eigenvalues --   -0.51216  -0.51177  -0.50985  -0.50838  -0.50765
 Alpha  occ. eigenvalues --   -0.50578  -0.50419  -0.50261  -0.50092  -0.49711
 Alpha  occ. eigenvalues --   -0.49540  -0.49121  -0.49089  -0.48885  -0.48612
 Alpha  occ. eigenvalues --   -0.47968  -0.47882  -0.47743  -0.47651  -0.47572
 Alpha  occ. eigenvalues --   -0.47381  -0.47212  -0.47208  -0.46919  -0.46780
 Alpha  occ. eigenvalues --   -0.46644  -0.46427  -0.46017  -0.45785  -0.45572
 Alpha  occ. eigenvalues --   -0.45377  -0.45332  -0.45310  -0.45015  -0.44784
 Alpha  occ. eigenvalues --   -0.44711  -0.44558  -0.44194  -0.44000  -0.43781
 Alpha  occ. eigenvalues --   -0.43673  -0.43648  -0.43409  -0.43073  -0.42807
 Alpha  occ. eigenvalues --   -0.42790  -0.42647  -0.42402  -0.42071  -0.41842
 Alpha  occ. eigenvalues --   -0.41730  -0.41193  -0.41167  -0.40222  -0.40153
 Alpha  occ. eigenvalues --   -0.40125  -0.39944  -0.39833  -0.39354  -0.39308
 Alpha  occ. eigenvalues --   -0.39177  -0.38988  -0.38773  -0.38041  -0.37903
 Alpha  occ. eigenvalues --   -0.37353  -0.37292  -0.37037  -0.36086  -0.35884
 Alpha  occ. eigenvalues --   -0.35644  -0.35373  -0.35050  -0.33121  -0.32996
 Alpha  occ. eigenvalues --   -0.32523  -0.32268  -0.31795  -0.31509  -0.25826
 Alpha  occ. eigenvalues --   -0.22871
 Alpha virt. eigenvalues --   -0.07042   0.00033   0.02335   0.04247   0.05896
 Alpha virt. eigenvalues --    0.06383   0.07705   0.08340   0.08370   0.09720
 Alpha virt. eigenvalues --    0.10812   0.11739   0.11861   0.12198   0.12801

 Mulliken charges:
               1
     1  Mg   0.969487
     2  C   -0.067004
     3  C   -0.103142
     4  C   -0.061835
     5  C   -0.097463
     6  N   -0.335580
     7  C   -0.021375
     8  C   -0.055788
     9  C   -0.117090
    10  C    0.044137
    11  C    0.020008
    12  C    0.063609
    13  C   -0.009785
    14  C    0.212152
    15  O   -0.291823
    16  O   -0.356135
    17  N   -0.499388
    18  C    0.205734
    19  C   -0.182939
    20  C   -0.082620
    21  C    0.170383
    22  C    0.070532
    23  C    0.075381
    24  O   -0.266751
    25  C   -0.025516
    26  N   -0.398344
    27  C    0.071384
    28  C   -0.085684
    29  C   -0.038304
    30  C    0.032792
    31  C    0.024364
    32  C   -0.008914
    33  C   -0.070370
    34  N   -0.433668
    35  C    0.154788
    36  C   -0.169875
    37  C   -0.038638
    38  C    0.162583
    39  C    0.088989
    40  C    0.095322
    41  O   -0.214056
    42  C   -0.034915
    43  C    0.252947
    44  O   -0.253565
    45  O   -0.358467
    46  C    0.146016
    47  C    0.236669
    48  C   -0.137499
    49  C   -0.266205
    50  C    0.049517
    51  C    0.040026
    52  C   -0.009676
    53  C   -0.002829
    54  C   -0.191290
    55  C   -0.000194
    56  C    0.025533
    57  C   -0.061388
    58  C    0.026914
    59  C   -0.174909
    60  C    0.013270
    61  C   -0.019575
    62  C   -0.005186
    63  C   -0.019107
    64  C   -0.201865
    65  C    0.014772
    66  C   -0.016720
    67  H   -0.013685
    68  H    0.026108
    69  H    0.007328
    70  H    0.063378
    71  H    0.033175
    72  H    0.049472
    73  H    0.031264
    74  H    0.048386
    75  H    0.038088
    76  H    0.040126
    77  H    0.047126
    78  H    0.072071
    79  H    0.058686
    80  H    0.044240
    81  H    0.048400
    82  H    0.054213
    83  H    0.062052
    84  H    0.063236
    85  H    0.034260
    86  H    0.036180
    87  H    0.023910
    88  H    0.044251
    89  H    0.031479
    90  H    0.027147
    91  H    0.020255
    92  H    0.054621
    93  H    0.044124
    94  H    0.045836
    95  H    0.033881
    96  H    0.065412
    97  H    0.071210
    98  H    0.053258
    99  H    0.048589
   100  H    0.052794
   101  H    0.070101
   102  H    0.049903
   103  H    0.059632
   104  H    0.025349
   105  H    0.063307
   106  H    0.028321
   107  H    0.043674
   108  H    0.014705
   109  H    0.042033
   110  H    0.042143
   111  H    0.020759
   112  H    0.011995
   113  H    0.019837
   114  H    0.025975
   115  H    0.020584
   116  H    0.034805
   117  H    0.030304
   118  H    0.013504
   119  H    0.026274
   120  H    0.000862
   121  H    0.017162
   122  H    0.018933
   123  H    0.006422
   124  H    0.016905
   125  H    0.026464
   126  H    0.018288
   127  H    0.027830
   128  H    0.018257
   129  H    0.020376
   130  H    0.016962
   131  H    0.008057
   132  H    0.012032
   133  H    0.020423
   134  H    0.017593
   135  H    0.032953
   136  H    0.028250
   137  H    0.024257
   138  H    0.029278
   139  H    0.030452
   140  H    0.022337
 Sum of Mulliken charges =  -0.00000

 Dipole moment (field-independent basis, Debye):
    X=             -4.7292    Y=              2.3772    Z=              3.2060  Tot=              6.1883
 Quadrupole moment (field-independent basis, Debye-Ang):
   XX=           -374.3144   YY=           -427.9883   ZZ=           -404.3293
   XY=             28.1746   XZ=             17.0091   YZ=            -11.2415

 Normal termination of Gaussian 16 at Thu Apr 28 17:46:06 2022.
