 Gaussian 16, Revision A.03,
 Gaussian 16:  ES64L-G16RevA.03 25-Dec-2016

 --------------------
 #p ZINDO=(nstates=5)
 --------------------

 ------------------------------
 step_1651_chromophore_24 ZINDO
 ------------------------------
 Symbolic Z-matrix:
 Charge =  0 Multiplicity = 1

                         Standard orientation:
 ---------------------------------------------------------------------
 Center     Atomic      Atomic             Coordinates (Angstroms)
 Number     Number       Type             X           Y           Z
 ---------------------------------------------------------------------
      1         12           0        5.370639    1.184283   -0.086894
      2          6           0        4.717221   -2.271386    0.029868
      3          6           0        1.936829    1.704153   -0.003679
      4          6           0        5.978995    4.379055   -0.078173
      5          6           0        8.751166    0.387051   -0.775833
      6          7           0        3.578015   -0.156024   -0.150953
      7          6           0        3.561628   -1.490143    0.083596
      8          6           0        2.069803   -1.996832    0.245600
      9          6           0        1.173345   -0.728003   -0.202116
     10          6           0        2.286321    0.339585   -0.039337
     11          6           0        0.529704   -0.705941   -1.648793
     12          6           0        1.818514   -2.514878    1.632966
     13          6           0        1.105676   -3.931138    1.701579
     14          6           0       -0.043905   -4.271231    0.717321
     15          8           0        0.171559   -5.029721   -0.248897
     16          8           0       -1.284456   -3.790702    1.030445
     17          7           0        4.136881    2.798685   -0.040734
     18          6           0        2.783566    2.831120    0.085340
     19          6           0        2.283611    4.155192    0.219948
     20          6           0        3.473141    5.001178    0.128292
     21          6           0        4.637997    4.116522    0.054028
     22          6           0        0.839002    4.470007    0.424919
     23          6           0        3.526035    6.552097    0.132688
     24          8           0        4.642216    7.134529    0.110268
     25          6           0        2.263161    7.323970   -0.055487
     26          7           0        7.085564    2.270549   -0.373159
     27          6           0        7.092401    3.591555   -0.164027
     28          6           0        8.541651    4.120493   -0.228265
     29          6           0        9.495426    2.859366   -0.263178
     30          6           0        8.403647    1.766428   -0.504168
     31          6           0        8.810373    5.121060   -1.344060
     32          6           0       10.203929    2.524599    1.032444
     33          6           0        9.499193    2.921634    2.390279
     34          7           0        6.573867   -0.501173   -0.331721
     35          6           0        7.882329   -0.664556   -0.679621
     36          6           0        8.259655   -2.098383   -0.664383
     37          6           0        7.020586   -2.726485   -0.309496
     38          6           0        6.012892   -1.738525   -0.236462
     39          6           0        9.626930   -2.669456   -0.894854
     40          6           0        6.475632   -3.992925   -0.177505
     41          8           0        6.931098   -5.132585   -0.259662
     42          6           0        4.949936   -3.714281   -0.007080
     43          6           0        4.227555   -4.411978   -1.078338
     44          8           0        4.452807   -4.357663   -2.282901
     45          8           0        3.415250   -5.314777   -0.507220
     46          6           0        2.841502   -6.436579   -1.268046
     47          6           0       -2.393372   -4.467066    0.388593
     48          6           0       -3.597009   -3.550403    0.252589
     49          6           0       -4.867787   -3.781701   -0.069313
     50          6           0       -5.359605   -5.143598   -0.549849
     51          6           0       -5.956508   -2.646458    0.006610
     52          6           0       -6.735893   -2.644110    1.333025
     53          6           0       -6.558470   -1.236286    2.118979
     54          6           0       -7.915719   -0.475802    2.357200
     55          6           0       -7.858365    0.277576    3.702002
     56          6           0       -8.252711    0.556851    1.246620
     57          6           0       -9.398617    0.020769    0.347094
     58          6           0      -10.792400    0.341040    0.977092
     59          6           0      -11.686794    1.274386    0.094964
     60          6           0      -12.028441    2.550732    0.850804
     61          6           0      -12.964649    0.521233   -0.477929
     62          6           0      -13.760272    1.210397   -1.574711
     63          6           0      -15.206091    1.539117   -1.124676
     64          6           0      -16.091192    2.386673   -1.999405
     65          6           0      -16.033756    3.844687   -1.658010
     66          6           0      -17.572548    1.886486   -1.868289
     67          1           0        0.854006    1.826249    0.056088
     68          1           0        6.272275    5.410326    0.128766
     69          1           0        9.814829    0.139432   -0.795800
     70          1           0        2.107011   -2.739657   -0.550537
     71          1           0        0.299889   -0.535941    0.421474
     72          1           0        0.918093   -1.493498   -2.294912
     73          1           0        0.963849    0.206005   -2.060037
     74          1           0       -0.554383   -0.625510   -1.722249
     75          1           0        1.219471   -1.900920    2.304173
     76          1           0        2.750744   -2.623170    2.187696
     77          1           0        0.579911   -4.000865    2.654549
     78          1           0        1.839314   -4.724230    1.558055
     79          1           0        0.465636    4.776817   -0.551979
     80          1           0        0.749575    5.293111    1.134204
     81          1           0        0.215930    3.653602    0.789550
     82          1           0        1.499067    6.903076   -0.708929
     83          1           0        2.602058    8.277202   -0.461318
     84          1           0        1.781212    7.478275    0.909307
     85          1           0        8.740433    4.708566    0.667183
     86          1           0       10.163869    2.850390   -1.123943
     87          1           0        9.297038    4.671857   -2.210335
     88          1           0        9.256794    6.031643   -0.945735
     89          1           0        7.950797    5.457757   -1.922760
     90          1           0       11.190919    2.988509    1.055117
     91          1           0       10.481548    1.474198    0.950329
     92          1           0        8.509552    3.378537    2.405605
     93          1           0       10.216588    3.650578    2.766592
     94          1           0        9.393547    2.048625    3.033949
     95          1           0       10.246361   -1.973517   -1.461801
     96          1           0        9.543080   -3.519371   -1.571681
     97          1           0       10.025167   -2.942453    0.082020
     98          1           0        4.622243   -4.029358    0.983303
     99          1           0        2.634995   -7.263767   -0.589349
    100          1           0        3.623797   -6.752267   -1.957554
    101          1           0        1.928750   -6.216543   -1.822989
    102          1           0       -2.614593   -5.418371    0.871978
    103          1           0       -2.068050   -4.729862   -0.617806
    104          1           0       -3.332874   -2.630335    0.774137
    105          1           0       -5.908309   -5.565105    0.291489
    106          1           0       -4.478753   -5.698920   -0.872140
    107          1           0       -5.854421   -4.931174   -1.497390
    108          1           0       -6.722255   -2.859578   -0.739503
    109          1           0       -5.370322   -1.770002   -0.269827
    110          1           0       -6.528561   -3.506870    1.965311
    111          1           0       -7.786039   -2.588860    1.045532
    112          1           0       -5.952828   -0.506968    1.581319
    113          1           0       -6.060049   -1.445448    3.065353
    114          1           0       -8.642811   -1.279875    2.477831
    115          1           0       -7.277223   -0.323002    4.401016
    116          1           0       -8.892037    0.433321    4.011935
    117          1           0       -7.328478    1.222111    3.579057
    118          1           0       -7.450967    0.781905    0.543520
    119          1           0       -8.633194    1.536763    1.533721
    120          1           0       -9.413231   -1.068337    0.385146
    121          1           0       -9.187783    0.129027   -0.716941
    122          1           0      -10.667733    0.578328    2.034039
    123          1           0      -11.343812   -0.599890    0.962223
    124          1           0      -11.216485    1.507540   -0.859531
    125          1           0      -11.515049    2.688783    1.802878
    126          1           0      -13.102813    2.532764    1.029283
    127          1           0      -11.786308    3.454897    0.291679
    128          1           0      -13.562162    0.332532    0.413541
    129          1           0      -12.637238   -0.415004   -0.931132
    130          1           0      -13.869300    0.578586   -2.456552
    131          1           0      -13.231643    2.099328   -1.916947
    132          1           0      -15.079598    2.006175   -0.148149
    133          1           0      -15.616581    0.532519   -1.046326
    134          1           0      -15.864781    2.275046   -3.060153
    135          1           0      -15.155639    4.270037   -2.143692
    136          1           0      -16.038754    4.032095   -0.584060
    137          1           0      -16.949853    4.293691   -2.041675
    138          1           0      -17.694405    0.918170   -1.382583
    139          1           0      -17.980024    1.832965   -2.878137
    140          1           0      -18.116247    2.647829   -1.308202
 ---------------------------------------------------------------------

 SCF Done:  E(RZINDO/S) =  -474.250013255     A.U. after   20 cycles

 Excitation energies and oscillator strengths:

 Excited State   1:      Singlet-A      1.2313 eV 1006.96 nm  f=0.5983  <S**2>=0.000
     175 ->178        -0.19397
     176 ->177         0.66177
 This state for optimization and/or second-order correction.
 Total Energy, E(CIS/TDA) =  -474.204765054
 Copying the excited state density for this state as the 1-particle RhoCI density.

 Excited State   2:      Singlet-A      1.8986 eV  653.03 nm  f=0.0389  <S**2>=0.000
     175 ->177         0.54464
     176 ->178         0.42698

 Excited State   3:      Singlet-A      2.8755 eV  431.18 nm  f=0.0388  <S**2>=0.000
     169 ->179        -0.11254
     170 ->177         0.33040
     170 ->179        -0.36285
     170 ->180         0.19244
     170 ->186        -0.14629
     171 ->177        -0.17178
     171 ->179         0.10537
     176 ->178        -0.12052
     176 ->179        -0.14833

 Excited State   4:      Singlet-A      2.9819 eV  415.79 nm  f=1.0636  <S**2>=0.000
     175 ->177        -0.37607
     176 ->178         0.50128
     176 ->179        -0.10430
     176 ->180        -0.12985

 Excited State   5:      Singlet-A      2.9998 eV  413.30 nm  f=0.0311  <S**2>=0.000
     169 ->177         0.25388
     169 ->178        -0.16672
     169 ->179         0.27455
     169 ->180         0.41075
     169 ->186         0.18778
     169 ->187         0.16990
     170 ->180        -0.10205
     176 ->179         0.14590

 The electronic state is 1-A.
 Alpha  occ. eigenvalues --   -1.84796  -1.80464  -1.78852  -1.73266  -1.72682
 Alpha  occ. eigenvalues --   -1.69325  -1.65189  -1.61557  -1.59614  -1.55621
 Alpha  occ. eigenvalues --   -1.55048  -1.51566  -1.48195  -1.48081  -1.46598
 Alpha  occ. eigenvalues --   -1.43466  -1.42359  -1.39753  -1.39449  -1.38860
 Alpha  occ. eigenvalues --   -1.36419  -1.34032  -1.32684  -1.30681  -1.29266
 Alpha  occ. eigenvalues --   -1.28874  -1.25399  -1.21914  -1.20484  -1.19123
 Alpha  occ. eigenvalues --   -1.17283  -1.15141  -1.14791  -1.14564  -1.13948
 Alpha  occ. eigenvalues --   -1.12861  -1.10020  -1.09680  -1.04811  -1.03433
 Alpha  occ. eigenvalues --   -1.02755  -1.00970  -0.99157  -0.98658  -0.97179
 Alpha  occ. eigenvalues --   -0.96084  -0.93529  -0.93225  -0.92367  -0.92157
 Alpha  occ. eigenvalues --   -0.91083  -0.90727  -0.90071  -0.87375  -0.85780
 Alpha  occ. eigenvalues --   -0.85495  -0.85251  -0.83130  -0.81514  -0.80581
 Alpha  occ. eigenvalues --   -0.79261  -0.78292  -0.76948  -0.76338  -0.76002
 Alpha  occ. eigenvalues --   -0.75611  -0.75465  -0.75112  -0.74873  -0.73961
 Alpha  occ. eigenvalues --   -0.72927  -0.72369  -0.72099  -0.71496  -0.70994
 Alpha  occ. eigenvalues --   -0.70358  -0.69499  -0.68697  -0.68496  -0.67799
 Alpha  occ. eigenvalues --   -0.67547  -0.66816  -0.66410  -0.65777  -0.65566
 Alpha  occ. eigenvalues --   -0.65365  -0.65107  -0.64527  -0.64206  -0.64041
 Alpha  occ. eigenvalues --   -0.63439  -0.63247  -0.62756  -0.61974  -0.61753
 Alpha  occ. eigenvalues --   -0.61279  -0.61118  -0.60859  -0.60455  -0.60104
 Alpha  occ. eigenvalues --   -0.59732  -0.59434  -0.59257  -0.59031  -0.58446
 Alpha  occ. eigenvalues --   -0.57693  -0.57599  -0.57103  -0.56742  -0.56190
 Alpha  occ. eigenvalues --   -0.55968  -0.55505  -0.55099  -0.54791  -0.54586
 Alpha  occ. eigenvalues --   -0.54270  -0.53827  -0.53633  -0.53319  -0.52603
 Alpha  occ. eigenvalues --   -0.52348  -0.52161  -0.51647  -0.51544  -0.51393
 Alpha  occ. eigenvalues --   -0.51261  -0.51117  -0.50410  -0.50229  -0.50021
 Alpha  occ. eigenvalues --   -0.49866  -0.49383  -0.49122  -0.49104  -0.48716
 Alpha  occ. eigenvalues --   -0.48469  -0.48162  -0.47899  -0.47813  -0.47712
 Alpha  occ. eigenvalues --   -0.47436  -0.46870  -0.46591  -0.46375  -0.46314
 Alpha  occ. eigenvalues --   -0.46137  -0.45863  -0.45812  -0.45258  -0.45111
 Alpha  occ. eigenvalues --   -0.44650  -0.44548  -0.44141  -0.43637  -0.43415
 Alpha  occ. eigenvalues --   -0.43202  -0.43131  -0.42733  -0.42204  -0.42133
 Alpha  occ. eigenvalues --   -0.41447  -0.41033  -0.40594  -0.38925  -0.38508
 Alpha  occ. eigenvalues --   -0.37644  -0.36913  -0.35123  -0.35000  -0.34737
 Alpha  occ. eigenvalues --   -0.32911  -0.32621  -0.32236  -0.31645  -0.26465
 Alpha  occ. eigenvalues --   -0.21576
 Alpha virt. eigenvalues --   -0.08450  -0.02106  -0.00597   0.01284   0.01360
 Alpha virt. eigenvalues --    0.02730   0.03097   0.03367   0.04858   0.04943
 Alpha virt. eigenvalues --    0.06208   0.07333   0.07502   0.07712   0.07980

 Mulliken charges:
               1
     1  Mg   0.422128
     2  C   -0.056179
     3  C   -0.084738
     4  C   -0.038676
     5  C   -0.060466
     6  N   -0.290628
     7  C    0.141487
     8  C    0.010809
     9  C   -0.002842
    10  C    0.108898
    11  C   -0.056106
    12  C   -0.007665
    13  C   -0.000618
    14  C    0.460794
    15  O   -0.530613
    16  O   -0.263260
    17  N   -0.331242
    18  C    0.110713
    19  C   -0.011055
    20  C   -0.058911
    21  C    0.120754
    22  C   -0.036069
    23  C    0.323130
    24  O   -0.540145
    25  C   -0.028242
    26  N   -0.259402
    27  C    0.130117
    28  C    0.008836
    29  C    0.007803
    30  C    0.115245
    31  C   -0.057602
    32  C   -0.022120
    33  C   -0.058374
    34  N   -0.330785
    35  C    0.116908
    36  C    0.050588
    37  C   -0.051497
    38  C    0.126502
    39  C   -0.029823
    40  C    0.337365
    41  O   -0.529994
    42  C    0.066157
    43  C    0.500664
    44  O   -0.528824
    45  O   -0.274770
    46  C    0.076865
    47  C    0.106784
    48  C   -0.095127
    49  C   -0.012676
    50  C   -0.050761
    51  C   -0.024307
    52  C   -0.035948
    53  C   -0.046627
    54  C   -0.008947
    55  C   -0.060617
    56  C   -0.031841
    57  C   -0.052415
    58  C   -0.033786
    59  C   -0.012804
    60  C   -0.055223
    61  C   -0.035411
    62  C   -0.036344
    63  C   -0.032839
    64  C   -0.006248
    65  C   -0.050103
    66  C   -0.065260
    67  H    0.023551
    68  H    0.034558
    69  H    0.031169
    70  H    0.048979
    71  H    0.029188
    72  H    0.029675
    73  H    0.019665
    74  H    0.030235
    75  H    0.027365
    76  H    0.021593
    77  H    0.031751
    78  H    0.049374
    79  H    0.031833
    80  H    0.022444
    81  H    0.028019
    82  H    0.035009
    83  H    0.036765
    84  H    0.040556
    85  H    0.028059
    86  H    0.036824
    87  H    0.019615
    88  H    0.026803
    89  H    0.020666
    90  H    0.010801
    91  H    0.018941
    92  H    0.032755
    93  H    0.020828
    94  H    0.019921
    95  H    0.024979
    96  H    0.040857
    97  H    0.046706
    98  H    0.043051
    99  H    0.033103
   100  H    0.043518
   101  H    0.054091
   102  H    0.046590
   103  H    0.052504
   104  H    0.019321
   105  H    0.045862
   106  H    0.022297
   107  H    0.030856
   108  H    0.019009
   109  H    0.033771
   110  H    0.034890
   111  H    0.021099
   112  H    0.022368
   113  H    0.017921
   114  H    0.025837
   115  H    0.016088
   116  H    0.020109
   117  H    0.019343
   118  H    0.015715
   119  H    0.023260
   120  H    0.001912
   121  H    0.028579
   122  H    0.031688
   123  H    0.007513
   124  H    0.019896
   125  H    0.018268
   126  H    0.018618
   127  H    0.014424
   128  H    0.019063
   129  H    0.013856
   130  H    0.013821
   131  H    0.015809
   132  H    0.020621
   133  H    0.015383
   134  H    0.019453
   135  H    0.016107
   136  H    0.021641
   137  H    0.013640
   138  H    0.021590
   139  H    0.015218
   140  H    0.018194
 Sum of Mulliken charges =  -0.00000

 Dipole moment (field-independent basis, Debye):
    X=             -5.2435    Y=              1.5571    Z=              5.6888  Tot=              7.8919
 N-N= 4.284030420830D+03 E-N= 0.000000000000D+00  KE=-9.242714406221D+03
 Leave Link  601 at Thu Apr 28 18:00:20 2022, MaxMem=  6710886400 cpu:               0.8 elap:               0.1
 (Enter /sw/apps/gaussian-16.0/g16/l9999.exe)
 1\1\GINC-BP1-COMPUTE137\SP\RZINDO CIS\STO-3G\C55H74Mg1N4O6\OF15641\28-
 Apr-2022\0\\#p ZINDO=(nstates=5)\\step_1651_chromophore_24 ZINDO\\0,1\
 Mg,0,-0.285,43.855,24.361\C,0,1.87,43.456,27.114\C,0,-2.94,43.246,26.5
 17\C,0,-2.282,44.338,21.84\C,0,2.582,43.835,22.283\N,0,-0.455,43.26,26
 .513\C,0,0.52,43.341,27.45\C,0,-0.092,43.12,28.894\C,0,-1.605,42.627,2
 8.608\C,0,-1.684,43.141,27.147\C,0,-1.952,41.086,28.72\C,0,0.042,44.35
 6,29.737\C,0,0.631,44.116,31.191\C,0,0.193,42.875,32.012\O,0,0.966,41.

 Normal termination of Gaussian 16 at Thu Apr 28 18:00:21 2022.
