 Gaussian 16, Revision A.03,
 Gaussian 16:  ES64L-G16RevA.03 25-Dec-2016

 ------------------------------
 #p blyp/Def2SVP td=(nstates=5)
 ------------------------------

 --------------------------------------------------
 step_251_chromophore_24 TDDFT with blyp functional
 --------------------------------------------------
 Symbolic Z-matrix:
 Charge =  0 Multiplicity = 1

                         Standard orientation:
 ---------------------------------------------------------------------
 Center     Atomic      Atomic             Coordinates (Angstroms)
 Number     Number       Type             X           Y           Z
 ---------------------------------------------------------------------
      1         12           0        5.088948    0.981235    0.239321
      2          6           0        3.929291   -2.284992    0.478954
      3          6           0        1.879830    1.945063   -0.499424
      4          6           0        6.265013    4.187743   -0.260755
      5          6           0        8.388416   -0.126333    0.432658
      6          7           0        3.131516   -0.057408    0.117270
      7          6           0        2.862704   -1.352567    0.355041
      8          6           0        1.358051   -1.708325    0.387937
      9          6           0        0.718896   -0.365875   -0.171685
     10          6           0        1.993504    0.604419   -0.243709
     11          6           0        0.024996   -0.664102   -1.548468
     12          6           0        0.984582   -2.042224    1.922630
     13          6           0        0.291151   -3.410931    2.187949
     14          6           0       -0.400695   -4.034175    0.921987
     15          8           0        0.052085   -4.954337    0.214688
     16          8           0       -1.597442   -3.392232    0.578666
     17          7           0        4.258197    2.813304   -0.368978
     18          6           0        2.872159    3.007011   -0.542403
     19          6           0        2.614740    4.425288   -0.673364
     20          6           0        3.852182    5.081240   -0.659843
     21          6           0        4.885701    4.027959   -0.340455
     22          6           0        1.235893    4.947560   -1.101370
     23          6           0        4.136194    6.591509   -0.875064
     24          8           0        5.263233    7.120206   -0.845574
     25          6           0        2.936507    7.535289   -1.066536
     26          7           0        7.072936    1.839674    0.034737
     27          6           0        7.249423    3.248997   -0.114549
     28          6           0        8.739709    3.582497   -0.335096
     29          6           0        9.419706    2.227481    0.175311
     30          6           0        8.214670    1.254716    0.264902
     31          6           0        8.959890    3.986904   -1.783443
     32          6           0       10.091693    2.414872    1.600572
     33          6           0        9.377725    2.996615    2.868016
     34          7           0        6.011456   -0.798704    0.338711
     35          6           0        7.368535   -1.130632    0.396073
     36          6           0        7.496798   -2.547111    0.511274
     37          6           0        6.205777   -3.037097    0.591553
     38          6           0        5.312557   -1.958187    0.378355
     39          6           0        8.774659   -3.360737    0.490069
     40          6           0        5.450141   -4.216212    0.747535
     41          8           0        5.859055   -5.332707    0.788955
     42          6           0        3.938101   -3.780000    0.560711
     43          6           0        3.475741   -4.424015   -0.717042
     44          8           0        3.307886   -3.823222   -1.757699
     45          8           0        3.336789   -5.733465   -0.478187
     46          6           0        3.338966   -6.527532   -1.682379
     47          6           0       -2.321234   -3.862046   -0.602091
     48          6           0       -3.736548   -3.501822   -0.705821
     49          6           0       -4.822226   -4.131142   -0.275084
     50          6           0       -4.917129   -5.317667    0.663621
     51          6           0       -6.207078   -3.568360   -0.670137
     52          6           0       -6.625765   -2.304275   -0.036783
     53          6           0       -6.838193   -1.128532   -0.970136
     54          6           0       -8.162921   -0.337932   -0.719256
     55          6           0       -7.983104    0.587629    0.439354
     56          6           0       -8.684367    0.359303   -2.003693
     57          6           0      -10.154209    0.027892   -2.328503
     58          6           0      -11.085257    1.191743   -2.028478
     59          6           0      -12.561577    0.800062   -1.532328
     60          6           0      -13.601022    0.846517   -2.653167
     61          6           0      -12.969689    1.624109   -0.288351
     62          6           0      -11.911385    1.629530    0.900973
     63          6           0      -12.521373    1.744453    2.305505
     64          6           0      -13.039775    3.203013    2.523077
     65          6           0      -12.246574    3.913401    3.667783
     66          6           0      -14.531404    3.324624    2.795041
     67          1           0        0.850815    2.274929   -0.655279
     68          1           0        6.629199    5.138842   -0.653063
     69          1           0        9.417047   -0.490840    0.483209
     70          1           0        1.074947   -2.579451   -0.202593
     71          1           0       -0.000929    0.111182    0.493821
     72          1           0        0.203384    0.078267   -2.326755
     73          1           0       -1.011167   -0.666867   -1.211338
     74          1           0        0.282412   -1.689484   -1.812782
     75          1           0        0.434398   -1.185595    2.311405
     76          1           0        1.922209   -2.031374    2.478903
     77          1           0       -0.434268   -3.128361    2.950082
     78          1           0        0.938868   -4.182777    2.602607
     79          1           0        1.386430    5.540970   -2.003558
     80          1           0        0.861613    5.638599   -0.344873
     81          1           0        0.553755    4.111731   -1.253751
     82          1           0        2.544421    7.345720   -2.066609
     83          1           0        3.358824    8.539299   -1.104404
     84          1           0        2.302566    7.503154   -0.180766
     85          1           0        8.959885    4.353956    0.403364
     86          1           0       10.248184    1.960607   -0.479820
     87          1           0        8.080531    4.442010   -2.239486
     88          1           0        9.241230    3.122375   -2.384291
     89          1           0        9.726910    4.757581   -1.857026
     90          1           0       11.019722    2.968130    1.456115
     91          1           0       10.290818    1.386354    1.901679
     92          1           0        9.495812    4.080246    2.858027
     93          1           0        9.903610    2.561720    3.718771
     94          1           0        8.345948    2.681043    3.026046
     95          1           0        9.450025   -3.089962    1.301850
     96          1           0        9.232294   -3.097444   -0.463310
     97          1           0        8.660077   -4.426646    0.692005
     98          1           0        3.222225   -4.088029    1.322986
     99          1           0        3.750919   -7.527905   -1.551615
    100          1           0        3.685144   -6.124065   -2.633839
    101          1           0        2.339214   -6.759300   -2.050278
    102          1           0       -2.233760   -4.906465   -0.902769
    103          1           0       -1.882148   -3.345845   -1.455652
    104          1           0       -3.901942   -2.838509   -1.554564
    105          1           0       -5.594102   -4.982875    1.449983
    106          1           0       -3.960933   -5.669106    1.052804
    107          1           0       -5.394040   -6.112272    0.090098
    108          1           0       -6.944396   -4.369700   -0.618085
    109          1           0       -6.375487   -3.409532   -1.735199
    110          1           0       -5.868267   -1.965944    0.670587
    111          1           0       -7.572805   -2.548302    0.444607
    112          1           0       -6.670443   -1.337807   -2.027174
    113          1           0       -5.995060   -0.451595   -0.828484
    114          1           0       -8.845470   -1.132188   -0.418092
    115          1           0       -8.810592    0.355190    1.109575
    116          1           0       -8.054177    1.636197    0.150072
    117          1           0       -7.068484    0.469742    1.021270
    118          1           0       -8.105415   -0.008891   -2.850397
    119          1           0       -8.362526    1.400930   -1.973743
    120          1           0      -10.355098   -0.829167   -1.685866
    121          1           0      -10.213912   -0.269318   -3.376086
    122          1           0      -11.114269    1.806502   -2.928421
    123          1           0      -10.627490    1.904596   -1.343617
    124          1           0      -12.443767   -0.185287   -1.082310
    125          1           0      -14.284989    1.685197   -2.517581
    126          1           0      -14.208753   -0.035312   -2.453881
    127          1           0      -13.260686    0.883479   -3.688896
    128          1           0      -13.980142    1.414848    0.060786
    129          1           0      -12.958168    2.586850   -0.799322
    130          1           0      -11.221704    2.461258    0.759853
    131          1           0      -11.334290    0.709990    0.803896
    132          1           0      -11.822182    1.459139    3.091047
    133          1           0      -13.421655    1.151139    2.467814
    134          1           0      -12.993973    3.741713    1.575776
    135          1           0      -12.826406    4.014119    4.585993
    136          1           0      -12.198697    4.953514    3.344658
    137          1           0      -11.330928    3.362578    3.882853
    138          1           0      -14.759961    4.094274    3.532068
    139          1           0      -15.081247    2.467229    3.182347
    140          1           0      -14.981896    3.716499    1.882998
 ---------------------------------------------------------------------

 SCF Done:  E(RB-LYP) =  -3007.36229043     A.U. after   20 cycles

 Excitation energies and oscillator strengths:

 Excited State   1:      Singlet-A      1.8083 eV  685.65 nm  f=0.2847  <S**2>=0.000
     245 -> 248       -0.18760
     246 -> 247        0.68289
     246 <- 247       -0.14641
 This state for optimization and/or second-order correction.
 Total Energy, E(TD-HF/TD-DFT) =  -3007.29583797
 Copying the excited state density for this state as the 1-particle RhoCI density.

 Excited State   2:      Singlet-A      1.9344 eV  640.94 nm  f=0.0114  <S**2>=0.000
     244 -> 247        0.66916
     245 -> 247        0.19305

 Excited State   3:      Singlet-A      1.9698 eV  629.44 nm  f=0.0714  <S**2>=0.000
     243 -> 247       -0.32829
     244 -> 247       -0.22345
     245 -> 247        0.54695
     246 -> 248        0.15495

 Excited State   4:      Singlet-A      2.1188 eV  585.17 nm  f=0.0266  <S**2>=0.000
     243 -> 247        0.61113
     245 -> 247        0.30089
     246 -> 248        0.15651

 Excited State   5:      Singlet-A      2.5928 eV  478.18 nm  f=0.0016  <S**2>=0.000
     242 -> 247        0.68513

 The electronic state is 1-A.
 Alpha  occ. eigenvalues --  -46.26440 -18.82475 -18.82144 -18.77650 -18.76080
 Alpha  occ. eigenvalues --  -18.75592 -18.75511 -14.03245 -14.02468 -14.01063
 Alpha  occ. eigenvalues --  -14.00386 -10.05254 -10.03094  -9.99938  -9.98988
 Alpha  occ. eigenvalues --   -9.97435  -9.96778  -9.96379  -9.96037  -9.95957
 Alpha  occ. eigenvalues --   -9.95592  -9.95455  -9.95438  -9.95367  -9.95024
 Alpha  occ. eigenvalues --   -9.94459  -9.94353  -9.94264  -9.94086  -9.93717
 Alpha  occ. eigenvalues --   -9.93519  -9.93362  -9.93180  -9.93152  -9.93122
 Alpha  occ. eigenvalues --   -9.93076  -9.92876  -9.92876  -9.92864  -9.92635
 Alpha  occ. eigenvalues --   -9.92572  -9.92417  -9.92118  -9.92105  -9.92071
 Alpha  occ. eigenvalues --   -9.91905  -9.91753  -9.91733  -9.91732  -9.91715
 Alpha  occ. eigenvalues --   -9.91645  -9.91633  -9.91386  -9.91344  -9.91303
 Alpha  occ. eigenvalues --   -9.91297  -9.91214  -9.91136  -9.91055  -9.90960
 Alpha  occ. eigenvalues --   -9.90950  -9.90823  -9.90798  -9.90674  -9.90411
 Alpha  occ. eigenvalues --   -9.90109  -2.91136  -1.71561  -1.71005  -1.70858
 Alpha  occ. eigenvalues --   -0.98548  -0.96991  -0.92961  -0.90133  -0.90082
 Alpha  occ. eigenvalues --   -0.89244  -0.86204  -0.85517  -0.84903  -0.83792
 Alpha  occ. eigenvalues --   -0.75192  -0.74515  -0.73133  -0.72484  -0.72218
 Alpha  occ. eigenvalues --   -0.71790  -0.71041  -0.71001  -0.70296  -0.69859
 Alpha  occ. eigenvalues --   -0.69460  -0.69334  -0.68401  -0.67143  -0.66943
 Alpha  occ. eigenvalues --   -0.66485  -0.65655  -0.65037  -0.64881  -0.64790
 Alpha  occ. eigenvalues --   -0.63933  -0.62226  -0.61891  -0.61407  -0.60548
 Alpha  occ. eigenvalues --   -0.60189  -0.60017  -0.59814  -0.59712  -0.59217
 Alpha  occ. eigenvalues --   -0.58544  -0.57705  -0.56210  -0.55683  -0.54156
 Alpha  occ. eigenvalues --   -0.53689  -0.53607  -0.52828  -0.52361  -0.51598
 Alpha  occ. eigenvalues --   -0.51238  -0.50716  -0.50359  -0.50300  -0.50142
 Alpha  occ. eigenvalues --   -0.49829  -0.49578  -0.48412  -0.48219  -0.46067
 Alpha  occ. eigenvalues --   -0.45877  -0.45703  -0.45534  -0.44702  -0.44128
 Alpha  occ. eigenvalues --   -0.43853  -0.43623  -0.43119  -0.42437  -0.42304
 Alpha  occ. eigenvalues --   -0.41775  -0.41487  -0.41366  -0.41183  -0.41014
 Alpha  occ. eigenvalues --   -0.40686  -0.40337  -0.39977  -0.39905  -0.39733
 Alpha  occ. eigenvalues --   -0.39635  -0.39487  -0.39260  -0.39152  -0.38975
 Alpha  occ. eigenvalues --   -0.38820  -0.38618  -0.38400  -0.38303  -0.38122
 Alpha  occ. eigenvalues --   -0.37934  -0.37522  -0.37449  -0.37117  -0.37019
 Alpha  occ. eigenvalues --   -0.36892  -0.36830  -0.36574  -0.36556  -0.36181
 Alpha  occ. eigenvalues --   -0.36103  -0.36001  -0.35887  -0.35698  -0.35534
 Alpha  occ. eigenvalues --   -0.35318  -0.35183  -0.34932  -0.34749  -0.34582
 Alpha  occ. eigenvalues --   -0.34379  -0.34267  -0.34236  -0.34100  -0.33859
 Alpha  occ. eigenvalues --   -0.33741  -0.33556  -0.33137  -0.33001  -0.32900
 Alpha  occ. eigenvalues --   -0.32878  -0.32755  -0.32630  -0.32535  -0.32163
 Alpha  occ. eigenvalues --   -0.31914  -0.31790  -0.31735  -0.31534  -0.31463
 Alpha  occ. eigenvalues --   -0.31193  -0.31032  -0.30921  -0.30676  -0.30589
 Alpha  occ. eigenvalues --   -0.30470  -0.30249  -0.30014  -0.29930  -0.29764
 Alpha  occ. eigenvalues --   -0.29682  -0.29577  -0.29162  -0.29056  -0.28744
 Alpha  occ. eigenvalues --   -0.28456  -0.28326  -0.27904  -0.27878  -0.27547
 Alpha  occ. eigenvalues --   -0.27173  -0.26743  -0.26473  -0.26378  -0.26035
 Alpha  occ. eigenvalues --   -0.25972  -0.25935  -0.25884  -0.25387  -0.25384
 Alpha  occ. eigenvalues --   -0.24915  -0.24443  -0.24252  -0.23926  -0.23329
 Alpha  occ. eigenvalues --   -0.22939  -0.22649  -0.22027  -0.21520  -0.20988
 Alpha  occ. eigenvalues --   -0.20717  -0.20295  -0.18698  -0.18311  -0.16841
 Alpha  occ. eigenvalues --   -0.15561
 Alpha virt. eigenvalues --   -0.11262  -0.06571  -0.05748  -0.04305  -0.04223
 Alpha virt. eigenvalues --   -0.03108  -0.02275  -0.00950  -0.00772   0.00900
 Alpha virt. eigenvalues --    0.01939   0.02185   0.02239   0.02514   0.02893

 Mulliken charges:
               1
     1  Mg   0.693770
     2  C    0.011124
     3  C   -0.042423
     4  C   -0.040179
     5  C   -0.096287
     6  N   -0.191480
     7  C   -0.048241
     8  C   -0.043486
     9  C   -0.025033
    10  C    0.036721
    11  C    0.115907
    12  C    0.088921
    13  C    0.176931
    14  C    0.082215
    15  O   -0.208292
    16  O   -0.285740
    17  N   -0.299988
    18  C    0.113402
    19  C   -0.156381
    20  C    0.025180
    21  C    0.088520
    22  C    0.195174
    23  C   -0.075663
    24  O   -0.178676
    25  C    0.132790
    26  N   -0.199143
    27  C   -0.012259
    28  C    0.043148
    29  C    0.035447
    30  C    0.057768
    31  C    0.153240
    32  C    0.033836
    33  C    0.058653
    34  N   -0.305592
    35  C    0.123154
    36  C   -0.177563
    37  C    0.117698
    38  C    0.062808
    39  C    0.177098
    40  C   -0.068581
    41  O   -0.089659
    42  C    0.044820
    43  C    0.101425
    44  O   -0.177450
    45  O   -0.210835
    46  C    0.230901
    47  C    0.339372
    48  C   -0.119382
    49  C   -0.137619
    50  C    0.163118
    51  C    0.107793
    52  C    0.125731
    53  C    0.058510
    54  C   -0.094295
    55  C    0.136549
    56  C    0.107795
    57  C    0.109710
    58  C    0.079167
    59  C   -0.064933
    60  C    0.136253
    61  C    0.049497
    62  C    0.051050
    63  C    0.144454
    64  C   -0.122649
    65  C    0.115190
    66  C    0.093839
    67  H   -0.071370
    68  H   -0.029804
    69  H   -0.059817
    70  H    0.029676
    71  H   -0.017639
    72  H    0.002990
    73  H   -0.006381
    74  H    0.016603
    75  H   -0.020926
    76  H   -0.008679
    77  H   -0.008972
    78  H    0.014758
    79  H   -0.000219
    80  H   -0.008915
    81  H   -0.008030
    82  H    0.013274
    83  H   -0.018833
    84  H    0.015666
    85  H   -0.027280
    86  H   -0.035402
    87  H   -0.001072
    88  H   -0.011158
    89  H   -0.010823
    90  H   -0.015756
    91  H   -0.028900
    92  H    0.006142
    93  H   -0.009966
    94  H    0.000460
    95  H   -0.012524
    96  H    0.008331
    97  H    0.002384
    98  H   -0.016704
    99  H    0.009352
   100  H    0.005173
   101  H   -0.011430
   102  H    0.001338
   103  H   -0.034688
   104  H   -0.033420
   105  H    0.003555
   106  H   -0.000715
   107  H    0.004458
   108  H   -0.055947
   109  H   -0.043200
   110  H   -0.017798
   111  H   -0.029797
   112  H   -0.042798
   113  H   -0.046957
   114  H   -0.034153
   115  H   -0.019420
   116  H   -0.018329
   117  H   -0.019750
   118  H   -0.055864
   119  H   -0.038833
   120  H   -0.034844
   121  H   -0.027721
   122  H   -0.043802
   123  H   -0.038023
   124  H   -0.038831
   125  H   -0.025199
   126  H   -0.019101
   127  H   -0.006913
   128  H   -0.023938
   129  H   -0.032260
   130  H   -0.009814
   131  H   -0.022855
   132  H   -0.038788
   133  H   -0.042583
   134  H   -0.025280
   135  H   -0.020251
   136  H   -0.017642
   137  H   -0.008855
   138  H   -0.036017
   139  H   -0.013908
   140  H   -0.022117
 Sum of Mulliken charges =  -0.00000

 Dipole moment (field-independent basis, Debye):
    X=             -4.4297    Y=              0.5033    Z=              1.3150  Tot=              4.6481
 Quadrupole moment (field-independent basis, Debye-Ang):
   XX=           -380.6738   YY=           -434.3544   ZZ=           -399.0927
   XY=              8.6023   XZ=              8.2272   YZ=              2.8763

 Normal termination of Gaussian 16 at Wed May  4 18:53:41 2022.
