 Gaussian 16, Revision A.03,
 Gaussian 16:  ES64L-G16RevA.03 25-Dec-2016

 -----------------------------------
 #p cam-b3lyp/Def2SVP td=(nstates=5)
 -----------------------------------

 -------------------------------------------------------
 step_251_chromophore_24 TDDFT with cam-b3lyp functional
 -------------------------------------------------------
 Symbolic Z-matrix:
 Charge =  0 Multiplicity = 1

                         Standard orientation:
 ---------------------------------------------------------------------
 Center     Atomic      Atomic             Coordinates (Angstroms)
 Number     Number       Type             X           Y           Z
 ---------------------------------------------------------------------
      1         12           0        5.088948    0.981235    0.239321
      2          6           0        3.929291   -2.284992    0.478954
      3          6           0        1.879830    1.945063   -0.499424
      4          6           0        6.265013    4.187743   -0.260755
      5          6           0        8.388416   -0.126333    0.432658
      6          7           0        3.131516   -0.057408    0.117270
      7          6           0        2.862704   -1.352567    0.355041
      8          6           0        1.358051   -1.708325    0.387937
      9          6           0        0.718896   -0.365875   -0.171685
     10          6           0        1.993504    0.604419   -0.243709
     11          6           0        0.024996   -0.664102   -1.548468
     12          6           0        0.984582   -2.042224    1.922630
     13          6           0        0.291151   -3.410931    2.187949
     14          6           0       -0.400695   -4.034175    0.921987
     15          8           0        0.052085   -4.954337    0.214688
     16          8           0       -1.597442   -3.392232    0.578666
     17          7           0        4.258197    2.813304   -0.368978
     18          6           0        2.872159    3.007011   -0.542403
     19          6           0        2.614740    4.425288   -0.673364
     20          6           0        3.852182    5.081240   -0.659843
     21          6           0        4.885701    4.027959   -0.340455
     22          6           0        1.235893    4.947560   -1.101370
     23          6           0        4.136194    6.591509   -0.875064
     24          8           0        5.263233    7.120206   -0.845574
     25          6           0        2.936507    7.535289   -1.066536
     26          7           0        7.072936    1.839674    0.034737
     27          6           0        7.249423    3.248997   -0.114549
     28          6           0        8.739709    3.582497   -0.335096
     29          6           0        9.419706    2.227481    0.175311
     30          6           0        8.214670    1.254716    0.264902
     31          6           0        8.959890    3.986904   -1.783443
     32          6           0       10.091693    2.414872    1.600572
     33          6           0        9.377725    2.996615    2.868016
     34          7           0        6.011456   -0.798704    0.338711
     35          6           0        7.368535   -1.130632    0.396073
     36          6           0        7.496798   -2.547111    0.511274
     37          6           0        6.205777   -3.037097    0.591553
     38          6           0        5.312557   -1.958187    0.378355
     39          6           0        8.774659   -3.360737    0.490069
     40          6           0        5.450141   -4.216212    0.747535
     41          8           0        5.859055   -5.332707    0.788955
     42          6           0        3.938101   -3.780000    0.560711
     43          6           0        3.475741   -4.424015   -0.717042
     44          8           0        3.307886   -3.823222   -1.757699
     45          8           0        3.336789   -5.733465   -0.478187
     46          6           0        3.338966   -6.527532   -1.682379
     47          6           0       -2.321234   -3.862046   -0.602091
     48          6           0       -3.736548   -3.501822   -0.705821
     49          6           0       -4.822226   -4.131142   -0.275084
     50          6           0       -4.917129   -5.317667    0.663621
     51          6           0       -6.207078   -3.568360   -0.670137
     52          6           0       -6.625765   -2.304275   -0.036783
     53          6           0       -6.838193   -1.128532   -0.970136
     54          6           0       -8.162921   -0.337932   -0.719256
     55          6           0       -7.983104    0.587629    0.439354
     56          6           0       -8.684367    0.359303   -2.003693
     57          6           0      -10.154209    0.027892   -2.328503
     58          6           0      -11.085257    1.191743   -2.028478
     59          6           0      -12.561577    0.800062   -1.532328
     60          6           0      -13.601022    0.846517   -2.653167
     61          6           0      -12.969689    1.624109   -0.288351
     62          6           0      -11.911385    1.629530    0.900973
     63          6           0      -12.521373    1.744453    2.305505
     64          6           0      -13.039775    3.203013    2.523077
     65          6           0      -12.246574    3.913401    3.667783
     66          6           0      -14.531404    3.324624    2.795041
     67          1           0        0.850815    2.274929   -0.655279
     68          1           0        6.629199    5.138842   -0.653063
     69          1           0        9.417047   -0.490840    0.483209
     70          1           0        1.074947   -2.579451   -0.202593
     71          1           0       -0.000929    0.111182    0.493821
     72          1           0        0.203384    0.078267   -2.326755
     73          1           0       -1.011167   -0.666867   -1.211338
     74          1           0        0.282412   -1.689484   -1.812782
     75          1           0        0.434398   -1.185595    2.311405
     76          1           0        1.922209   -2.031374    2.478903
     77          1           0       -0.434268   -3.128361    2.950082
     78          1           0        0.938868   -4.182777    2.602607
     79          1           0        1.386430    5.540970   -2.003558
     80          1           0        0.861613    5.638599   -0.344873
     81          1           0        0.553755    4.111731   -1.253751
     82          1           0        2.544421    7.345720   -2.066609
     83          1           0        3.358824    8.539299   -1.104404
     84          1           0        2.302566    7.503154   -0.180766
     85          1           0        8.959885    4.353956    0.403364
     86          1           0       10.248184    1.960607   -0.479820
     87          1           0        8.080531    4.442010   -2.239486
     88          1           0        9.241230    3.122375   -2.384291
     89          1           0        9.726910    4.757581   -1.857026
     90          1           0       11.019722    2.968130    1.456115
     91          1           0       10.290818    1.386354    1.901679
     92          1           0        9.495812    4.080246    2.858027
     93          1           0        9.903610    2.561720    3.718771
     94          1           0        8.345948    2.681043    3.026046
     95          1           0        9.450025   -3.089962    1.301850
     96          1           0        9.232294   -3.097444   -0.463310
     97          1           0        8.660077   -4.426646    0.692005
     98          1           0        3.222225   -4.088029    1.322986
     99          1           0        3.750919   -7.527905   -1.551615
    100          1           0        3.685144   -6.124065   -2.633839
    101          1           0        2.339214   -6.759300   -2.050278
    102          1           0       -2.233760   -4.906465   -0.902769
    103          1           0       -1.882148   -3.345845   -1.455652
    104          1           0       -3.901942   -2.838509   -1.554564
    105          1           0       -5.594102   -4.982875    1.449983
    106          1           0       -3.960933   -5.669106    1.052804
    107          1           0       -5.394040   -6.112272    0.090098
    108          1           0       -6.944396   -4.369700   -0.618085
    109          1           0       -6.375487   -3.409532   -1.735199
    110          1           0       -5.868267   -1.965944    0.670587
    111          1           0       -7.572805   -2.548302    0.444607
    112          1           0       -6.670443   -1.337807   -2.027174
    113          1           0       -5.995060   -0.451595   -0.828484
    114          1           0       -8.845470   -1.132188   -0.418092
    115          1           0       -8.810592    0.355190    1.109575
    116          1           0       -8.054177    1.636197    0.150072
    117          1           0       -7.068484    0.469742    1.021270
    118          1           0       -8.105415   -0.008891   -2.850397
    119          1           0       -8.362526    1.400930   -1.973743
    120          1           0      -10.355098   -0.829167   -1.685866
    121          1           0      -10.213912   -0.269318   -3.376086
    122          1           0      -11.114269    1.806502   -2.928421
    123          1           0      -10.627490    1.904596   -1.343617
    124          1           0      -12.443767   -0.185287   -1.082310
    125          1           0      -14.284989    1.685197   -2.517581
    126          1           0      -14.208753   -0.035312   -2.453881
    127          1           0      -13.260686    0.883479   -3.688896
    128          1           0      -13.980142    1.414848    0.060786
    129          1           0      -12.958168    2.586850   -0.799322
    130          1           0      -11.221704    2.461258    0.759853
    131          1           0      -11.334290    0.709990    0.803896
    132          1           0      -11.822182    1.459139    3.091047
    133          1           0      -13.421655    1.151139    2.467814
    134          1           0      -12.993973    3.741713    1.575776
    135          1           0      -12.826406    4.014119    4.585993
    136          1           0      -12.198697    4.953514    3.344658
    137          1           0      -11.330928    3.362578    3.882853
    138          1           0      -14.759961    4.094274    3.532068
    139          1           0      -15.081247    2.467229    3.182347
    140          1           0      -14.981896    3.716499    1.882998
 ---------------------------------------------------------------------

 SCF Done:  E(RCAM-B3LYP) =  -3007.15503184     A.U. after   18 cycles

 Excitation energies and oscillator strengths:

 Excited State   1:      Singlet-A      1.7080 eV  725.88 nm  f=0.3771  <S**2>=0.000
     245 -> 248       -0.17612
     246 -> 247        0.68632
     245 <- 248       -0.10631
 This state for optimization and/or second-order correction.
 Total Energy, E(TD-HF/TD-DFT) =  -3007.09226231
 Copying the excited state density for this state as the 1-particle RhoCI density.

 Excited State   2:      Singlet-A      2.2259 eV  557.01 nm  f=0.1363  <S**2>=0.000
     245 -> 247        0.64625
     246 -> 248        0.27549

 Excited State   3:      Singlet-A      3.4121 eV  363.37 nm  f=0.0058  <S**2>=0.000
     243 -> 247        0.54287
     244 -> 247       -0.37698
     246 -> 248       -0.10454

 Excited State   4:      Singlet-A      3.4429 eV  360.12 nm  f=0.1328  <S**2>=0.000
     239 -> 247        0.17081
     239 -> 249       -0.11365
     241 -> 247        0.42691
     241 -> 249       -0.17954
     244 -> 247        0.26183
     245 -> 247       -0.12324
     246 -> 248        0.31640

 Excited State   5:      Singlet-A      3.5571 eV  348.55 nm  f=0.2702  <S**2>=0.000
     243 -> 247       -0.19069
     244 -> 247       -0.43975
     245 -> 247       -0.17257
     246 -> 248        0.45992

 The electronic state is 1-A.
 Alpha  occ. eigenvalues --  -46.87958 -19.25359 -19.25117 -19.20718 -19.19239
 Alpha  occ. eigenvalues --  -19.19048 -19.18510 -14.42163 -14.41304 -14.39436
 Alpha  occ. eigenvalues --  -14.38909 -10.40771 -10.38542 -10.35021 -10.34498
 Alpha  occ. eigenvalues --  -10.31543 -10.31471 -10.30549 -10.30341 -10.30241
 Alpha  occ. eigenvalues --  -10.30023 -10.29699 -10.29532 -10.29501 -10.29150
 Alpha  occ. eigenvalues --  -10.28709 -10.28688 -10.28373 -10.28314 -10.27968
 Alpha  occ. eigenvalues --  -10.27748 -10.27693 -10.27669 -10.27539 -10.27438
 Alpha  occ. eigenvalues --  -10.26957 -10.26906 -10.26607 -10.26598 -10.26580
 Alpha  occ. eigenvalues --  -10.26486 -10.26433 -10.26085 -10.25855 -10.25713
 Alpha  occ. eigenvalues --  -10.25708 -10.25521 -10.25412 -10.25408 -10.25404
 Alpha  occ. eigenvalues --  -10.25331 -10.25156 -10.25121 -10.25074 -10.25037
 Alpha  occ. eigenvalues --  -10.24941 -10.24923 -10.24792 -10.24633 -10.24620
 Alpha  occ. eigenvalues --  -10.24600 -10.24491 -10.24434 -10.24405 -10.24212
 Alpha  occ. eigenvalues --  -10.23990  -3.16560  -1.91461  -1.90995  -1.90882
 Alpha  occ. eigenvalues --   -1.17166  -1.15421  -1.11680  -1.08232  -1.08197
 Alpha  occ. eigenvalues --   -1.07099  -1.04036  -1.03214  -1.02573  -1.01039
 Alpha  occ. eigenvalues --   -0.92523  -0.91405  -0.89925  -0.89261  -0.88949
 Alpha  occ. eigenvalues --   -0.88398  -0.87641  -0.87571  -0.86956  -0.86388
 Alpha  occ. eigenvalues --   -0.85924  -0.85676  -0.84701  -0.83389  -0.83006
 Alpha  occ. eigenvalues --   -0.82528  -0.81523  -0.81023  -0.80724  -0.80660
 Alpha  occ. eigenvalues --   -0.79854  -0.77962  -0.77439  -0.76889  -0.75869
 Alpha  occ. eigenvalues --   -0.75619  -0.75355  -0.75114  -0.74978  -0.74439
 Alpha  occ. eigenvalues --   -0.73577  -0.72829  -0.71034  -0.70519  -0.68741
 Alpha  occ. eigenvalues --   -0.68362  -0.68175  -0.67235  -0.66689  -0.65776
 Alpha  occ. eigenvalues --   -0.65384  -0.64588  -0.64368  -0.64364  -0.64030
 Alpha  occ. eigenvalues --   -0.63759  -0.63573  -0.62245  -0.61986  -0.59869
 Alpha  occ. eigenvalues --   -0.59497  -0.59235  -0.58874  -0.58124  -0.57915
 Alpha  occ. eigenvalues --   -0.57197  -0.56768  -0.56450  -0.55747  -0.55495
 Alpha  occ. eigenvalues --   -0.54756  -0.54579  -0.54170  -0.53965  -0.53908
 Alpha  occ. eigenvalues --   -0.53862  -0.53444  -0.52765  -0.52607  -0.52477
 Alpha  occ. eigenvalues --   -0.52253  -0.52153  -0.51981  -0.51698  -0.51537
 Alpha  occ. eigenvalues --   -0.51515  -0.51184  -0.51114  -0.50545  -0.50431
 Alpha  occ. eigenvalues --   -0.50337  -0.50283  -0.49726  -0.49593  -0.49291
 Alpha  occ. eigenvalues --   -0.49156  -0.49031  -0.48894  -0.48738  -0.48579
 Alpha  occ. eigenvalues --   -0.48412  -0.48151  -0.48028  -0.47819  -0.47768
 Alpha  occ. eigenvalues --   -0.47386  -0.47262  -0.47190  -0.46789  -0.46511
 Alpha  occ. eigenvalues --   -0.46218  -0.46119  -0.45936  -0.45905  -0.45547
 Alpha  occ. eigenvalues --   -0.45497  -0.45342  -0.45180  -0.44942  -0.44640
 Alpha  occ. eigenvalues --   -0.44471  -0.44409  -0.44399  -0.44071  -0.43855
 Alpha  occ. eigenvalues --   -0.43555  -0.43489  -0.43270  -0.43153  -0.43065
 Alpha  occ. eigenvalues --   -0.42902  -0.42663  -0.42454  -0.42365  -0.42051
 Alpha  occ. eigenvalues --   -0.41943  -0.41783  -0.41630  -0.41247  -0.40956
 Alpha  occ. eigenvalues --   -0.40880  -0.40690  -0.40249  -0.40052  -0.39967
 Alpha  occ. eigenvalues --   -0.39436  -0.39287  -0.38945  -0.38837  -0.38385
 Alpha  occ. eigenvalues --   -0.37975  -0.37500  -0.37447  -0.37195  -0.37016
 Alpha  occ. eigenvalues --   -0.36728  -0.36609  -0.36532  -0.36323  -0.36147
 Alpha  occ. eigenvalues --   -0.36049  -0.35825  -0.34736  -0.34687  -0.34288
 Alpha  occ. eigenvalues --   -0.34205  -0.33811  -0.32505  -0.31446  -0.30877
 Alpha  occ. eigenvalues --   -0.30693  -0.30338  -0.30079  -0.29462  -0.23621
 Alpha  occ. eigenvalues --   -0.20859
 Alpha virt. eigenvalues --   -0.08398  -0.01226   0.00749   0.02655   0.02708
 Alpha virt. eigenvalues --    0.03555   0.04324   0.06279   0.06880   0.07506
 Alpha virt. eigenvalues --    0.08485   0.08649   0.08900   0.09190   0.09280

 Mulliken charges:
               1
     1  Mg   0.826064
     2  C   -0.014813
     3  C   -0.054795
     4  C   -0.055605
     5  C   -0.102088
     6  N   -0.262267
     7  C   -0.008119
     8  C   -0.091956
     9  C   -0.065927
    10  C    0.046946
    11  C    0.062218
    12  C    0.044086
    13  C    0.107335
    14  C    0.154167
    15  O   -0.248331
    16  O   -0.348989
    17  N   -0.381420
    18  C    0.116366
    19  C   -0.159562
    20  C   -0.046818
    21  C    0.112108
    22  C    0.135836
    23  C    0.005111
    24  O   -0.221610
    25  C    0.048325
    26  N   -0.269144
    27  C    0.003900
    28  C   -0.013012
    29  C   -0.018871
    30  C    0.072390
    31  C    0.091581
    32  C   -0.014687
    33  C    0.000662
    34  N   -0.397779
    35  C    0.133815
    36  C   -0.171367
    37  C    0.038989
    38  C    0.107622
    39  C    0.123824
    40  C    0.021761
    41  O   -0.125181
    42  C   -0.025758
    43  C    0.188965
    44  O   -0.214045
    45  O   -0.272145
    46  C    0.185951
    47  C    0.303397
    48  C   -0.139584
    49  C   -0.154440
    50  C    0.101450
    51  C    0.044287
    52  C    0.067438
    53  C    0.007827
    54  C   -0.147673
    55  C    0.076984
    56  C    0.051358
    57  C    0.056332
    58  C    0.023357
    59  C   -0.116509
    60  C    0.073627
    61  C    0.004506
    62  C   -0.002462
    63  C    0.090092
    64  C   -0.181995
    65  C    0.055717
    66  C    0.034926
    67  H   -0.038093
    68  H    0.007129
    69  H   -0.023785
    70  H    0.056447
    71  H    0.015218
    72  H    0.028610
    73  H    0.015674
    74  H    0.037065
    75  H    0.010862
    76  H    0.022471
    77  H    0.027486
    78  H    0.044882
    79  H    0.023360
    80  H    0.016488
    81  H    0.017809
    82  H    0.040152
    83  H    0.017403
    84  H    0.042449
    85  H    0.007951
    86  H    0.001874
    87  H    0.024834
    88  H    0.013024
    89  H    0.013848
    90  H    0.012639
    91  H   -0.002196
    92  H    0.026968
    93  H    0.014112
    94  H    0.022595
    95  H    0.014463
    96  H    0.034138
    97  H    0.033135
    98  H    0.023665
    99  H    0.033618
   100  H    0.032023
   101  H    0.012548
   102  H    0.032203
   103  H   -0.006757
   104  H   -0.004055
   105  H    0.026307
   106  H    0.023531
   107  H    0.028006
   108  H   -0.022131
   109  H   -0.009822
   110  H    0.011934
   111  H   -0.001098
   112  H   -0.014636
   113  H   -0.017348
   114  H   -0.005092
   115  H    0.002833
   116  H    0.005016
   117  H    0.005904
   118  H   -0.023041
   119  H   -0.009963
   120  H   -0.007838
   121  H    0.001109
   122  H   -0.013977
   123  H   -0.010568
   124  H   -0.008684
   125  H   -0.000056
   126  H    0.005929
   127  H    0.017511
   128  H    0.003402
   129  H   -0.006784
   130  H    0.014636
   131  H    0.000409
   132  H   -0.008811
   133  H   -0.013375
   134  H    0.005621
   135  H    0.003879
   136  H    0.006862
   137  H    0.013900
   138  H   -0.009831
   139  H    0.009984
   140  H    0.001665
 Sum of Mulliken charges =  -0.00000

 Dipole moment (field-independent basis, Debye):
    X=             -4.3933    Y=              0.2545    Z=              1.4624  Tot=              4.6373
 Quadrupole moment (field-independent basis, Debye-Ang):
   XX=           -376.9163   YY=           -431.9190   ZZ=           -398.3041
   XY=              5.6348   XZ=              9.0179   YZ=              2.4844

 Normal termination of Gaussian 16 at Wed May  4 17:24:41 2022.
