 Gaussian 16, Revision A.03,
 Gaussian 16:  ES64L-G16RevA.03 25-Dec-2016

 ---------------------------------
 #p PBE1PBE/Def2SVP td=(nstates=5)
 ---------------------------------

 -----------------------------------------------------
 step_251_chromophore_24 TDDFT with PBE1PBE functional
 -----------------------------------------------------
 Symbolic Z-matrix:
 Charge =  0 Multiplicity = 1

                         Standard orientation:
 ---------------------------------------------------------------------
 Center     Atomic      Atomic             Coordinates (Angstroms)
 Number     Number       Type             X           Y           Z
 ---------------------------------------------------------------------
      1         12           0        5.088948    0.981235    0.239321
      2          6           0        3.929291   -2.284992    0.478954
      3          6           0        1.879830    1.945063   -0.499424
      4          6           0        6.265013    4.187743   -0.260755
      5          6           0        8.388416   -0.126333    0.432658
      6          7           0        3.131516   -0.057408    0.117270
      7          6           0        2.862704   -1.352567    0.355041
      8          6           0        1.358051   -1.708325    0.387937
      9          6           0        0.718896   -0.365875   -0.171685
     10          6           0        1.993504    0.604419   -0.243709
     11          6           0        0.024996   -0.664102   -1.548468
     12          6           0        0.984582   -2.042224    1.922630
     13          6           0        0.291151   -3.410931    2.187949
     14          6           0       -0.400695   -4.034175    0.921987
     15          8           0        0.052085   -4.954337    0.214688
     16          8           0       -1.597442   -3.392232    0.578666
     17          7           0        4.258197    2.813304   -0.368978
     18          6           0        2.872159    3.007011   -0.542403
     19          6           0        2.614740    4.425288   -0.673364
     20          6           0        3.852182    5.081240   -0.659843
     21          6           0        4.885701    4.027959   -0.340455
     22          6           0        1.235893    4.947560   -1.101370
     23          6           0        4.136194    6.591509   -0.875064
     24          8           0        5.263233    7.120206   -0.845574
     25          6           0        2.936507    7.535289   -1.066536
     26          7           0        7.072936    1.839674    0.034737
     27          6           0        7.249423    3.248997   -0.114549
     28          6           0        8.739709    3.582497   -0.335096
     29          6           0        9.419706    2.227481    0.175311
     30          6           0        8.214670    1.254716    0.264902
     31          6           0        8.959890    3.986904   -1.783443
     32          6           0       10.091693    2.414872    1.600572
     33          6           0        9.377725    2.996615    2.868016
     34          7           0        6.011456   -0.798704    0.338711
     35          6           0        7.368535   -1.130632    0.396073
     36          6           0        7.496798   -2.547111    0.511274
     37          6           0        6.205777   -3.037097    0.591553
     38          6           0        5.312557   -1.958187    0.378355
     39          6           0        8.774659   -3.360737    0.490069
     40          6           0        5.450141   -4.216212    0.747535
     41          8           0        5.859055   -5.332707    0.788955
     42          6           0        3.938101   -3.780000    0.560711
     43          6           0        3.475741   -4.424015   -0.717042
     44          8           0        3.307886   -3.823222   -1.757699
     45          8           0        3.336789   -5.733465   -0.478187
     46          6           0        3.338966   -6.527532   -1.682379
     47          6           0       -2.321234   -3.862046   -0.602091
     48          6           0       -3.736548   -3.501822   -0.705821
     49          6           0       -4.822226   -4.131142   -0.275084
     50          6           0       -4.917129   -5.317667    0.663621
     51          6           0       -6.207078   -3.568360   -0.670137
     52          6           0       -6.625765   -2.304275   -0.036783
     53          6           0       -6.838193   -1.128532   -0.970136
     54          6           0       -8.162921   -0.337932   -0.719256
     55          6           0       -7.983104    0.587629    0.439354
     56          6           0       -8.684367    0.359303   -2.003693
     57          6           0      -10.154209    0.027892   -2.328503
     58          6           0      -11.085257    1.191743   -2.028478
     59          6           0      -12.561577    0.800062   -1.532328
     60          6           0      -13.601022    0.846517   -2.653167
     61          6           0      -12.969689    1.624109   -0.288351
     62          6           0      -11.911385    1.629530    0.900973
     63          6           0      -12.521373    1.744453    2.305505
     64          6           0      -13.039775    3.203013    2.523077
     65          6           0      -12.246574    3.913401    3.667783
     66          6           0      -14.531404    3.324624    2.795041
     67          1           0        0.850815    2.274929   -0.655279
     68          1           0        6.629199    5.138842   -0.653063
     69          1           0        9.417047   -0.490840    0.483209
     70          1           0        1.074947   -2.579451   -0.202593
     71          1           0       -0.000929    0.111182    0.493821
     72          1           0        0.203384    0.078267   -2.326755
     73          1           0       -1.011167   -0.666867   -1.211338
     74          1           0        0.282412   -1.689484   -1.812782
     75          1           0        0.434398   -1.185595    2.311405
     76          1           0        1.922209   -2.031374    2.478903
     77          1           0       -0.434268   -3.128361    2.950082
     78          1           0        0.938868   -4.182777    2.602607
     79          1           0        1.386430    5.540970   -2.003558
     80          1           0        0.861613    5.638599   -0.344873
     81          1           0        0.553755    4.111731   -1.253751
     82          1           0        2.544421    7.345720   -2.066609
     83          1           0        3.358824    8.539299   -1.104404
     84          1           0        2.302566    7.503154   -0.180766
     85          1           0        8.959885    4.353956    0.403364
     86          1           0       10.248184    1.960607   -0.479820
     87          1           0        8.080531    4.442010   -2.239486
     88          1           0        9.241230    3.122375   -2.384291
     89          1           0        9.726910    4.757581   -1.857026
     90          1           0       11.019722    2.968130    1.456115
     91          1           0       10.290818    1.386354    1.901679
     92          1           0        9.495812    4.080246    2.858027
     93          1           0        9.903610    2.561720    3.718771
     94          1           0        8.345948    2.681043    3.026046
     95          1           0        9.450025   -3.089962    1.301850
     96          1           0        9.232294   -3.097444   -0.463310
     97          1           0        8.660077   -4.426646    0.692005
     98          1           0        3.222225   -4.088029    1.322986
     99          1           0        3.750919   -7.527905   -1.551615
    100          1           0        3.685144   -6.124065   -2.633839
    101          1           0        2.339214   -6.759300   -2.050278
    102          1           0       -2.233760   -4.906465   -0.902769
    103          1           0       -1.882148   -3.345845   -1.455652
    104          1           0       -3.901942   -2.838509   -1.554564
    105          1           0       -5.594102   -4.982875    1.449983
    106          1           0       -3.960933   -5.669106    1.052804
    107          1           0       -5.394040   -6.112272    0.090098
    108          1           0       -6.944396   -4.369700   -0.618085
    109          1           0       -6.375487   -3.409532   -1.735199
    110          1           0       -5.868267   -1.965944    0.670587
    111          1           0       -7.572805   -2.548302    0.444607
    112          1           0       -6.670443   -1.337807   -2.027174
    113          1           0       -5.995060   -0.451595   -0.828484
    114          1           0       -8.845470   -1.132188   -0.418092
    115          1           0       -8.810592    0.355190    1.109575
    116          1           0       -8.054177    1.636197    0.150072
    117          1           0       -7.068484    0.469742    1.021270
    118          1           0       -8.105415   -0.008891   -2.850397
    119          1           0       -8.362526    1.400930   -1.973743
    120          1           0      -10.355098   -0.829167   -1.685866
    121          1           0      -10.213912   -0.269318   -3.376086
    122          1           0      -11.114269    1.806502   -2.928421
    123          1           0      -10.627490    1.904596   -1.343617
    124          1           0      -12.443767   -0.185287   -1.082310
    125          1           0      -14.284989    1.685197   -2.517581
    126          1           0      -14.208753   -0.035312   -2.453881
    127          1           0      -13.260686    0.883479   -3.688896
    128          1           0      -13.980142    1.414848    0.060786
    129          1           0      -12.958168    2.586850   -0.799322
    130          1           0      -11.221704    2.461258    0.759853
    131          1           0      -11.334290    0.709990    0.803896
    132          1           0      -11.822182    1.459139    3.091047
    133          1           0      -13.421655    1.151139    2.467814
    134          1           0      -12.993973    3.741713    1.575776
    135          1           0      -12.826406    4.014119    4.585993
    136          1           0      -12.198697    4.953514    3.344658
    137          1           0      -11.330928    3.362578    3.882853
    138          1           0      -14.759961    4.094274    3.532068
    139          1           0      -15.081247    2.467229    3.182347
    140          1           0      -14.981896    3.716499    1.882998
 ---------------------------------------------------------------------

 SCF Done:  E(RPBE1PBE) =  -3005.34351315     A.U. after   16 cycles

 Excitation energies and oscillator strengths:

 Excited State   1:      Singlet-A      1.8579 eV  667.35 nm  f=0.3638  <S**2>=0.000
     245 -> 248       -0.17039
     246 -> 247        0.69292
     246 <- 247       -0.10676
 This state for optimization and/or second-order correction.
 Total Energy, E(TD-HF/TD-DFT) =  -3005.27523773
 Copying the excited state density for this state as the 1-particle RhoCI density.

 Excited State   2:      Singlet-A      2.2274 eV  556.62 nm  f=0.1307  <S**2>=0.000
     245 -> 247        0.65655
     246 -> 248        0.24667

 Excited State   3:      Singlet-A      2.9967 eV  413.74 nm  f=0.0038  <S**2>=0.000
     241 -> 247        0.20814
     242 -> 247       -0.21748
     243 -> 247        0.59906
     243 -> 249       -0.10187

 Excited State   4:      Singlet-A      3.0743 eV  403.29 nm  f=0.0020  <S**2>=0.000
     244 -> 247        0.67473

 Excited State   5:      Singlet-A      3.1468 eV  394.01 nm  f=0.0050  <S**2>=0.000
     241 -> 247       -0.15679
     242 -> 247        0.58877
     243 -> 247        0.29324
     246 -> 248       -0.12528

 The electronic state is 1-A.
 Alpha  occ. eigenvalues --  -46.91352 -19.26017 -19.25664 -19.20975 -19.19363
 Alpha  occ. eigenvalues --  -19.19035 -19.18900 -14.41624 -14.40808 -14.39200
 Alpha  occ. eigenvalues --  -14.38493 -10.37829 -10.35435 -10.32345 -10.31414
 Alpha  occ. eigenvalues --  -10.29121 -10.28833 -10.28128 -10.28087 -10.27611
 Alpha  occ. eigenvalues --  -10.27546 -10.27498 -10.27481 -10.27440 -10.26606
 Alpha  occ. eigenvalues --  -10.26487 -10.26233 -10.26196 -10.25919 -10.25558
 Alpha  occ. eigenvalues --  -10.25469 -10.25359 -10.25324 -10.25184 -10.25162
 Alpha  occ. eigenvalues --  -10.24812 -10.24611 -10.24606 -10.24177 -10.24153
 Alpha  occ. eigenvalues --  -10.24056 -10.23855 -10.23563 -10.23342 -10.23224
 Alpha  occ. eigenvalues --  -10.23140 -10.23120 -10.23015 -10.22976 -10.22966
 Alpha  occ. eigenvalues --  -10.22922 -10.22795 -10.22682 -10.22661 -10.22609
 Alpha  occ. eigenvalues --  -10.22493 -10.22470 -10.22361 -10.22212 -10.22207
 Alpha  occ. eigenvalues --  -10.22046 -10.22006 -10.21939 -10.21811 -10.21599
 Alpha  occ. eigenvalues --  -10.21386  -3.13533  -1.86375  -1.85885  -1.85778
 Alpha  occ. eigenvalues --   -1.11853  -1.10184  -1.06248  -1.03108  -1.02907
 Alpha  occ. eigenvalues --   -1.01930  -0.98564  -0.97781  -0.97149  -0.95869
 Alpha  occ. eigenvalues --   -0.86737  -0.85558  -0.84038  -0.83394  -0.83082
 Alpha  occ. eigenvalues --   -0.82803  -0.81916  -0.81693  -0.81205  -0.80693
 Alpha  occ. eigenvalues --   -0.80256  -0.79901  -0.78928  -0.77623  -0.77214
 Alpha  occ. eigenvalues --   -0.76807  -0.75710  -0.75259  -0.74955  -0.74881
 Alpha  occ. eigenvalues --   -0.74139  -0.72163  -0.71816  -0.71168  -0.70078
 Alpha  occ. eigenvalues --   -0.69876  -0.69463  -0.69345  -0.69235  -0.68617
 Alpha  occ. eigenvalues --   -0.67897  -0.67209  -0.65476  -0.64823  -0.63080
 Alpha  occ. eigenvalues --   -0.62789  -0.62418  -0.61459  -0.61115  -0.60296
 Alpha  occ. eigenvalues --   -0.59644  -0.59076  -0.58945  -0.58599  -0.58460
 Alpha  occ. eigenvalues --   -0.58201  -0.57737  -0.56514  -0.56438  -0.54282
 Alpha  occ. eigenvalues --   -0.53970  -0.53672  -0.53526  -0.52648  -0.52241
 Alpha  occ. eigenvalues --   -0.51731  -0.51173  -0.50949  -0.50173  -0.50118
 Alpha  occ. eigenvalues --   -0.49279  -0.49154  -0.48590  -0.48504  -0.48408
 Alpha  occ. eigenvalues --   -0.48307  -0.48039  -0.47263  -0.47132  -0.46921
 Alpha  occ. eigenvalues --   -0.46773  -0.46655  -0.46504  -0.46327  -0.46018
 Alpha  occ. eigenvalues --   -0.45935  -0.45701  -0.45681  -0.45132  -0.44989
 Alpha  occ. eigenvalues --   -0.44893  -0.44744  -0.44349  -0.44157  -0.43844
 Alpha  occ. eigenvalues --   -0.43743  -0.43630  -0.43482  -0.43391  -0.43148
 Alpha  occ. eigenvalues --   -0.43051  -0.42792  -0.42656  -0.42445  -0.42399
 Alpha  occ. eigenvalues --   -0.42096  -0.41944  -0.41859  -0.41342  -0.41142
 Alpha  occ. eigenvalues --   -0.40937  -0.40872  -0.40634  -0.40524  -0.40266
 Alpha  occ. eigenvalues --   -0.40178  -0.40008  -0.39808  -0.39563  -0.39356
 Alpha  occ. eigenvalues --   -0.39325  -0.39105  -0.39075  -0.38812  -0.38548
 Alpha  occ. eigenvalues --   -0.38325  -0.38262  -0.38002  -0.37931  -0.37790
 Alpha  occ. eigenvalues --   -0.37589  -0.37460  -0.37272  -0.37074  -0.36875
 Alpha  occ. eigenvalues --   -0.36774  -0.36692  -0.36493  -0.36149  -0.35773
 Alpha  occ. eigenvalues --   -0.35603  -0.35557  -0.35204  -0.34932  -0.34821
 Alpha  occ. eigenvalues --   -0.34367  -0.34073  -0.33873  -0.33617  -0.33208
 Alpha  occ. eigenvalues --   -0.32833  -0.32456  -0.32311  -0.32019  -0.32010
 Alpha  occ. eigenvalues --   -0.31603  -0.31585  -0.31485  -0.31321  -0.31117
 Alpha  occ. eigenvalues --   -0.30876  -0.30711  -0.29597  -0.29457  -0.29318
 Alpha  occ. eigenvalues --   -0.29275  -0.28628  -0.28057  -0.26997  -0.26144
 Alpha  occ. eigenvalues --   -0.25897  -0.25415  -0.25239  -0.25053  -0.20532
 Alpha  occ. eigenvalues --   -0.18482
 Alpha virt. eigenvalues --   -0.10853  -0.04804  -0.03449  -0.01709  -0.01086
 Alpha virt. eigenvalues --   -0.00168  -0.00054   0.01947   0.02378   0.03979
 Alpha virt. eigenvalues --    0.04788   0.05105   0.05118   0.05547   0.05819

 Mulliken charges:
               1
     1  Mg   0.974951
     2  C   -0.022263
     3  C   -0.057901
     4  C   -0.052911
     5  C   -0.084294
     6  N   -0.369282
     7  C    0.051722
     8  C   -0.162906
     9  C   -0.136123
    10  C    0.085219
    11  C    0.004175
    12  C    0.004632
    13  C    0.034243
    14  C    0.205294
    15  O   -0.278354
    16  O   -0.377433
    17  N   -0.493388
    18  C    0.147591
    19  C   -0.182482
    20  C   -0.093858
    21  C    0.152595
    22  C    0.068546
    23  C    0.055969
    24  O   -0.256408
    25  C   -0.029711
    26  N   -0.371688
    27  C    0.032153
    28  C   -0.087651
    29  C   -0.094556
    30  C    0.109398
    31  C    0.032891
    32  C   -0.073269
    33  C   -0.071043
    34  N   -0.522805
    35  C    0.152238
    36  C   -0.191751
    37  C   -0.012416
    38  C    0.168829
    39  C    0.071319
    40  C    0.112914
    41  O   -0.172792
    42  C   -0.142973
    43  C    0.282373
    44  O   -0.248081
    45  O   -0.305019
    46  C    0.130101
    47  C    0.261598
    48  C   -0.147303
    49  C   -0.200979
    50  C    0.034957
    51  C   -0.013574
    52  C    0.004078
    53  C   -0.042226
    54  C   -0.237692
    55  C    0.021538
    56  C    0.000487
    57  C   -0.011832
    58  C   -0.027717
    59  C   -0.203296
    60  C    0.013877
    61  C   -0.043950
    62  C   -0.079782
    63  C    0.037524
    64  C   -0.270605
    65  C   -0.007803
    66  C   -0.021786
    67  H   -0.005115
    68  H    0.037240
    69  H    0.007072
    70  H    0.098814
    71  H    0.049316
    72  H    0.055452
    73  H    0.044419
    74  H    0.064169
    75  H    0.041012
    76  H    0.055967
    77  H    0.060195
    78  H    0.074168
    79  H    0.052970
    80  H    0.046256
    81  H    0.046587
    82  H    0.067155
    83  H    0.046720
    84  H    0.069331
    85  H    0.046356
    86  H    0.037007
    87  H    0.052646
    88  H    0.041560
    89  H    0.042382
    90  H    0.045029
    91  H    0.032691
    92  H    0.052993
    93  H    0.042673
    94  H    0.050997
    95  H    0.041012
    96  H    0.060878
    97  H    0.059344
    98  H    0.064885
    99  H    0.055929
   100  H    0.053407
   101  H    0.034541
   102  H    0.058181
   103  H    0.022049
   104  H    0.024758
   105  H    0.054835
   106  H    0.051247
   107  H    0.056381
   108  H    0.009765
   109  H    0.022783
   110  H    0.044301
   111  H    0.030902
   112  H    0.015027
   113  H    0.016409
   114  H    0.032339
   115  H    0.031401
   116  H    0.031175
   117  H    0.033005
   118  H    0.010608
   119  H    0.020859
   120  H    0.024846
   121  H    0.033556
   122  H    0.019183
   123  H    0.022618
   124  H    0.029704
   125  H    0.026890
   126  H    0.034298
   127  H    0.043881
   128  H    0.035133
   129  H    0.026929
   130  H    0.047206
   131  H    0.036558
   132  H    0.023084
   133  H    0.019921
   134  H    0.042951
   135  H    0.031505
   136  H    0.035153
   137  H    0.040430
   138  H    0.018039
   139  H    0.035888
   140  H    0.028832
 Sum of Mulliken charges =  -0.00000

 Dipole moment (field-independent basis, Debye):
    X=             -4.5402    Y=              0.6707    Z=              1.3562  Tot=              4.7857
 Quadrupole moment (field-independent basis, Debye-Ang):
   XX=           -372.4027   YY=           -428.4390   ZZ=           -395.7282
   XY=              7.9264   XZ=              8.8943   YZ=              2.3362

 Normal termination of Gaussian 16 at Wed May  4 17:52:18 2022.
