 Gaussian 16, Revision A.03,
 Gaussian 16:  ES64L-G16RevA.03 25-Dec-2016

 --------------------------------
 #p wB97XD/Def2SVP td=(nstates=5)
 --------------------------------

 ----------------------------------------------------
 step_251_chromophore_24 TDDFT with wB97XD functional
 ----------------------------------------------------
 Symbolic Z-matrix:
 Charge =  0 Multiplicity = 1

                         Standard orientation:
 ---------------------------------------------------------------------
 Center     Atomic      Atomic             Coordinates (Angstroms)
 Number     Number       Type             X           Y           Z
 ---------------------------------------------------------------------
      1         12           0        5.088948    0.981235    0.239321
      2          6           0        3.929291   -2.284992    0.478954
      3          6           0        1.879830    1.945063   -0.499424
      4          6           0        6.265013    4.187743   -0.260755
      5          6           0        8.388416   -0.126333    0.432658
      6          7           0        3.131516   -0.057408    0.117270
      7          6           0        2.862704   -1.352567    0.355041
      8          6           0        1.358051   -1.708325    0.387937
      9          6           0        0.718896   -0.365875   -0.171685
     10          6           0        1.993504    0.604419   -0.243709
     11          6           0        0.024996   -0.664102   -1.548468
     12          6           0        0.984582   -2.042224    1.922630
     13          6           0        0.291151   -3.410931    2.187949
     14          6           0       -0.400695   -4.034175    0.921987
     15          8           0        0.052085   -4.954337    0.214688
     16          8           0       -1.597442   -3.392232    0.578666
     17          7           0        4.258197    2.813304   -0.368978
     18          6           0        2.872159    3.007011   -0.542403
     19          6           0        2.614740    4.425288   -0.673364
     20          6           0        3.852182    5.081240   -0.659843
     21          6           0        4.885701    4.027959   -0.340455
     22          6           0        1.235893    4.947560   -1.101370
     23          6           0        4.136194    6.591509   -0.875064
     24          8           0        5.263233    7.120206   -0.845574
     25          6           0        2.936507    7.535289   -1.066536
     26          7           0        7.072936    1.839674    0.034737
     27          6           0        7.249423    3.248997   -0.114549
     28          6           0        8.739709    3.582497   -0.335096
     29          6           0        9.419706    2.227481    0.175311
     30          6           0        8.214670    1.254716    0.264902
     31          6           0        8.959890    3.986904   -1.783443
     32          6           0       10.091693    2.414872    1.600572
     33          6           0        9.377725    2.996615    2.868016
     34          7           0        6.011456   -0.798704    0.338711
     35          6           0        7.368535   -1.130632    0.396073
     36          6           0        7.496798   -2.547111    0.511274
     37          6           0        6.205777   -3.037097    0.591553
     38          6           0        5.312557   -1.958187    0.378355
     39          6           0        8.774659   -3.360737    0.490069
     40          6           0        5.450141   -4.216212    0.747535
     41          8           0        5.859055   -5.332707    0.788955
     42          6           0        3.938101   -3.780000    0.560711
     43          6           0        3.475741   -4.424015   -0.717042
     44          8           0        3.307886   -3.823222   -1.757699
     45          8           0        3.336789   -5.733465   -0.478187
     46          6           0        3.338966   -6.527532   -1.682379
     47          6           0       -2.321234   -3.862046   -0.602091
     48          6           0       -3.736548   -3.501822   -0.705821
     49          6           0       -4.822226   -4.131142   -0.275084
     50          6           0       -4.917129   -5.317667    0.663621
     51          6           0       -6.207078   -3.568360   -0.670137
     52          6           0       -6.625765   -2.304275   -0.036783
     53          6           0       -6.838193   -1.128532   -0.970136
     54          6           0       -8.162921   -0.337932   -0.719256
     55          6           0       -7.983104    0.587629    0.439354
     56          6           0       -8.684367    0.359303   -2.003693
     57          6           0      -10.154209    0.027892   -2.328503
     58          6           0      -11.085257    1.191743   -2.028478
     59          6           0      -12.561577    0.800062   -1.532328
     60          6           0      -13.601022    0.846517   -2.653167
     61          6           0      -12.969689    1.624109   -0.288351
     62          6           0      -11.911385    1.629530    0.900973
     63          6           0      -12.521373    1.744453    2.305505
     64          6           0      -13.039775    3.203013    2.523077
     65          6           0      -12.246574    3.913401    3.667783
     66          6           0      -14.531404    3.324624    2.795041
     67          1           0        0.850815    2.274929   -0.655279
     68          1           0        6.629199    5.138842   -0.653063
     69          1           0        9.417047   -0.490840    0.483209
     70          1           0        1.074947   -2.579451   -0.202593
     71          1           0       -0.000929    0.111182    0.493821
     72          1           0        0.203384    0.078267   -2.326755
     73          1           0       -1.011167   -0.666867   -1.211338
     74          1           0        0.282412   -1.689484   -1.812782
     75          1           0        0.434398   -1.185595    2.311405
     76          1           0        1.922209   -2.031374    2.478903
     77          1           0       -0.434268   -3.128361    2.950082
     78          1           0        0.938868   -4.182777    2.602607
     79          1           0        1.386430    5.540970   -2.003558
     80          1           0        0.861613    5.638599   -0.344873
     81          1           0        0.553755    4.111731   -1.253751
     82          1           0        2.544421    7.345720   -2.066609
     83          1           0        3.358824    8.539299   -1.104404
     84          1           0        2.302566    7.503154   -0.180766
     85          1           0        8.959885    4.353956    0.403364
     86          1           0       10.248184    1.960607   -0.479820
     87          1           0        8.080531    4.442010   -2.239486
     88          1           0        9.241230    3.122375   -2.384291
     89          1           0        9.726910    4.757581   -1.857026
     90          1           0       11.019722    2.968130    1.456115
     91          1           0       10.290818    1.386354    1.901679
     92          1           0        9.495812    4.080246    2.858027
     93          1           0        9.903610    2.561720    3.718771
     94          1           0        8.345948    2.681043    3.026046
     95          1           0        9.450025   -3.089962    1.301850
     96          1           0        9.232294   -3.097444   -0.463310
     97          1           0        8.660077   -4.426646    0.692005
     98          1           0        3.222225   -4.088029    1.322986
     99          1           0        3.750919   -7.527905   -1.551615
    100          1           0        3.685144   -6.124065   -2.633839
    101          1           0        2.339214   -6.759300   -2.050278
    102          1           0       -2.233760   -4.906465   -0.902769
    103          1           0       -1.882148   -3.345845   -1.455652
    104          1           0       -3.901942   -2.838509   -1.554564
    105          1           0       -5.594102   -4.982875    1.449983
    106          1           0       -3.960933   -5.669106    1.052804
    107          1           0       -5.394040   -6.112272    0.090098
    108          1           0       -6.944396   -4.369700   -0.618085
    109          1           0       -6.375487   -3.409532   -1.735199
    110          1           0       -5.868267   -1.965944    0.670587
    111          1           0       -7.572805   -2.548302    0.444607
    112          1           0       -6.670443   -1.337807   -2.027174
    113          1           0       -5.995060   -0.451595   -0.828484
    114          1           0       -8.845470   -1.132188   -0.418092
    115          1           0       -8.810592    0.355190    1.109575
    116          1           0       -8.054177    1.636197    0.150072
    117          1           0       -7.068484    0.469742    1.021270
    118          1           0       -8.105415   -0.008891   -2.850397
    119          1           0       -8.362526    1.400930   -1.973743
    120          1           0      -10.355098   -0.829167   -1.685866
    121          1           0      -10.213912   -0.269318   -3.376086
    122          1           0      -11.114269    1.806502   -2.928421
    123          1           0      -10.627490    1.904596   -1.343617
    124          1           0      -12.443767   -0.185287   -1.082310
    125          1           0      -14.284989    1.685197   -2.517581
    126          1           0      -14.208753   -0.035312   -2.453881
    127          1           0      -13.260686    0.883479   -3.688896
    128          1           0      -13.980142    1.414848    0.060786
    129          1           0      -12.958168    2.586850   -0.799322
    130          1           0      -11.221704    2.461258    0.759853
    131          1           0      -11.334290    0.709990    0.803896
    132          1           0      -11.822182    1.459139    3.091047
    133          1           0      -13.421655    1.151139    2.467814
    134          1           0      -12.993973    3.741713    1.575776
    135          1           0      -12.826406    4.014119    4.585993
    136          1           0      -12.198697    4.953514    3.344658
    137          1           0      -11.330928    3.362578    3.882853
    138          1           0      -14.759961    4.094274    3.532068
    139          1           0      -15.081247    2.467229    3.182347
    140          1           0      -14.981896    3.716499    1.882998
 ---------------------------------------------------------------------

 SCF Done:  E(RwB97XD) =  -3007.85477859     A.U. after   19 cycles

 Excitation energies and oscillator strengths:

 Excited State   1:      Singlet-A      1.6561 eV  748.63 nm  f=0.3760  <S**2>=0.000
     245 -> 248       -0.18113
     246 -> 247        0.68414
     245 <- 248       -0.11524
 This state for optimization and/or second-order correction.
 Total Energy, E(TD-HF/TD-DFT) =  -3007.79391662
 Copying the excited state density for this state as the 1-particle RhoCI density.

 Excited State   2:      Singlet-A      2.1701 eV  571.32 nm  f=0.1335  <S**2>=0.000
     245 -> 247        0.64457
     246 -> 248        0.27770

 Excited State   3:      Singlet-A      3.4106 eV  363.53 nm  f=0.0118  <S**2>=0.000
     242 -> 247        0.46871
     243 -> 247        0.34335
     244 -> 247       -0.31709
     246 -> 248       -0.14448

 Excited State   4:      Singlet-A      3.4536 eV  359.00 nm  f=0.1380  <S**2>=0.000
     239 -> 247        0.13786
     239 -> 249       -0.11079
     240 -> 247       -0.13779
     241 -> 247        0.42588
     241 -> 249       -0.19060
     242 -> 247        0.13612
     244 -> 247        0.19996
     245 -> 247       -0.12544
     246 -> 248        0.32178

 Excited State   5:      Singlet-A      3.5871 eV  345.64 nm  f=0.3048  <S**2>=0.000
     242 -> 247        0.11188
     244 -> 247        0.45551
     245 -> 247        0.17964
     246 -> 248       -0.45713

 The electronic state is 1-A.
 Alpha  occ. eigenvalues --  -46.94300 -19.30599 -19.30340 -19.25661 -19.24190
 Alpha  occ. eigenvalues --  -19.24135 -19.23479 -14.46759 -14.45891 -14.44000
 Alpha  occ. eigenvalues --  -14.43558 -10.44628 -10.42385 -10.38950 -10.38536
 Alpha  occ. eigenvalues --  -10.35618 -10.35367 -10.34581 -10.34225 -10.34152
 Alpha  occ. eigenvalues --  -10.34087 -10.33694 -10.33485 -10.33468 -10.33075
 Alpha  occ. eigenvalues --  -10.32794 -10.32790 -10.32419 -10.32311 -10.32177
 Alpha  occ. eigenvalues --  -10.31807 -10.31761 -10.31663 -10.31601 -10.31587
 Alpha  occ. eigenvalues --  -10.30969 -10.30937 -10.30648 -10.30624 -10.30486
 Alpha  occ. eigenvalues --  -10.30392 -10.30301 -10.30031 -10.29836 -10.29556
 Alpha  occ. eigenvalues --  -10.29540 -10.29385 -10.29344 -10.29340 -10.29340
 Alpha  occ. eigenvalues --  -10.29276 -10.29051 -10.29040 -10.28981 -10.28969
 Alpha  occ. eigenvalues --  -10.28854 -10.28832 -10.28714 -10.28593 -10.28571
 Alpha  occ. eigenvalues --  -10.28537 -10.28436 -10.28372 -10.28224 -10.28023
 Alpha  occ. eigenvalues --  -10.27799  -3.20334  -1.93926  -1.93436  -1.93325
 Alpha  occ. eigenvalues --   -1.19363  -1.17595  -1.13972  -1.10394  -1.10383
 Alpha  occ. eigenvalues --   -1.09306  -1.06067  -1.05230  -1.04612  -1.03015
 Alpha  occ. eigenvalues --   -0.94550  -0.93206  -0.91698  -0.91084  -0.90740
 Alpha  occ. eigenvalues --   -0.90298  -0.89512  -0.89344  -0.88897  -0.88323
 Alpha  occ. eigenvalues --   -0.87824  -0.87532  -0.86563  -0.85341  -0.84846
 Alpha  occ. eigenvalues --   -0.84398  -0.83368  -0.82936  -0.82592  -0.82542
 Alpha  occ. eigenvalues --   -0.81782  -0.79896  -0.79341  -0.78783  -0.77733
 Alpha  occ. eigenvalues --   -0.77550  -0.77146  -0.76954  -0.76883  -0.76272
 Alpha  occ. eigenvalues --   -0.75496  -0.74827  -0.72988  -0.72455  -0.70664
 Alpha  occ. eigenvalues --   -0.70383  -0.70044  -0.69090  -0.68626  -0.67765
 Alpha  occ. eigenvalues --   -0.67252  -0.66566  -0.66352  -0.66190  -0.66000
 Alpha  occ. eigenvalues --   -0.65695  -0.65386  -0.64068  -0.63974  -0.61845
 Alpha  occ. eigenvalues --   -0.61472  -0.61168  -0.60837  -0.60087  -0.59908
 Alpha  occ. eigenvalues --   -0.59174  -0.58646  -0.58402  -0.57690  -0.57475
 Alpha  occ. eigenvalues --   -0.56674  -0.56547  -0.56038  -0.55940  -0.55815
 Alpha  occ. eigenvalues --   -0.55741  -0.55377  -0.54727  -0.54517  -0.54341
 Alpha  occ. eigenvalues --   -0.54150  -0.54039  -0.53852  -0.53620  -0.53537
 Alpha  occ. eigenvalues --   -0.53387  -0.53052  -0.53000  -0.52426  -0.52317
 Alpha  occ. eigenvalues --   -0.52282  -0.52214  -0.51634  -0.51519  -0.51222
 Alpha  occ. eigenvalues --   -0.51059  -0.50935  -0.50787  -0.50622  -0.50435
 Alpha  occ. eigenvalues --   -0.50292  -0.50052  -0.49909  -0.49693  -0.49660
 Alpha  occ. eigenvalues --   -0.49311  -0.49172  -0.49119  -0.48749  -0.48382
 Alpha  occ. eigenvalues --   -0.48135  -0.48024  -0.47799  -0.47761  -0.47499
 Alpha  occ. eigenvalues --   -0.47426  -0.47228  -0.47101  -0.46902  -0.46585
 Alpha  occ. eigenvalues --   -0.46355  -0.46289  -0.46252  -0.45964  -0.45782
 Alpha  occ. eigenvalues --   -0.45495  -0.45444  -0.45178  -0.45049  -0.44956
 Alpha  occ. eigenvalues --   -0.44812  -0.44570  -0.44360  -0.44317  -0.43972
 Alpha  occ. eigenvalues --   -0.43817  -0.43667  -0.43574  -0.43203  -0.42837
 Alpha  occ. eigenvalues --   -0.42716  -0.42582  -0.42176  -0.41901  -0.41876
 Alpha  occ. eigenvalues --   -0.41332  -0.41143  -0.40834  -0.40679  -0.40235
 Alpha  occ. eigenvalues --   -0.39825  -0.39370  -0.39322  -0.39049  -0.38939
 Alpha  occ. eigenvalues --   -0.38580  -0.38574  -0.38470  -0.38294  -0.38107
 Alpha  occ. eigenvalues --   -0.37884  -0.37850  -0.36608  -0.36572  -0.36193
 Alpha  occ. eigenvalues --   -0.36129  -0.35772  -0.34771  -0.33629  -0.32909
 Alpha  occ. eigenvalues --   -0.32774  -0.32296  -0.32195  -0.31574  -0.25543
 Alpha  occ. eigenvalues --   -0.22668
 Alpha virt. eigenvalues --   -0.06748   0.00717   0.02806   0.04792   0.05674
 Alpha virt. eigenvalues --    0.05865   0.06531   0.08679   0.09077   0.10425
 Alpha virt. eigenvalues --    0.11261   0.11783   0.11862   0.12353   0.12520

 Mulliken charges:
               1
     1  Mg   0.964174
     2  C   -0.024600
     3  C   -0.066715
     4  C   -0.064982
     5  C   -0.108658
     6  N   -0.333211
     7  C    0.030355
     8  C   -0.132148
     9  C   -0.111522
    10  C    0.066197
    11  C    0.015692
    12  C    0.010924
    13  C    0.046660
    14  C    0.199320
    15  O   -0.275759
    16  O   -0.375999
    17  N   -0.460859
    18  C    0.133137
    19  C   -0.174479
    20  C   -0.090333
    21  C    0.138010
    22  C    0.086731
    23  C    0.051132
    24  O   -0.252725
    25  C   -0.016395
    26  N   -0.338878
    27  C    0.022197
    28  C   -0.061330
    29  C   -0.072310
    30  C    0.097139
    31  C    0.042116
    32  C   -0.059389
    33  C   -0.054361
    34  N   -0.488778
    35  C    0.148720
    36  C   -0.184284
    37  C   -0.007398
    38  C    0.146972
    39  C    0.079773
    40  C    0.096295
    41  O   -0.161233
    42  C   -0.097203
    43  C    0.258638
    44  O   -0.242418
    45  O   -0.304177
    46  C    0.144702
    47  C    0.273997
    48  C   -0.158194
    49  C   -0.183164
    50  C    0.049337
    51  C    0.002745
    52  C    0.018852
    53  C   -0.025565
    54  C   -0.201628
    55  C    0.030030
    56  C    0.012339
    57  C    0.010119
    58  C   -0.014048
    59  C   -0.170754
    60  C    0.023223
    61  C   -0.029111
    62  C   -0.048892
    63  C    0.050108
    64  C   -0.243132
    65  C    0.007073
    66  C   -0.011658
    67  H   -0.013474
    68  H    0.030550
    69  H    0.003139
    70  H    0.073019
    71  H    0.040366
    72  H    0.051269
    73  H    0.037551
    74  H    0.057492
    75  H    0.035935
    76  H    0.046351
    77  H    0.056040
    78  H    0.070441
    79  H    0.044191
    80  H    0.038873
    81  H    0.041197
    82  H    0.061660
    83  H    0.044169
    84  H    0.063770
    85  H    0.034850
    86  H    0.030193
    87  H    0.046182
    88  H    0.035069
    89  H    0.036952
    90  H    0.038711
    91  H    0.021532
    92  H    0.047560
    93  H    0.037075
    94  H    0.043640
    95  H    0.037026
    96  H    0.056705
    97  H    0.057760
    98  H    0.053918
    99  H    0.052982
   100  H    0.049476
   101  H    0.030821
   102  H    0.053674
   103  H    0.016069
   104  H    0.020219
   105  H    0.047909
   106  H    0.046814
   107  H    0.050240
   108  H    0.003221
   109  H    0.013732
   110  H    0.035214
   111  H    0.022700
   112  H    0.004096
   113  H    0.006734
   114  H    0.015139
   115  H    0.024259
   116  H    0.025047
   117  H    0.027810
   118  H    0.002259
   119  H    0.012406
   120  H    0.012380
   121  H    0.027311
   122  H    0.011421
   123  H    0.007648
   124  H    0.015388
   125  H    0.020932
   126  H    0.028602
   127  H    0.039366
   128  H    0.026897
   129  H    0.013455
   130  H    0.035833
   131  H    0.020755
   132  H    0.016069
   133  H    0.009999
   134  H    0.029541
   135  H    0.024604
   136  H    0.029243
   137  H    0.034434
   138  H    0.011443
   139  H    0.030421
   140  H    0.023308
 Sum of Mulliken charges =  -0.00000

 Dipole moment (field-independent basis, Debye):
    X=             -4.3869    Y=              0.1450    Z=              1.4941  Tot=              4.6366
 Quadrupole moment (field-independent basis, Debye-Ang):
   XX=           -370.9604   YY=           -428.0086   ZZ=           -395.2026
   XY=              4.6466   XZ=              9.4152   YZ=              2.3766

 Normal termination of Gaussian 16 at Wed May  4 18:34:09 2022.
