 Gaussian 16, Revision A.03,
 Gaussian 16:  ES64L-G16RevA.03 25-Dec-2016

 --------------------
 #p ZINDO=(nstates=5)
 --------------------

 -----------------------------
 step_251_chromophore_24 ZINDO
 -----------------------------
 Symbolic Z-matrix:
 Charge =  0 Multiplicity = 1

                         Standard orientation:
 ---------------------------------------------------------------------
 Center     Atomic      Atomic             Coordinates (Angstroms)
 Number     Number       Type             X           Y           Z
 ---------------------------------------------------------------------
      1         12           0        5.088948    0.981235    0.239321
      2          6           0        3.929291   -2.284992    0.478954
      3          6           0        1.879830    1.945063   -0.499424
      4          6           0        6.265013    4.187743   -0.260755
      5          6           0        8.388416   -0.126333    0.432658
      6          7           0        3.131516   -0.057408    0.117270
      7          6           0        2.862704   -1.352567    0.355041
      8          6           0        1.358051   -1.708325    0.387937
      9          6           0        0.718896   -0.365875   -0.171685
     10          6           0        1.993504    0.604419   -0.243709
     11          6           0        0.024996   -0.664102   -1.548468
     12          6           0        0.984582   -2.042224    1.922630
     13          6           0        0.291151   -3.410931    2.187949
     14          6           0       -0.400695   -4.034175    0.921987
     15          8           0        0.052085   -4.954337    0.214688
     16          8           0       -1.597442   -3.392232    0.578666
     17          7           0        4.258197    2.813304   -0.368978
     18          6           0        2.872159    3.007011   -0.542403
     19          6           0        2.614740    4.425288   -0.673364
     20          6           0        3.852182    5.081240   -0.659843
     21          6           0        4.885701    4.027959   -0.340455
     22          6           0        1.235893    4.947560   -1.101370
     23          6           0        4.136194    6.591509   -0.875064
     24          8           0        5.263233    7.120206   -0.845574
     25          6           0        2.936507    7.535289   -1.066536
     26          7           0        7.072936    1.839674    0.034737
     27          6           0        7.249423    3.248997   -0.114549
     28          6           0        8.739709    3.582497   -0.335096
     29          6           0        9.419706    2.227481    0.175311
     30          6           0        8.214670    1.254716    0.264902
     31          6           0        8.959890    3.986904   -1.783443
     32          6           0       10.091693    2.414872    1.600572
     33          6           0        9.377725    2.996615    2.868016
     34          7           0        6.011456   -0.798704    0.338711
     35          6           0        7.368535   -1.130632    0.396073
     36          6           0        7.496798   -2.547111    0.511274
     37          6           0        6.205777   -3.037097    0.591553
     38          6           0        5.312557   -1.958187    0.378355
     39          6           0        8.774659   -3.360737    0.490069
     40          6           0        5.450141   -4.216212    0.747535
     41          8           0        5.859055   -5.332707    0.788955
     42          6           0        3.938101   -3.780000    0.560711
     43          6           0        3.475741   -4.424015   -0.717042
     44          8           0        3.307886   -3.823222   -1.757699
     45          8           0        3.336789   -5.733465   -0.478187
     46          6           0        3.338966   -6.527532   -1.682379
     47          6           0       -2.321234   -3.862046   -0.602091
     48          6           0       -3.736548   -3.501822   -0.705821
     49          6           0       -4.822226   -4.131142   -0.275084
     50          6           0       -4.917129   -5.317667    0.663621
     51          6           0       -6.207078   -3.568360   -0.670137
     52          6           0       -6.625765   -2.304275   -0.036783
     53          6           0       -6.838193   -1.128532   -0.970136
     54          6           0       -8.162921   -0.337932   -0.719256
     55          6           0       -7.983104    0.587629    0.439354
     56          6           0       -8.684367    0.359303   -2.003693
     57          6           0      -10.154209    0.027892   -2.328503
     58          6           0      -11.085257    1.191743   -2.028478
     59          6           0      -12.561577    0.800062   -1.532328
     60          6           0      -13.601022    0.846517   -2.653167
     61          6           0      -12.969689    1.624109   -0.288351
     62          6           0      -11.911385    1.629530    0.900973
     63          6           0      -12.521373    1.744453    2.305505
     64          6           0      -13.039775    3.203013    2.523077
     65          6           0      -12.246574    3.913401    3.667783
     66          6           0      -14.531404    3.324624    2.795041
     67          1           0        0.850815    2.274929   -0.655279
     68          1           0        6.629199    5.138842   -0.653063
     69          1           0        9.417047   -0.490840    0.483209
     70          1           0        1.074947   -2.579451   -0.202593
     71          1           0       -0.000929    0.111182    0.493821
     72          1           0        0.203384    0.078267   -2.326755
     73          1           0       -1.011167   -0.666867   -1.211338
     74          1           0        0.282412   -1.689484   -1.812782
     75          1           0        0.434398   -1.185595    2.311405
     76          1           0        1.922209   -2.031374    2.478903
     77          1           0       -0.434268   -3.128361    2.950082
     78          1           0        0.938868   -4.182777    2.602607
     79          1           0        1.386430    5.540970   -2.003558
     80          1           0        0.861613    5.638599   -0.344873
     81          1           0        0.553755    4.111731   -1.253751
     82          1           0        2.544421    7.345720   -2.066609
     83          1           0        3.358824    8.539299   -1.104404
     84          1           0        2.302566    7.503154   -0.180766
     85          1           0        8.959885    4.353956    0.403364
     86          1           0       10.248184    1.960607   -0.479820
     87          1           0        8.080531    4.442010   -2.239486
     88          1           0        9.241230    3.122375   -2.384291
     89          1           0        9.726910    4.757581   -1.857026
     90          1           0       11.019722    2.968130    1.456115
     91          1           0       10.290818    1.386354    1.901679
     92          1           0        9.495812    4.080246    2.858027
     93          1           0        9.903610    2.561720    3.718771
     94          1           0        8.345948    2.681043    3.026046
     95          1           0        9.450025   -3.089962    1.301850
     96          1           0        9.232294   -3.097444   -0.463310
     97          1           0        8.660077   -4.426646    0.692005
     98          1           0        3.222225   -4.088029    1.322986
     99          1           0        3.750919   -7.527905   -1.551615
    100          1           0        3.685144   -6.124065   -2.633839
    101          1           0        2.339214   -6.759300   -2.050278
    102          1           0       -2.233760   -4.906465   -0.902769
    103          1           0       -1.882148   -3.345845   -1.455652
    104          1           0       -3.901942   -2.838509   -1.554564
    105          1           0       -5.594102   -4.982875    1.449983
    106          1           0       -3.960933   -5.669106    1.052804
    107          1           0       -5.394040   -6.112272    0.090098
    108          1           0       -6.944396   -4.369700   -0.618085
    109          1           0       -6.375487   -3.409532   -1.735199
    110          1           0       -5.868267   -1.965944    0.670587
    111          1           0       -7.572805   -2.548302    0.444607
    112          1           0       -6.670443   -1.337807   -2.027174
    113          1           0       -5.995060   -0.451595   -0.828484
    114          1           0       -8.845470   -1.132188   -0.418092
    115          1           0       -8.810592    0.355190    1.109575
    116          1           0       -8.054177    1.636197    0.150072
    117          1           0       -7.068484    0.469742    1.021270
    118          1           0       -8.105415   -0.008891   -2.850397
    119          1           0       -8.362526    1.400930   -1.973743
    120          1           0      -10.355098   -0.829167   -1.685866
    121          1           0      -10.213912   -0.269318   -3.376086
    122          1           0      -11.114269    1.806502   -2.928421
    123          1           0      -10.627490    1.904596   -1.343617
    124          1           0      -12.443767   -0.185287   -1.082310
    125          1           0      -14.284989    1.685197   -2.517581
    126          1           0      -14.208753   -0.035312   -2.453881
    127          1           0      -13.260686    0.883479   -3.688896
    128          1           0      -13.980142    1.414848    0.060786
    129          1           0      -12.958168    2.586850   -0.799322
    130          1           0      -11.221704    2.461258    0.759853
    131          1           0      -11.334290    0.709990    0.803896
    132          1           0      -11.822182    1.459139    3.091047
    133          1           0      -13.421655    1.151139    2.467814
    134          1           0      -12.993973    3.741713    1.575776
    135          1           0      -12.826406    4.014119    4.585993
    136          1           0      -12.198697    4.953514    3.344658
    137          1           0      -11.330928    3.362578    3.882853
    138          1           0      -14.759961    4.094274    3.532068
    139          1           0      -15.081247    2.467229    3.182347
    140          1           0      -14.981896    3.716499    1.882998
 ---------------------------------------------------------------------

 SCF Done:  E(RZINDO/S) =  -474.253583995     A.U. after   19 cycles

 Excitation energies and oscillator strengths:

 Excited State   1:      Singlet-A      1.2579 eV  985.68 nm  f=0.5694  <S**2>=0.000
     175 ->178         0.17839
     176 ->177         0.66695
 This state for optimization and/or second-order correction.
 Total Energy, E(CIS/TDA) =  -474.207358651
 Copying the excited state density for this state as the 1-particle RhoCI density.

 Excited State   2:      Singlet-A      1.9213 eV  645.31 nm  f=0.0609  <S**2>=0.000
     175 ->177         0.55608
     176 ->178        -0.40223

 Excited State   3:      Singlet-A      2.8598 eV  433.54 nm  f=0.0116  <S**2>=0.000
     168 ->177        -0.34918
     168 ->178         0.16164
     168 ->179         0.36773
     168 ->181        -0.15074
     168 ->186         0.15990
     171 ->177         0.19435
     171 ->179        -0.13008

 Excited State   4:      Singlet-A      2.9741 eV  416.88 nm  f=1.0130  <S**2>=0.000
     171 ->177        -0.13314
     173 ->177        -0.12157
     175 ->177         0.35828
     176 ->178         0.53460
     176 ->179         0.13420

 Excited State   5:      Singlet-A      3.0326 eV  408.84 nm  f=0.0965  <S**2>=0.000
     169 ->179        -0.12407
     169 ->181        -0.15968
     170 ->181        -0.15273
     176 ->179         0.50134
     176 ->181         0.26725

 The electronic state is 1-A.
 Alpha  occ. eigenvalues --   -1.85513  -1.79451  -1.77530  -1.74562  -1.70892
 Alpha  occ. eigenvalues --   -1.68468  -1.66358  -1.61919  -1.60103  -1.55988
 Alpha  occ. eigenvalues --   -1.55324  -1.52020  -1.51744  -1.47103  -1.44424
 Alpha  occ. eigenvalues --   -1.43585  -1.42625  -1.40977  -1.39024  -1.37709
 Alpha  occ. eigenvalues --   -1.36135  -1.33757  -1.32627  -1.31202  -1.29153
 Alpha  occ. eigenvalues --   -1.27824  -1.24924  -1.23599  -1.20010  -1.18170
 Alpha  occ. eigenvalues --   -1.17078  -1.15219  -1.15022  -1.14980  -1.13623
 Alpha  occ. eigenvalues --   -1.12295  -1.10838  -1.09540  -1.05207  -1.03721
 Alpha  occ. eigenvalues --   -1.02669  -1.01315  -0.97868  -0.97728  -0.96029
 Alpha  occ. eigenvalues --   -0.95278  -0.95170  -0.94253  -0.93957  -0.92568
 Alpha  occ. eigenvalues --   -0.90848  -0.90151  -0.90053  -0.87128  -0.86544
 Alpha  occ. eigenvalues --   -0.85498  -0.85432  -0.83601  -0.81320  -0.80076
 Alpha  occ. eigenvalues --   -0.79372  -0.78540  -0.77240  -0.76712  -0.76580
 Alpha  occ. eigenvalues --   -0.76006  -0.75460  -0.75269  -0.73869  -0.73267
 Alpha  occ. eigenvalues --   -0.72992  -0.72371  -0.71931  -0.71199  -0.70611
 Alpha  occ. eigenvalues --   -0.69667  -0.69029  -0.68326  -0.68249  -0.67499
 Alpha  occ. eigenvalues --   -0.66828  -0.66654  -0.66531  -0.66250  -0.65686
 Alpha  occ. eigenvalues --   -0.64801  -0.64459  -0.64122  -0.63829  -0.63548
 Alpha  occ. eigenvalues --   -0.63431  -0.62319  -0.62217  -0.61467  -0.61223
 Alpha  occ. eigenvalues --   -0.60638  -0.60452  -0.60362  -0.59793  -0.59540
 Alpha  occ. eigenvalues --   -0.59410  -0.59341  -0.59036  -0.58647  -0.58451
 Alpha  occ. eigenvalues --   -0.57916  -0.57445  -0.57024  -0.56824  -0.56681
 Alpha  occ. eigenvalues --   -0.56337  -0.55320  -0.55265  -0.55216  -0.54709
 Alpha  occ. eigenvalues --   -0.54298  -0.53609  -0.53519  -0.53051  -0.52871
 Alpha  occ. eigenvalues --   -0.52716  -0.52645  -0.51700  -0.51608  -0.51409
 Alpha  occ. eigenvalues --   -0.51112  -0.50708  -0.50362  -0.50098  -0.50070
 Alpha  occ. eigenvalues --   -0.49570  -0.49409  -0.49223  -0.48833  -0.48723
 Alpha  occ. eigenvalues --   -0.48407  -0.48091  -0.47688  -0.47612  -0.47363
 Alpha  occ. eigenvalues --   -0.46900  -0.46640  -0.46415  -0.46187  -0.46014
 Alpha  occ. eigenvalues --   -0.45856  -0.45664  -0.45251  -0.45157  -0.45150
 Alpha  occ. eigenvalues --   -0.44724  -0.44549  -0.44345  -0.44280  -0.43720
 Alpha  occ. eigenvalues --   -0.43627  -0.42888  -0.42656  -0.42483  -0.42109
 Alpha  occ. eigenvalues --   -0.41781  -0.41684  -0.41312  -0.39635  -0.38288
 Alpha  occ. eigenvalues --   -0.38179  -0.37047  -0.35570  -0.34413  -0.34177
 Alpha  occ. eigenvalues --   -0.33565  -0.33015  -0.32290  -0.31975  -0.26330
 Alpha  occ. eigenvalues --   -0.21522
 Alpha virt. eigenvalues --   -0.08244  -0.01656  -0.00367   0.00947   0.01635
 Alpha virt. eigenvalues --    0.02579   0.03368   0.03424   0.04558   0.05258
 Alpha virt. eigenvalues --    0.06730   0.07099   0.07454   0.08098   0.08283

 Mulliken charges:
               1
     1  Mg   0.423681
     2  C   -0.057533
     3  C   -0.059573
     4  C   -0.050314
     5  C   -0.087639
     6  N   -0.267438
     7  C    0.165050
     8  C   -0.002302
     9  C   -0.007276
    10  C    0.086763
    11  C   -0.057117
    12  C   -0.027076
    13  C    0.010778
    14  C    0.463197
    15  O   -0.517948
    16  O   -0.271507
    17  N   -0.311443
    18  C    0.058428
    19  C   -0.008868
    20  C   -0.064815
    21  C    0.122751
    22  C   -0.048947
    23  C    0.316608
    24  O   -0.535337
    25  C   -0.036207
    26  N   -0.268247
    27  C    0.096172
    28  C   -0.000584
    29  C   -0.001819
    30  C    0.178865
    31  C   -0.042170
    32  C   -0.036422
    33  C   -0.053761
    34  N   -0.332772
    35  C    0.121092
    36  C    0.054519
    37  C   -0.040086
    38  C    0.117874
    39  C   -0.039761
    40  C    0.340691
    41  O   -0.498894
    42  C    0.052143
    43  C    0.499328
    44  O   -0.525413
    45  O   -0.233795
    46  C    0.068607
    47  C    0.107664
    48  C   -0.093208
    49  C    0.013695
    50  C   -0.039432
    51  C   -0.027449
    52  C   -0.018307
    53  C   -0.039490
    54  C   -0.008797
    55  C   -0.051512
    56  C   -0.038246
    57  C   -0.028579
    58  C   -0.039143
    59  C   -0.012200
    60  C   -0.053764
    61  C   -0.042623
    62  C   -0.032111
    63  C   -0.034186
    64  C   -0.017546
    65  C   -0.062776
    66  C   -0.059244
    67  H    0.022167
    68  H    0.045062
    69  H    0.024779
    70  H    0.059794
    71  H    0.031245
    72  H    0.035208
    73  H    0.015343
    74  H    0.034885
    75  H    0.030249
    76  H    0.022068
    77  H    0.036617
    78  H    0.045482
    79  H    0.028824
    80  H    0.025273
    81  H    0.029132
    82  H    0.045632
    83  H    0.027305
    84  H    0.043986
    85  H    0.033731
    86  H    0.035299
    87  H    0.030132
    88  H    0.021522
    89  H    0.016095
    90  H    0.020757
    91  H    0.009832
    92  H    0.025194
    93  H    0.015191
    94  H    0.027963
    95  H    0.024147
    96  H    0.037711
    97  H    0.039361
    98  H    0.053760
    99  H    0.034596
   100  H    0.049565
   101  H    0.028393
   102  H    0.056525
   103  H    0.027135
   104  H    0.020551
   105  H    0.028989
   106  H    0.028483
   107  H    0.032250
   108  H    0.009149
   109  H    0.018158
   110  H    0.022203
   111  H    0.018183
   112  H    0.017746
   113  H    0.005621
   114  H    0.019434
   115  H    0.010575
   116  H    0.018918
   117  H    0.018875
   118  H    0.005785
   119  H    0.023816
   120  H    0.022856
   121  H    0.021316
   122  H    0.012307
   123  H    0.019295
   124  H    0.015148
   125  H    0.016822
   126  H    0.014293
   127  H    0.027957
   128  H    0.026313
   129  H    0.014254
   130  H    0.022695
   131  H    0.013865
   132  H    0.020273
   133  H    0.018887
   134  H    0.023768
   135  H    0.017860
   136  H    0.019413
   137  H    0.027081
   138  H    0.008759
   139  H    0.022311
   140  H    0.011607
 Sum of Mulliken charges =  -0.00000

 Dipole moment (field-independent basis, Debye):
    X=             -4.6283    Y=             -0.8667    Z=              3.3327  Tot=              5.7689
 N-N= 4.343147033852D+03 E-N= 0.000000000000D+00  KE=-9.361125518387D+03
 Leave Link  601 at Wed May  4 18:53:48 2022, MaxMem=  6710886400 cpu:               0.8 elap:               0.0
 (Enter /sw/apps/gaussian-16.0/g16/l9999.exe)
 1\1\GINC-BP1-COMPUTE164\SP\RZINDO CIS\STO-3G\C55H74Mg1N4O6\OF15641\04-
 May-2022\0\\#p ZINDO=(nstates=5)\\step_251_chromophore_24 ZINDO\\0,1\M
 g,0,-0.437,44.186,24.825\C,0,1.434,43.801,27.727\C,0,-3.182,43.128,26.
 591\C,0,-2.256,44.31,21.894\C,0,2.466,44.703,22.966\N,0,-0.821,43.638,
 26.941\C,0,0.041,43.653,27.972\C,0,-0.601,43.417,29.359\C,0,-2.064,42.
 961,28.94\C,0,-2.049,43.21,27.356\C,0,-2.282,41.47,29.382\C,0,-0.536,4
 4.82,30.155\C,0,0.124,44.79,31.565\C,0,0.166,43.363,32.222\O,0,1.156,4

 Normal termination of Gaussian 16 at Wed May  4 18:53:48 2022.
