 Gaussian 16, Revision A.03,
 Gaussian 16:  ES64L-G16RevA.03 25-Dec-2016

 ------------------------------
 #p blyp/Def2SVP td=(nstates=5)
 ------------------------------

 ------------------------------------------------
 step_51_chromophore_3 TDDFT with blyp functional
 ------------------------------------------------
 Symbolic Z-matrix:
 Charge =  0 Multiplicity = 1

                         Standard orientation:
 ---------------------------------------------------------------------
 Center     Atomic      Atomic             Coordinates (Angstroms)
 Number     Number       Type             X           Y           Z
 ---------------------------------------------------------------------
      1         12           0       -5.327253    0.648971    0.046988
      2          6           0       -3.972002   -2.543344   -0.199900
      3          6           0       -2.119575    1.885422    0.272667
      4          6           0       -6.520017    3.848907    0.521556
      5          6           0       -8.449277   -0.693141    0.508630
      6          7           0       -3.323884   -0.155098    0.227861
      7          6           0       -3.004615   -1.500883   -0.069289
      8          6           0       -1.527544   -1.644262   -0.270882
      9          6           0       -0.946840   -0.271469    0.139814
     10          6           0       -2.171833    0.538498    0.268174
     11          6           0       -0.116286   -0.215600    1.435799
     12          6           0       -1.108965   -2.169924   -1.717600
     13          6           0       -0.217091   -3.394562   -1.696259
     14          6           0        1.100046   -3.308617   -0.915858
     15          8           0        1.365953   -3.824002    0.150811
     16          8           0        1.951604   -2.338504   -1.538754
     17          7           0       -4.440459    2.654191    0.168885
     18          6           0       -3.070656    2.887361    0.195570
     19          6           0       -2.857782    4.346955    0.192724
     20          6           0       -4.191518    4.940314    0.288631
     21          6           0       -5.107535    3.798679    0.398367
     22          6           0       -1.446196    4.986083    0.212105
     23          6           0       -4.569568    6.444313    0.405481
     24          8           0       -5.713871    6.798388    0.559940
     25          6           0       -3.577259    7.618607    0.318416
     26          7           0       -7.200425    1.491126    0.325219
     27          6           0       -7.484710    2.808507    0.464793
     28          6           0       -8.944895    3.030330    0.664568
     29          6           0       -9.553498    1.643325    0.275910
     30          6           0       -8.367115    0.708856    0.433986
     31          6           0       -9.273898    3.511053    2.129139
     32          6           0      -10.366569    1.440415   -1.100117
     33          6           0      -11.836485    0.993178   -0.853240
     34          7           0       -6.123639   -1.261346    0.175117
     35          6           0       -7.428939   -1.648720    0.389931
     36          6           0       -7.456821   -3.082819    0.303541
     37          6           0       -6.106382   -3.449560    0.076660
     38          6           0       -5.366056   -2.323660   -0.029911
     39          6           0       -8.703436   -3.941640    0.462006
     40          6           0       -5.260440   -4.641243   -0.093219
     41          8           0       -5.438330   -5.788213   -0.021904
     42          6           0       -3.753338   -4.097684   -0.314852
     43          6           0       -2.919808   -4.691238    0.714620
     44          8           0       -2.995960   -4.461094    1.921234
     45          8           0       -2.124407   -5.695036    0.217309
     46          6           0       -1.180358   -6.471841    1.031745
     47          6           0        3.265937   -2.142426   -0.864036
     48          6           0        4.222562   -1.510061   -1.816717
     49          6           0        5.560379   -1.793804   -1.931544
     50          6           0        6.305153   -2.910491   -1.178770
     51          6           0        6.322047   -0.912902   -2.881410
     52          6           0        6.931771    0.312335   -2.146020
     53          6           0        7.364360    1.438366   -3.102479
     54          6           0        8.830860    1.125520   -3.703220
     55          6           0        8.738011    1.597894   -5.125735
     56          6           0        9.905387    1.965648   -2.853136
     57          6           0       10.657321    1.057057   -1.848333
     58          6           0       10.201428    1.304233   -0.388309
     59          6           0       11.185933    2.106749    0.471890
     60          6           0       11.523830    3.523210    0.068235
     61          6           0       12.429353    1.294540    0.727834
     62          6           0       12.910678    1.234207    2.203935
     63          6           0       12.557421   -0.111674    2.827825
     64          6           0       12.567876   -0.186546    4.324325
     65          6           0       13.794113   -1.036852    4.831391
     66          6           0       11.170254   -0.652044    4.883411
     67          1           0       -1.085149    2.228624    0.206330
     68          1           0       -7.023134    4.808939    0.650433
     69          1           0       -9.435677   -1.161360    0.536542
     70          1           0       -1.302242   -2.348489    0.531441
     71          1           0       -0.359543    0.172837   -0.664284
     72          1           0       -0.636826    0.255107    2.269634
     73          1           0        0.780182    0.311994    1.107985
     74          1           0        0.167525   -1.250313    1.626291
     75          1           0       -0.786774   -1.281131   -2.259891
     76          1           0       -1.908720   -2.565288   -2.344670
     77          1           0       -0.002771   -3.597938   -2.745499
     78          1           0       -0.875197   -4.163466   -1.292636
     79          1           0       -1.378878    5.795490    0.939225
     80          1           0       -1.256905    5.416678   -0.771723
     81          1           0       -0.691078    4.216753    0.369954
     82          1           0       -4.135074    8.521201    0.068429
     83          1           0       -2.860755    7.426585   -0.479945
     84          1           0       -3.065613    7.884892    1.243317
     85          1           0       -9.285196    3.714227   -0.112856
     86          1           0      -10.266060    1.311667    1.030599
     87          1           0       -9.581376    4.543750    1.964605
     88          1           0       -8.354376    3.429115    2.709793
     89          1           0      -10.038663    2.897133    2.603500
     90          1           0       -9.853298    0.760683   -1.780143
     91          1           0      -10.507663    2.392384   -1.610752
     92          1           0      -12.310406    1.692145   -0.163039
     93          1           0      -11.872209   -0.052945   -0.549891
     94          1           0      -12.356481    1.042685   -1.809996
     95          1           0       -9.606239   -3.337006    0.371637
     96          1           0       -8.619059   -4.487764    1.401648
     97          1           0       -8.723246   -4.594853   -0.409992
     98          1           0       -3.324708   -4.408252   -1.268089
     99          1           0       -1.704800   -7.121355    1.733439
    100          1           0       -0.592072   -5.791576    1.647702
    101          1           0       -0.701362   -7.203330    0.380359
    102          1           0        3.568014   -3.188476   -0.804433
    103          1           0        3.221002   -1.714908    0.137927
    104          1           0        3.700486   -0.749395   -2.397949
    105          1           0        6.679061   -2.538736   -0.224368
    106          1           0        7.164638   -3.259339   -1.751232
    107          1           0        5.638658   -3.762926   -1.049863
    108          1           0        5.581580   -0.719058   -3.656329
    109          1           0        7.146796   -1.393604   -3.409222
    110          1           0        7.810828   -0.152890   -1.700182
    111          1           0        6.318883    0.626317   -1.300420
    112          1           0        7.225081    2.417696   -2.643488
    113          1           0        6.611368    1.427967   -3.890197
    114          1           0        8.985807    0.049726   -3.618773
    115          1           0        7.766176    1.928289   -5.492507
    116          1           0        9.195141    0.914629   -5.840542
    117          1           0        9.313451    2.514974   -5.254398
    118          1           0        9.324920    2.751148   -2.369433
    119          1           0       10.621117    2.470276   -3.502162
    120          1           0       11.711162    1.336590   -1.866626
    121          1           0       10.579801   -0.013262   -2.042989
    122          1           0        9.968642    0.388607    0.154977
    123          1           0        9.251025    1.816040   -0.234655
    124          1           0       10.698796    2.230704    1.438495
    125          1           0       12.176715    3.920248    0.845604
    126          1           0       10.655193    4.164546   -0.082131
    127          1           0       12.118436    3.597876   -0.842511
    128          1           0       13.292953    1.718703    0.214161
    129          1           0       12.219512    0.311417    0.306776
    130          1           0       12.706820    2.092020    2.844630
    131          1           0       13.984499    1.170915    2.031377
    132          1           0       13.271663   -0.832262    2.428374
    133          1           0       11.562858   -0.378786    2.471005
    134          1           0       12.720169    0.823144    4.706996
    135          1           0       13.589521   -2.005287    4.375038
    136          1           0       13.745874   -1.178994    5.911219
    137          1           0       14.803634   -0.659598    4.666864
    138          1           0       11.200924   -1.524127    5.537690
    139          1           0       10.433095   -0.945299    4.136390
    140          1           0       10.771037    0.203883    5.427855
 ---------------------------------------------------------------------

 SCF Done:  E(RB-LYP) =  -3007.38422170     A.U. after   20 cycles

 Excitation energies and oscillator strengths:

 Excited State   1:      Singlet-A      1.8138 eV  683.56 nm  f=0.3124  <S**2>=0.000
     245 -> 248       -0.17928
     246 -> 247        0.69302
     246 <- 247       -0.15132
 This state for optimization and/or second-order correction.
 Total Energy, E(TD-HF/TD-DFT) =  -3007.31756558
 Copying the excited state density for this state as the 1-particle RhoCI density.

 Excited State   2:      Singlet-A      1.9406 eV  638.89 nm  f=0.0019  <S**2>=0.000
     244 -> 247        0.70492

 Excited State   3:      Singlet-A      2.0136 eV  615.74 nm  f=0.0749  <S**2>=0.000
     243 -> 247        0.21646
     245 -> 247        0.62449
     246 -> 248        0.20756

 Excited State   4:      Singlet-A      2.1059 eV  588.75 nm  f=0.0086  <S**2>=0.000
     243 -> 247        0.67202
     245 -> 247       -0.19177

 Excited State   5:      Singlet-A      2.3910 eV  518.55 nm  f=0.0003  <S**2>=0.000
     241 -> 247        0.70455

 The electronic state is 1-A.
 Alpha  occ. eigenvalues --  -46.26379 -18.81428 -18.81015 -18.78219 -18.76214
 Alpha  occ. eigenvalues --  -18.75456 -18.75230 -14.03047 -14.02676 -14.00487
 Alpha  occ. eigenvalues --  -13.99892 -10.04628 -10.02909 -10.00086  -9.99753
 Alpha  occ. eigenvalues --   -9.97513  -9.97178  -9.96546  -9.96303  -9.96022
 Alpha  occ. eigenvalues --   -9.95667  -9.95487  -9.95457  -9.94757  -9.94543
 Alpha  occ. eigenvalues --   -9.94061  -9.93957  -9.93925  -9.93738  -9.93697
 Alpha  occ. eigenvalues --   -9.93605  -9.93576  -9.93491  -9.93475  -9.93423
 Alpha  occ. eigenvalues --   -9.93342  -9.93199  -9.93103  -9.93059  -9.92924
 Alpha  occ. eigenvalues --   -9.92809  -9.92743  -9.92372  -9.92317  -9.92302
 Alpha  occ. eigenvalues --   -9.92129  -9.92094  -9.91980  -9.91884  -9.91864
 Alpha  occ. eigenvalues --   -9.91853  -9.91846  -9.91734  -9.91683  -9.91652
 Alpha  occ. eigenvalues --   -9.91512  -9.91106  -9.91068  -9.91036  -9.90920
 Alpha  occ. eigenvalues --   -9.90863  -9.90856  -9.90561  -9.90473  -9.90395
 Alpha  occ. eigenvalues --   -9.90334  -2.91015  -1.71456  -1.70853  -1.70755
 Alpha  occ. eigenvalues --   -0.96739  -0.96338  -0.94744  -0.92346  -0.89747
 Alpha  occ. eigenvalues --   -0.88091  -0.86686  -0.85855  -0.85213  -0.84331
 Alpha  occ. eigenvalues --   -0.74719  -0.73892  -0.73569  -0.73101  -0.71966
 Alpha  occ. eigenvalues --   -0.71822  -0.71196  -0.71105  -0.70819  -0.69811
 Alpha  occ. eigenvalues --   -0.69351  -0.68867  -0.67927  -0.67636  -0.66946
 Alpha  occ. eigenvalues --   -0.66540  -0.65591  -0.64975  -0.64778  -0.64355
 Alpha  occ. eigenvalues --   -0.64004  -0.62298  -0.62250  -0.61499  -0.60864
 Alpha  occ. eigenvalues --   -0.60596  -0.60214  -0.60154  -0.59828  -0.58825
 Alpha  occ. eigenvalues --   -0.57968  -0.57361  -0.56914  -0.55568  -0.54247
 Alpha  occ. eigenvalues --   -0.54144  -0.53680  -0.52436  -0.52369  -0.51988
 Alpha  occ. eigenvalues --   -0.51209  -0.50887  -0.50497  -0.50402  -0.50302
 Alpha  occ. eigenvalues --   -0.49307  -0.49262  -0.47943  -0.47520  -0.47056
 Alpha  occ. eigenvalues --   -0.46125  -0.45910  -0.45428  -0.44974  -0.44323
 Alpha  occ. eigenvalues --   -0.43685  -0.42973  -0.42840  -0.42599  -0.42186
 Alpha  occ. eigenvalues --   -0.41635  -0.41507  -0.41213  -0.41168  -0.41041
 Alpha  occ. eigenvalues --   -0.41029  -0.40628  -0.40344  -0.40211  -0.39642
 Alpha  occ. eigenvalues --   -0.39567  -0.39367  -0.39235  -0.39175  -0.38990
 Alpha  occ. eigenvalues --   -0.38746  -0.38681  -0.38431  -0.38348  -0.38212
 Alpha  occ. eigenvalues --   -0.38194  -0.37997  -0.37813  -0.37274  -0.37177
 Alpha  occ. eigenvalues --   -0.37076  -0.36847  -0.36647  -0.36544  -0.36476
 Alpha  occ. eigenvalues --   -0.36289  -0.36262  -0.36118  -0.35824  -0.35777
 Alpha  occ. eigenvalues --   -0.35488  -0.35440  -0.34959  -0.34924  -0.34778
 Alpha  occ. eigenvalues --   -0.34629  -0.34363  -0.34121  -0.33984  -0.33708
 Alpha  occ. eigenvalues --   -0.33585  -0.33534  -0.33490  -0.33397  -0.33153
 Alpha  occ. eigenvalues --   -0.32887  -0.32790  -0.32702  -0.32613  -0.32576
 Alpha  occ. eigenvalues --   -0.32410  -0.32107  -0.31935  -0.31808  -0.31736
 Alpha  occ. eigenvalues --   -0.31633  -0.31330  -0.31206  -0.30978  -0.30630
 Alpha  occ. eigenvalues --   -0.30507  -0.30412  -0.30323  -0.29821  -0.29749
 Alpha  occ. eigenvalues --   -0.29358  -0.29249  -0.29246  -0.29147  -0.28988
 Alpha  occ. eigenvalues --   -0.28731  -0.28645  -0.28448  -0.28254  -0.27996
 Alpha  occ. eigenvalues --   -0.27724  -0.27337  -0.27245  -0.26616  -0.26480
 Alpha  occ. eigenvalues --   -0.26244  -0.25985  -0.25769  -0.25448  -0.25127
 Alpha  occ. eigenvalues --   -0.24991  -0.24716  -0.23948  -0.23817  -0.23733
 Alpha  occ. eigenvalues --   -0.23096  -0.22659  -0.21546  -0.20411  -0.20217
 Alpha  occ. eigenvalues --   -0.20198  -0.19940  -0.19043  -0.18447  -0.17038
 Alpha  occ. eigenvalues --   -0.15688
 Alpha virt. eigenvalues --   -0.11411  -0.06410  -0.05446  -0.04233  -0.03869
 Alpha virt. eigenvalues --   -0.02613  -0.02379  -0.02074  -0.00915   0.00233
 Alpha virt. eigenvalues --    0.01254   0.01917   0.02046   0.02298   0.02984

 Mulliken charges:
               1
     1  Mg   0.682323
     2  C   -0.020455
     3  C   -0.051256
     4  C   -0.032737
     5  C   -0.059567
     6  N   -0.226902
     7  C   -0.081242
     8  C    0.073298
     9  C   -0.040862
    10  C   -0.002341
    11  C    0.149050
    12  C    0.130000
    13  C    0.132617
    14  C    0.109625
    15  O   -0.176293
    16  O   -0.339937
    17  N   -0.247847
    18  C    0.140880
    19  C   -0.138978
    20  C    0.023341
    21  C    0.108006
    22  C    0.160885
    23  C   -0.060550
    24  O   -0.153451
    25  C    0.111686
    26  N   -0.260452
    27  C   -0.005392
    28  C    0.010393
    29  C    0.027370
    30  C    0.044308
    31  C    0.141427
    32  C    0.095832
    33  C    0.040395
    34  N   -0.256499
    35  C    0.091017
    36  C   -0.189859
    37  C    0.058990
    38  C    0.091279
    39  C    0.184515
    40  C   -0.054027
    41  O   -0.051378
    42  C    0.051905
    43  C    0.098918
    44  O   -0.198161
    45  O   -0.286600
    46  C    0.235727
    47  C    0.318981
    48  C   -0.115950
    49  C   -0.151661
    50  C    0.150894
    51  C    0.117653
    52  C    0.060974
    53  C    0.112817
    54  C   -0.093301
    55  C    0.129828
    56  C    0.136393
    57  C    0.097567
    58  C    0.069534
    59  C   -0.050800
    60  C    0.113248
    61  C    0.087366
    62  C    0.087991
    63  C    0.092525
    64  C   -0.064949
    65  C    0.081709
    66  C    0.086719
    67  H   -0.084168
    68  H   -0.052636
    69  H   -0.070929
    70  H   -0.010700
    71  H   -0.020519
    72  H    0.013442
    73  H   -0.010172
    74  H    0.003928
    75  H   -0.021260
    76  H   -0.016949
    77  H   -0.006333
    78  H    0.003887
    79  H    0.008433
    80  H    0.006425
    81  H   -0.010142
    82  H   -0.007835
    83  H   -0.009043
    84  H    0.015027
    85  H   -0.024691
    86  H   -0.039132
    87  H    0.011769
    88  H    0.006184
    89  H   -0.002222
    90  H   -0.011840
    91  H   -0.023938
    92  H    0.003400
    93  H   -0.000950
    94  H   -0.013029
    95  H   -0.023259
    96  H    0.024566
    97  H    0.002164
    98  H   -0.016282
    99  H    0.002795
   100  H    0.028650
   101  H    0.016042
   102  H   -0.019360
   103  H    0.019222
   104  H   -0.032052
   105  H    0.011523
   106  H   -0.013097
   107  H    0.000100
   108  H   -0.023389
   109  H   -0.039781
   110  H   -0.031341
   111  H   -0.034874
   112  H   -0.030283
   113  H   -0.037488
   114  H   -0.023726
   115  H   -0.019756
   116  H   -0.020071
   117  H   -0.036778
   118  H   -0.025882
   119  H   -0.032470
   120  H   -0.024049
   121  H   -0.024674
   122  H   -0.046046
   123  H   -0.043277
   124  H   -0.054993
   125  H   -0.021340
   126  H   -0.018716
   127  H   -0.025741
   128  H   -0.045670
   129  H   -0.036305
   130  H   -0.021001
   131  H   -0.046025
   132  H   -0.037232
   133  H   -0.035160
   134  H   -0.039015
   135  H   -0.012193
   136  H   -0.022658
   137  H   -0.005401
   138  H   -0.020451
   139  H   -0.018031
   140  H   -0.009739
 Sum of Mulliken charges =  -0.00000

 Dipole moment (field-independent basis, Debye):
    X=              3.4805    Y=              2.5269    Z=             -3.0967  Tot=              5.2999
 Quadrupole moment (field-independent basis, Debye-Ang):
   XX=           -367.9890   YY=           -431.4927   ZZ=           -407.6906
   XY=             -6.8598   XZ=              8.8330   YZ=              8.0369

 Normal termination of Gaussian 16 at Thu May  5 03:19:27 2022.
