 Gaussian 16, Revision A.03,
 Gaussian 16:  ES64L-G16RevA.03 25-Dec-2016

 -----------------------------------
 #p cam-b3lyp/Def2SVP td=(nstates=5)
 -----------------------------------

 -----------------------------------------------------
 step_51_chromophore_3 TDDFT with cam-b3lyp functional
 -----------------------------------------------------
 Symbolic Z-matrix:
 Charge =  0 Multiplicity = 1

                         Standard orientation:
 ---------------------------------------------------------------------
 Center     Atomic      Atomic             Coordinates (Angstroms)
 Number     Number       Type             X           Y           Z
 ---------------------------------------------------------------------
      1         12           0       -5.327253    0.648971    0.046988
      2          6           0       -3.972002   -2.543344   -0.199900
      3          6           0       -2.119575    1.885422    0.272667
      4          6           0       -6.520017    3.848907    0.521556
      5          6           0       -8.449277   -0.693141    0.508630
      6          7           0       -3.323884   -0.155098    0.227861
      7          6           0       -3.004615   -1.500883   -0.069289
      8          6           0       -1.527544   -1.644262   -0.270882
      9          6           0       -0.946840   -0.271469    0.139814
     10          6           0       -2.171833    0.538498    0.268174
     11          6           0       -0.116286   -0.215600    1.435799
     12          6           0       -1.108965   -2.169924   -1.717600
     13          6           0       -0.217091   -3.394562   -1.696259
     14          6           0        1.100046   -3.308617   -0.915858
     15          8           0        1.365953   -3.824002    0.150811
     16          8           0        1.951604   -2.338504   -1.538754
     17          7           0       -4.440459    2.654191    0.168885
     18          6           0       -3.070656    2.887361    0.195570
     19          6           0       -2.857782    4.346955    0.192724
     20          6           0       -4.191518    4.940314    0.288631
     21          6           0       -5.107535    3.798679    0.398367
     22          6           0       -1.446196    4.986083    0.212105
     23          6           0       -4.569568    6.444313    0.405481
     24          8           0       -5.713871    6.798388    0.559940
     25          6           0       -3.577259    7.618607    0.318416
     26          7           0       -7.200425    1.491126    0.325219
     27          6           0       -7.484710    2.808507    0.464793
     28          6           0       -8.944895    3.030330    0.664568
     29          6           0       -9.553498    1.643325    0.275910
     30          6           0       -8.367115    0.708856    0.433986
     31          6           0       -9.273898    3.511053    2.129139
     32          6           0      -10.366569    1.440415   -1.100117
     33          6           0      -11.836485    0.993178   -0.853240
     34          7           0       -6.123639   -1.261346    0.175117
     35          6           0       -7.428939   -1.648720    0.389931
     36          6           0       -7.456821   -3.082819    0.303541
     37          6           0       -6.106382   -3.449560    0.076660
     38          6           0       -5.366056   -2.323660   -0.029911
     39          6           0       -8.703436   -3.941640    0.462006
     40          6           0       -5.260440   -4.641243   -0.093219
     41          8           0       -5.438330   -5.788213   -0.021904
     42          6           0       -3.753338   -4.097684   -0.314852
     43          6           0       -2.919808   -4.691238    0.714620
     44          8           0       -2.995960   -4.461094    1.921234
     45          8           0       -2.124407   -5.695036    0.217309
     46          6           0       -1.180358   -6.471841    1.031745
     47          6           0        3.265937   -2.142426   -0.864036
     48          6           0        4.222562   -1.510061   -1.816717
     49          6           0        5.560379   -1.793804   -1.931544
     50          6           0        6.305153   -2.910491   -1.178770
     51          6           0        6.322047   -0.912902   -2.881410
     52          6           0        6.931771    0.312335   -2.146020
     53          6           0        7.364360    1.438366   -3.102479
     54          6           0        8.830860    1.125520   -3.703220
     55          6           0        8.738011    1.597894   -5.125735
     56          6           0        9.905387    1.965648   -2.853136
     57          6           0       10.657321    1.057057   -1.848333
     58          6           0       10.201428    1.304233   -0.388309
     59          6           0       11.185933    2.106749    0.471890
     60          6           0       11.523830    3.523210    0.068235
     61          6           0       12.429353    1.294540    0.727834
     62          6           0       12.910678    1.234207    2.203935
     63          6           0       12.557421   -0.111674    2.827825
     64          6           0       12.567876   -0.186546    4.324325
     65          6           0       13.794113   -1.036852    4.831391
     66          6           0       11.170254   -0.652044    4.883411
     67          1           0       -1.085149    2.228624    0.206330
     68          1           0       -7.023134    4.808939    0.650433
     69          1           0       -9.435677   -1.161360    0.536542
     70          1           0       -1.302242   -2.348489    0.531441
     71          1           0       -0.359543    0.172837   -0.664284
     72          1           0       -0.636826    0.255107    2.269634
     73          1           0        0.780182    0.311994    1.107985
     74          1           0        0.167525   -1.250313    1.626291
     75          1           0       -0.786774   -1.281131   -2.259891
     76          1           0       -1.908720   -2.565288   -2.344670
     77          1           0       -0.002771   -3.597938   -2.745499
     78          1           0       -0.875197   -4.163466   -1.292636
     79          1           0       -1.378878    5.795490    0.939225
     80          1           0       -1.256905    5.416678   -0.771723
     81          1           0       -0.691078    4.216753    0.369954
     82          1           0       -4.135074    8.521201    0.068429
     83          1           0       -2.860755    7.426585   -0.479945
     84          1           0       -3.065613    7.884892    1.243317
     85          1           0       -9.285196    3.714227   -0.112856
     86          1           0      -10.266060    1.311667    1.030599
     87          1           0       -9.581376    4.543750    1.964605
     88          1           0       -8.354376    3.429115    2.709793
     89          1           0      -10.038663    2.897133    2.603500
     90          1           0       -9.853298    0.760683   -1.780143
     91          1           0      -10.507663    2.392384   -1.610752
     92          1           0      -12.310406    1.692145   -0.163039
     93          1           0      -11.872209   -0.052945   -0.549891
     94          1           0      -12.356481    1.042685   -1.809996
     95          1           0       -9.606239   -3.337006    0.371637
     96          1           0       -8.619059   -4.487764    1.401648
     97          1           0       -8.723246   -4.594853   -0.409992
     98          1           0       -3.324708   -4.408252   -1.268089
     99          1           0       -1.704800   -7.121355    1.733439
    100          1           0       -0.592072   -5.791576    1.647702
    101          1           0       -0.701362   -7.203330    0.380359
    102          1           0        3.568014   -3.188476   -0.804433
    103          1           0        3.221002   -1.714908    0.137927
    104          1           0        3.700486   -0.749395   -2.397949
    105          1           0        6.679061   -2.538736   -0.224368
    106          1           0        7.164638   -3.259339   -1.751232
    107          1           0        5.638658   -3.762926   -1.049863
    108          1           0        5.581580   -0.719058   -3.656329
    109          1           0        7.146796   -1.393604   -3.409222
    110          1           0        7.810828   -0.152890   -1.700182
    111          1           0        6.318883    0.626317   -1.300420
    112          1           0        7.225081    2.417696   -2.643488
    113          1           0        6.611368    1.427967   -3.890197
    114          1           0        8.985807    0.049726   -3.618773
    115          1           0        7.766176    1.928289   -5.492507
    116          1           0        9.195141    0.914629   -5.840542
    117          1           0        9.313451    2.514974   -5.254398
    118          1           0        9.324920    2.751148   -2.369433
    119          1           0       10.621117    2.470276   -3.502162
    120          1           0       11.711162    1.336590   -1.866626
    121          1           0       10.579801   -0.013262   -2.042989
    122          1           0        9.968642    0.388607    0.154977
    123          1           0        9.251025    1.816040   -0.234655
    124          1           0       10.698796    2.230704    1.438495
    125          1           0       12.176715    3.920248    0.845604
    126          1           0       10.655193    4.164546   -0.082131
    127          1           0       12.118436    3.597876   -0.842511
    128          1           0       13.292953    1.718703    0.214161
    129          1           0       12.219512    0.311417    0.306776
    130          1           0       12.706820    2.092020    2.844630
    131          1           0       13.984499    1.170915    2.031377
    132          1           0       13.271663   -0.832262    2.428374
    133          1           0       11.562858   -0.378786    2.471005
    134          1           0       12.720169    0.823144    4.706996
    135          1           0       13.589521   -2.005287    4.375038
    136          1           0       13.745874   -1.178994    5.911219
    137          1           0       14.803634   -0.659598    4.666864
    138          1           0       11.200924   -1.524127    5.537690
    139          1           0       10.433095   -0.945299    4.136390
    140          1           0       10.771037    0.203883    5.427855
 ---------------------------------------------------------------------

 SCF Done:  E(RCAM-B3LYP) =  -3007.18073863     A.U. after   18 cycles

 Excitation energies and oscillator strengths:

 Excited State   1:      Singlet-A      1.7277 eV  717.62 nm  f=0.3861  <S**2>=0.000
     245 -> 248       -0.16901
     246 -> 247        0.68850
     245 <- 248       -0.10400
 This state for optimization and/or second-order correction.
 Total Energy, E(TD-HF/TD-DFT) =  -3007.11724610
 Copying the excited state density for this state as the 1-particle RhoCI density.

 Excited State   2:      Singlet-A      2.2221 eV  557.97 nm  f=0.1353  <S**2>=0.000
     245 -> 247        0.64919
     246 -> 248        0.25981

 Excited State   3:      Singlet-A      3.2652 eV  379.72 nm  f=0.0014  <S**2>=0.000
     243 -> 247        0.55983
     244 -> 247       -0.37978
     246 -> 248       -0.12940

 Excited State   4:      Singlet-A      3.4394 eV  360.49 nm  f=0.0005  <S**2>=0.000
     240 -> 247        0.13074
     243 -> 247        0.32468
     244 -> 247        0.57511
     246 -> 248       -0.15018

 Excited State   5:      Singlet-A      3.5848 eV  345.86 nm  f=0.0181  <S**2>=0.000
     239 -> 247        0.51567
     239 -> 248       -0.12048
     239 -> 249        0.29457
     239 -> 250        0.10138
     240 -> 247        0.22077
     240 -> 249        0.11260
     246 -> 248        0.12368

 The electronic state is 1-A.
 Alpha  occ. eigenvalues --  -46.87861 -19.24285 -19.23855 -19.21304 -19.19102
 Alpha  occ. eigenvalues --  -19.19037 -19.18251 -14.41980 -14.41475 -14.39103
 Alpha  occ. eigenvalues --  -14.37947 -10.40074 -10.38283 -10.35684 -10.34717
 Alpha  occ. eigenvalues --  -10.31591 -10.31077 -10.30859 -10.30724 -10.30501
 Alpha  occ. eigenvalues --  -10.30387 -10.30370 -10.30178 -10.29833 -10.28345
 Alpha  occ. eigenvalues --  -10.28194 -10.28137 -10.27957 -10.27902 -10.27897
 Alpha  occ. eigenvalues --  -10.27822 -10.27752 -10.27712 -10.27432 -10.27369
 Alpha  occ. eigenvalues --  -10.27367 -10.27130 -10.26906 -10.26685 -10.26666
 Alpha  occ. eigenvalues --  -10.26623 -10.26542 -10.26270 -10.26101 -10.26094
 Alpha  occ. eigenvalues --  -10.26089 -10.26051 -10.25992 -10.25700 -10.25644
 Alpha  occ. eigenvalues --  -10.25640 -10.25617 -10.25466 -10.25371 -10.25351
 Alpha  occ. eigenvalues --  -10.25248 -10.24763 -10.24685 -10.24654 -10.24569
 Alpha  occ. eigenvalues --  -10.24550 -10.24474 -10.24144 -10.24140 -10.23952
 Alpha  occ. eigenvalues --  -10.23927  -3.16403  -1.91321  -1.90829  -1.90722
 Alpha  occ. eigenvalues --   -1.15231  -1.14774  -1.12960  -1.11205  -1.07557
 Alpha  occ. eigenvalues --   -1.05922  -1.04202  -1.03412  -1.02924  -1.02018
 Alpha  occ. eigenvalues --   -0.91606  -0.90801  -0.90436  -0.89879  -0.88677
 Alpha  occ. eigenvalues --   -0.88623  -0.87743  -0.87670  -0.87355  -0.86320
 Alpha  occ. eigenvalues --   -0.85905  -0.85326  -0.84166  -0.83687  -0.83127
 Alpha  occ. eigenvalues --   -0.82606  -0.81535  -0.80849  -0.80767  -0.80345
 Alpha  occ. eigenvalues --   -0.79972  -0.78185  -0.77778  -0.76980  -0.76263
 Alpha  occ. eigenvalues --   -0.75916  -0.75580  -0.75509  -0.75112  -0.74066
 Alpha  occ. eigenvalues --   -0.72976  -0.72239  -0.71818  -0.70380  -0.68885
 Alpha  occ. eigenvalues --   -0.68624  -0.68213  -0.66884  -0.66796  -0.66315
 Alpha  occ. eigenvalues --   -0.65339  -0.65154  -0.64540  -0.64415  -0.64144
 Alpha  occ. eigenvalues --   -0.63290  -0.63084  -0.61437  -0.61264  -0.60658
 Alpha  occ. eigenvalues --   -0.59981  -0.59386  -0.58780  -0.58305  -0.57640
 Alpha  occ. eigenvalues --   -0.57169  -0.56184  -0.55978  -0.55727  -0.55405
 Alpha  occ. eigenvalues --   -0.54868  -0.54626  -0.54392  -0.54120  -0.53879
 Alpha  occ. eigenvalues --   -0.53812  -0.53251  -0.53179  -0.52970  -0.52548
 Alpha  occ. eigenvalues --   -0.52282  -0.52095  -0.51879  -0.51715  -0.51626
 Alpha  occ. eigenvalues --   -0.51492  -0.51340  -0.50891  -0.50789  -0.50655
 Alpha  occ. eigenvalues --   -0.50475  -0.50349  -0.50173  -0.49753  -0.49643
 Alpha  occ. eigenvalues --   -0.49363  -0.49320  -0.49236  -0.48909  -0.48786
 Alpha  occ. eigenvalues --   -0.48610  -0.48544  -0.48333  -0.48219  -0.48090
 Alpha  occ. eigenvalues --   -0.47798  -0.47521  -0.47125  -0.46794  -0.46738
 Alpha  occ. eigenvalues --   -0.46543  -0.46110  -0.45866  -0.45841  -0.45643
 Alpha  occ. eigenvalues --   -0.45384  -0.45281  -0.45236  -0.45154  -0.44898
 Alpha  occ. eigenvalues --   -0.44566  -0.44458  -0.44297  -0.44205  -0.44100
 Alpha  occ. eigenvalues --   -0.44063  -0.43883  -0.43460  -0.43314  -0.43166
 Alpha  occ. eigenvalues --   -0.43056  -0.42769  -0.42693  -0.42537  -0.42427
 Alpha  occ. eigenvalues --   -0.42046  -0.41627  -0.41467  -0.41009  -0.40934
 Alpha  occ. eigenvalues --   -0.40907  -0.40652  -0.40305  -0.40239  -0.40144
 Alpha  occ. eigenvalues --   -0.40119  -0.39968  -0.39614  -0.39307  -0.38804
 Alpha  occ. eigenvalues --   -0.38614  -0.38203  -0.38068  -0.37369  -0.37311
 Alpha  occ. eigenvalues --   -0.37258  -0.36822  -0.36672  -0.36491  -0.36409
 Alpha  occ. eigenvalues --   -0.35583  -0.35266  -0.35237  -0.34692  -0.34161
 Alpha  occ. eigenvalues --   -0.34084  -0.33311  -0.32806  -0.31128  -0.30657
 Alpha  occ. eigenvalues --   -0.30270  -0.29776  -0.29670  -0.29027  -0.23818
 Alpha  occ. eigenvalues --   -0.21048
 Alpha virt. eigenvalues --   -0.08571  -0.01073   0.01006   0.02950   0.03010
 Alpha virt. eigenvalues --    0.03979   0.04845   0.05298   0.06026   0.06925
 Alpha virt. eigenvalues --    0.07968   0.08202   0.08469   0.09185   0.09227

 Mulliken charges:
               1
     1  Mg   0.815674
     2  C   -0.038871
     3  C   -0.070939
     4  C   -0.055841
     5  C   -0.064904
     6  N   -0.297667
     7  C   -0.034679
     8  C    0.004378
     9  C   -0.091628
    10  C    0.023802
    11  C    0.093144
    12  C    0.081459
    13  C    0.066111
    14  C    0.185350
    15  O   -0.214792
    16  O   -0.403734
    17  N   -0.334184
    18  C    0.155012
    19  C   -0.144610
    20  C   -0.040111
    21  C    0.135073
    22  C    0.110561
    23  C    0.013858
    24  O   -0.190602
    25  C    0.037878
    26  N   -0.335239
    27  C    0.022063
    28  C   -0.051507
    29  C   -0.025022
    30  C    0.059464
    31  C    0.084040
    32  C    0.041750
    33  C   -0.018564
    34  N   -0.347998
    35  C    0.090973
    36  C   -0.190626
    37  C   -0.026030
    38  C    0.124207
    39  C    0.138665
    40  C    0.047330
    41  O   -0.092747
    42  C   -0.023473
    43  C    0.188267
    44  O   -0.232892
    45  O   -0.353056
    46  C    0.195945
    47  C    0.285060
    48  C   -0.131736
    49  C   -0.176785
    50  C    0.090272
    51  C    0.061910
    52  C    0.010583
    53  C    0.057148
    54  C   -0.147469
    55  C    0.067745
    56  C    0.088611
    57  C    0.034014
    58  C    0.020533
    59  C   -0.107460
    60  C    0.058779
    61  C    0.029118
    62  C    0.031408
    63  C    0.043303
    64  C   -0.129692
    65  C    0.026668
    66  C    0.028277
    67  H   -0.049834
    68  H   -0.011095
    69  H   -0.037613
    70  H    0.023032
    71  H    0.015190
    72  H    0.040069
    73  H    0.012702
    74  H    0.028097
    75  H    0.009163
    76  H    0.014342
    77  H    0.028391
    78  H    0.031688
    79  H    0.034698
    80  H    0.033932
    81  H    0.018456
    82  H    0.027861
    83  H    0.017730
    84  H    0.043469
    85  H    0.011351
    86  H   -0.003371
    87  H    0.034150
    88  H    0.031575
    89  H    0.022878
    90  H    0.017544
    91  H    0.002303
    92  H    0.024171
    93  H    0.019462
    94  H    0.011808
    95  H   -0.001056
    96  H    0.047681
    97  H    0.025866
    98  H    0.025779
    99  H    0.026680
   100  H    0.051921
   101  H    0.039122
   102  H    0.009532
   103  H    0.044021
   104  H    0.003138
   105  H    0.034770
   106  H    0.012251
   107  H    0.024400
   108  H    0.005812
   109  H   -0.010846
   110  H   -0.008205
   111  H   -0.004872
   112  H   -0.001354
   113  H   -0.008728
   114  H    0.004561
   115  H    0.005598
   116  H    0.005574
   117  H   -0.011440
   118  H   -0.000270
   119  H   -0.003027
   120  H    0.004575
   121  H    0.003818
   122  H   -0.017099
   123  H   -0.015912
   124  H   -0.021258
   125  H    0.002295
   126  H    0.005563
   127  H   -0.003467
   128  H   -0.015380
   129  H   -0.005757
   130  H    0.005369
   131  H   -0.015509
   132  H   -0.008241
   133  H   -0.010310
   134  H   -0.006897
   135  H    0.009414
   136  H    0.001955
   137  H    0.018166
   138  H    0.004201
   139  H    0.006106
   140  H    0.013734
 Sum of Mulliken charges =  -0.00000

 Dipole moment (field-independent basis, Debye):
    X=              4.1870    Y=              3.8682    Z=             -3.2710  Tot=              6.5722
 Quadrupole moment (field-independent basis, Debye-Ang):
   XX=           -373.1337   YY=           -425.2362   ZZ=           -407.8381
   XY=            -12.2394   XZ=              9.6050   YZ=              8.6510

 Normal termination of Gaussian 16 at Thu May  5 02:12:17 2022.
