 Gaussian 16, Revision A.03,
 Gaussian 16:  ES64L-G16RevA.03 25-Dec-2016

 ---------------------------------
 #p PBE1PBE/Def2SVP td=(nstates=5)
 ---------------------------------

 ---------------------------------------------------
 step_51_chromophore_3 TDDFT with PBE1PBE functional
 ---------------------------------------------------
 Symbolic Z-matrix:
 Charge =  0 Multiplicity = 1

                         Standard orientation:
 ---------------------------------------------------------------------
 Center     Atomic      Atomic             Coordinates (Angstroms)
 Number     Number       Type             X           Y           Z
 ---------------------------------------------------------------------
      1         12           0       -5.327253    0.648971    0.046988
      2          6           0       -3.972002   -2.543344   -0.199900
      3          6           0       -2.119575    1.885422    0.272667
      4          6           0       -6.520017    3.848907    0.521556
      5          6           0       -8.449277   -0.693141    0.508630
      6          7           0       -3.323884   -0.155098    0.227861
      7          6           0       -3.004615   -1.500883   -0.069289
      8          6           0       -1.527544   -1.644262   -0.270882
      9          6           0       -0.946840   -0.271469    0.139814
     10          6           0       -2.171833    0.538498    0.268174
     11          6           0       -0.116286   -0.215600    1.435799
     12          6           0       -1.108965   -2.169924   -1.717600
     13          6           0       -0.217091   -3.394562   -1.696259
     14          6           0        1.100046   -3.308617   -0.915858
     15          8           0        1.365953   -3.824002    0.150811
     16          8           0        1.951604   -2.338504   -1.538754
     17          7           0       -4.440459    2.654191    0.168885
     18          6           0       -3.070656    2.887361    0.195570
     19          6           0       -2.857782    4.346955    0.192724
     20          6           0       -4.191518    4.940314    0.288631
     21          6           0       -5.107535    3.798679    0.398367
     22          6           0       -1.446196    4.986083    0.212105
     23          6           0       -4.569568    6.444313    0.405481
     24          8           0       -5.713871    6.798388    0.559940
     25          6           0       -3.577259    7.618607    0.318416
     26          7           0       -7.200425    1.491126    0.325219
     27          6           0       -7.484710    2.808507    0.464793
     28          6           0       -8.944895    3.030330    0.664568
     29          6           0       -9.553498    1.643325    0.275910
     30          6           0       -8.367115    0.708856    0.433986
     31          6           0       -9.273898    3.511053    2.129139
     32          6           0      -10.366569    1.440415   -1.100117
     33          6           0      -11.836485    0.993178   -0.853240
     34          7           0       -6.123639   -1.261346    0.175117
     35          6           0       -7.428939   -1.648720    0.389931
     36          6           0       -7.456821   -3.082819    0.303541
     37          6           0       -6.106382   -3.449560    0.076660
     38          6           0       -5.366056   -2.323660   -0.029911
     39          6           0       -8.703436   -3.941640    0.462006
     40          6           0       -5.260440   -4.641243   -0.093219
     41          8           0       -5.438330   -5.788213   -0.021904
     42          6           0       -3.753338   -4.097684   -0.314852
     43          6           0       -2.919808   -4.691238    0.714620
     44          8           0       -2.995960   -4.461094    1.921234
     45          8           0       -2.124407   -5.695036    0.217309
     46          6           0       -1.180358   -6.471841    1.031745
     47          6           0        3.265937   -2.142426   -0.864036
     48          6           0        4.222562   -1.510061   -1.816717
     49          6           0        5.560379   -1.793804   -1.931544
     50          6           0        6.305153   -2.910491   -1.178770
     51          6           0        6.322047   -0.912902   -2.881410
     52          6           0        6.931771    0.312335   -2.146020
     53          6           0        7.364360    1.438366   -3.102479
     54          6           0        8.830860    1.125520   -3.703220
     55          6           0        8.738011    1.597894   -5.125735
     56          6           0        9.905387    1.965648   -2.853136
     57          6           0       10.657321    1.057057   -1.848333
     58          6           0       10.201428    1.304233   -0.388309
     59          6           0       11.185933    2.106749    0.471890
     60          6           0       11.523830    3.523210    0.068235
     61          6           0       12.429353    1.294540    0.727834
     62          6           0       12.910678    1.234207    2.203935
     63          6           0       12.557421   -0.111674    2.827825
     64          6           0       12.567876   -0.186546    4.324325
     65          6           0       13.794113   -1.036852    4.831391
     66          6           0       11.170254   -0.652044    4.883411
     67          1           0       -1.085149    2.228624    0.206330
     68          1           0       -7.023134    4.808939    0.650433
     69          1           0       -9.435677   -1.161360    0.536542
     70          1           0       -1.302242   -2.348489    0.531441
     71          1           0       -0.359543    0.172837   -0.664284
     72          1           0       -0.636826    0.255107    2.269634
     73          1           0        0.780182    0.311994    1.107985
     74          1           0        0.167525   -1.250313    1.626291
     75          1           0       -0.786774   -1.281131   -2.259891
     76          1           0       -1.908720   -2.565288   -2.344670
     77          1           0       -0.002771   -3.597938   -2.745499
     78          1           0       -0.875197   -4.163466   -1.292636
     79          1           0       -1.378878    5.795490    0.939225
     80          1           0       -1.256905    5.416678   -0.771723
     81          1           0       -0.691078    4.216753    0.369954
     82          1           0       -4.135074    8.521201    0.068429
     83          1           0       -2.860755    7.426585   -0.479945
     84          1           0       -3.065613    7.884892    1.243317
     85          1           0       -9.285196    3.714227   -0.112856
     86          1           0      -10.266060    1.311667    1.030599
     87          1           0       -9.581376    4.543750    1.964605
     88          1           0       -8.354376    3.429115    2.709793
     89          1           0      -10.038663    2.897133    2.603500
     90          1           0       -9.853298    0.760683   -1.780143
     91          1           0      -10.507663    2.392384   -1.610752
     92          1           0      -12.310406    1.692145   -0.163039
     93          1           0      -11.872209   -0.052945   -0.549891
     94          1           0      -12.356481    1.042685   -1.809996
     95          1           0       -9.606239   -3.337006    0.371637
     96          1           0       -8.619059   -4.487764    1.401648
     97          1           0       -8.723246   -4.594853   -0.409992
     98          1           0       -3.324708   -4.408252   -1.268089
     99          1           0       -1.704800   -7.121355    1.733439
    100          1           0       -0.592072   -5.791576    1.647702
    101          1           0       -0.701362   -7.203330    0.380359
    102          1           0        3.568014   -3.188476   -0.804433
    103          1           0        3.221002   -1.714908    0.137927
    104          1           0        3.700486   -0.749395   -2.397949
    105          1           0        6.679061   -2.538736   -0.224368
    106          1           0        7.164638   -3.259339   -1.751232
    107          1           0        5.638658   -3.762926   -1.049863
    108          1           0        5.581580   -0.719058   -3.656329
    109          1           0        7.146796   -1.393604   -3.409222
    110          1           0        7.810828   -0.152890   -1.700182
    111          1           0        6.318883    0.626317   -1.300420
    112          1           0        7.225081    2.417696   -2.643488
    113          1           0        6.611368    1.427967   -3.890197
    114          1           0        8.985807    0.049726   -3.618773
    115          1           0        7.766176    1.928289   -5.492507
    116          1           0        9.195141    0.914629   -5.840542
    117          1           0        9.313451    2.514974   -5.254398
    118          1           0        9.324920    2.751148   -2.369433
    119          1           0       10.621117    2.470276   -3.502162
    120          1           0       11.711162    1.336590   -1.866626
    121          1           0       10.579801   -0.013262   -2.042989
    122          1           0        9.968642    0.388607    0.154977
    123          1           0        9.251025    1.816040   -0.234655
    124          1           0       10.698796    2.230704    1.438495
    125          1           0       12.176715    3.920248    0.845604
    126          1           0       10.655193    4.164546   -0.082131
    127          1           0       12.118436    3.597876   -0.842511
    128          1           0       13.292953    1.718703    0.214161
    129          1           0       12.219512    0.311417    0.306776
    130          1           0       12.706820    2.092020    2.844630
    131          1           0       13.984499    1.170915    2.031377
    132          1           0       13.271663   -0.832262    2.428374
    133          1           0       11.562858   -0.378786    2.471005
    134          1           0       12.720169    0.823144    4.706996
    135          1           0       13.589521   -2.005287    4.375038
    136          1           0       13.745874   -1.178994    5.911219
    137          1           0       14.803634   -0.659598    4.666864
    138          1           0       11.200924   -1.524127    5.537690
    139          1           0       10.433095   -0.945299    4.136390
    140          1           0       10.771037    0.203883    5.427855
 ---------------------------------------------------------------------

 SCF Done:  E(RPBE1PBE) =  -3005.36791379     A.U. after   16 cycles

 Excitation energies and oscillator strengths:

 Excited State   1:      Singlet-A      1.8582 eV  667.22 nm  f=0.3738  <S**2>=0.000
     245 -> 248       -0.16513
     246 -> 247        0.69493
     246 <- 247       -0.10805
 This state for optimization and/or second-order correction.
 Total Energy, E(TD-HF/TD-DFT) =  -3005.29962574
 Copying the excited state density for this state as the 1-particle RhoCI density.

 Excited State   2:      Singlet-A      2.2313 eV  555.67 nm  f=0.1244  <S**2>=0.000
     245 -> 247        0.65746
     246 -> 248        0.24036

 Excited State   3:      Singlet-A      2.9596 eV  418.92 nm  f=0.0016  <S**2>=0.000
     242 -> 247       -0.23590
     244 -> 247        0.65355

 Excited State   4:      Singlet-A      3.0353 eV  408.48 nm  f=0.0054  <S**2>=0.000
     240 -> 247        0.39010
     240 -> 249        0.10578
     241 -> 247        0.20380
     242 -> 247        0.46680
     244 -> 247        0.24012

 Excited State   5:      Singlet-A      3.1099 eV  398.68 nm  f=0.0079  <S**2>=0.000
     240 -> 247       -0.42355
     241 -> 247       -0.27115
     242 -> 247        0.44364
     246 -> 248       -0.10376

 The electronic state is 1-A.
 Alpha  occ. eigenvalues --  -46.91265 -19.25003 -19.24583 -19.21548 -19.19470
 Alpha  occ. eigenvalues --  -19.19028 -19.18527 -14.41475 -14.41046 -14.38629
 Alpha  occ. eigenvalues --  -14.37791 -10.37129 -10.35344 -10.32574 -10.32083
 Alpha  occ. eigenvalues --  -10.28980 -10.28792 -10.28388 -10.28351 -10.28231
 Alpha  occ. eigenvalues --  -10.27851 -10.27685 -10.27571 -10.27145 -10.26459
 Alpha  occ. eigenvalues --  -10.26094 -10.25644 -10.25583 -10.25571 -10.25571
 Alpha  occ. eigenvalues --  -10.25557 -10.25421 -10.25316 -10.25161 -10.25143
 Alpha  occ. eigenvalues --  -10.25080 -10.25020 -10.24982 -10.24449 -10.24403
 Alpha  occ. eigenvalues --  -10.24277 -10.23998 -10.23656 -10.23600 -10.23547
 Alpha  occ. eigenvalues --  -10.23521 -10.23499 -10.23360 -10.23331 -10.23322
 Alpha  occ. eigenvalues --  -10.23164 -10.23157 -10.23040 -10.22913 -10.22884
 Alpha  occ. eigenvalues --  -10.22857 -10.22401 -10.22103 -10.22096 -10.22073
 Alpha  occ. eigenvalues --  -10.22051 -10.21999 -10.21818 -10.21692 -10.21527
 Alpha  occ. eigenvalues --  -10.21469  -3.13387  -1.86246  -1.85732  -1.85629
 Alpha  occ. eigenvalues --   -1.10003  -1.09603  -1.07978  -1.05692  -1.02436
 Alpha  occ. eigenvalues --   -1.00793  -0.98966  -0.98131  -0.97466  -0.96555
 Alpha  occ. eigenvalues --   -0.86084  -0.84892  -0.84546  -0.84113  -0.82894
 Alpha  occ. eigenvalues --   -0.82756  -0.82029  -0.81829  -0.81668  -0.80564
 Alpha  occ. eigenvalues --   -0.80077  -0.79734  -0.78325  -0.78091  -0.77373
 Alpha  occ. eigenvalues --   -0.76776  -0.75844  -0.75054  -0.74950  -0.74439
 Alpha  occ. eigenvalues --   -0.74172  -0.72309  -0.72157  -0.71326  -0.70441
 Alpha  occ. eigenvalues --   -0.70270  -0.69668  -0.69593  -0.69431  -0.68225
 Alpha  occ. eigenvalues --   -0.67349  -0.66733  -0.66246  -0.64659  -0.63091
 Alpha  occ. eigenvalues --   -0.62990  -0.62700  -0.61320  -0.61001  -0.60484
 Alpha  occ. eigenvalues --   -0.59784  -0.59598  -0.58978  -0.58791  -0.58649
 Alpha  occ. eigenvalues --   -0.57567  -0.57425  -0.56107  -0.55480  -0.55053
 Alpha  occ. eigenvalues --   -0.54371  -0.53940  -0.53398  -0.53000  -0.52343
 Alpha  occ. eigenvalues --   -0.51653  -0.50725  -0.50416  -0.50273  -0.49891
 Alpha  occ. eigenvalues --   -0.49384  -0.49198  -0.48740  -0.48661  -0.48370
 Alpha  occ. eigenvalues --   -0.48251  -0.47822  -0.47650  -0.47502  -0.47050
 Alpha  occ. eigenvalues --   -0.46895  -0.46585  -0.46331  -0.46209  -0.46105
 Alpha  occ. eigenvalues --   -0.45922  -0.45808  -0.45620  -0.45447  -0.45270
 Alpha  occ. eigenvalues --   -0.44969  -0.44879  -0.44798  -0.44348  -0.44156
 Alpha  occ. eigenvalues --   -0.43986  -0.43900  -0.43661  -0.43502  -0.43329
 Alpha  occ. eigenvalues --   -0.43173  -0.43062  -0.42901  -0.42803  -0.42715
 Alpha  occ. eigenvalues --   -0.42558  -0.42128  -0.41662  -0.41556  -0.41338
 Alpha  occ. eigenvalues --   -0.41232  -0.40663  -0.40650  -0.40491  -0.40355
 Alpha  occ. eigenvalues --   -0.40185  -0.40068  -0.39978  -0.39758  -0.39686
 Alpha  occ. eigenvalues --   -0.39335  -0.39201  -0.39078  -0.38959  -0.38765
 Alpha  occ. eigenvalues --   -0.38704  -0.38566  -0.38330  -0.38188  -0.37985
 Alpha  occ. eigenvalues --   -0.37846  -0.37707  -0.37457  -0.37341  -0.37019
 Alpha  occ. eigenvalues --   -0.36782  -0.36407  -0.36324  -0.35915  -0.35705
 Alpha  occ. eigenvalues --   -0.35675  -0.35529  -0.35180  -0.35128  -0.35048
 Alpha  occ. eigenvalues --   -0.35041  -0.34754  -0.34573  -0.34080  -0.33826
 Alpha  occ. eigenvalues --   -0.33405  -0.32967  -0.32900  -0.32309  -0.32178
 Alpha  occ. eigenvalues --   -0.32043  -0.31867  -0.31669  -0.31573  -0.31249
 Alpha  occ. eigenvalues --   -0.30483  -0.30245  -0.30127  -0.29571  -0.29305
 Alpha  occ. eigenvalues --   -0.29059  -0.28891  -0.27597  -0.26374  -0.25610
 Alpha  occ. eigenvalues --   -0.25498  -0.25106  -0.25083  -0.24853  -0.20720
 Alpha  occ. eigenvalues --   -0.18632
 Alpha virt. eigenvalues --   -0.11020  -0.04664  -0.03143  -0.01563  -0.00652
 Alpha virt. eigenvalues --    0.00129   0.00369   0.00697   0.01811   0.03173
 Alpha virt. eigenvalues --    0.04295   0.04681   0.04809   0.05238   0.05912

 Mulliken charges:
               1
     1  Mg   0.964856
     2  C   -0.037455
     3  C   -0.066396
     4  C   -0.045549
     5  C   -0.068113
     6  N   -0.404099
     7  C    0.036056
     8  C   -0.072847
     9  C   -0.164317
    10  C    0.061474
    11  C    0.037617
    12  C    0.032748
    13  C   -0.022600
    14  C    0.249575
    15  O   -0.248739
    16  O   -0.429721
    17  N   -0.441557
    18  C    0.176066
    19  C   -0.170244
    20  C   -0.088584
    21  C    0.160470
    22  C    0.052789
    23  C    0.062201
    24  O   -0.227274
    25  C   -0.033022
    26  N   -0.438596
    27  C    0.058488
    28  C   -0.138204
    29  C   -0.089911
    30  C    0.095140
    31  C    0.027591
    32  C   -0.017153
    33  C   -0.095951
    34  N   -0.482773
    35  C    0.124363
    36  C   -0.210020
    37  C   -0.081480
    38  C    0.181227
    39  C    0.085613
    40  C    0.150085
    41  O   -0.138974
    42  C   -0.134264
    43  C    0.282692
    44  O   -0.269765
    45  O   -0.388477
    46  C    0.142154
    47  C    0.243516
    48  C   -0.139075
    49  C   -0.220588
    50  C    0.026389
    51  C    0.000325
    52  C   -0.056002
    53  C    0.002482
    54  C   -0.236101
    55  C    0.012141
    56  C    0.040928
    57  C   -0.033465
    58  C   -0.035196
    59  C   -0.195110
    60  C    0.001327
    61  C   -0.022523
    62  C   -0.037332
    63  C   -0.007773
    64  C   -0.221922
    65  C   -0.037711
    66  C   -0.030161
    67  H   -0.016807
    68  H    0.021280
    69  H   -0.002860
    70  H    0.064967
    71  H    0.050683
    72  H    0.066905
    73  H    0.039949
    74  H    0.055503
    75  H    0.041171
    76  H    0.047050
    77  H    0.061160
    78  H    0.072375
    79  H    0.061116
    80  H    0.060220
    81  H    0.044422
    82  H    0.054029
    83  H    0.044158
    84  H    0.068039
    85  H    0.048470
    86  H    0.035584
    87  H    0.060859
    88  H    0.059791
    89  H    0.049051
    90  H    0.049628
    91  H    0.036347
    92  H    0.052457
    93  H    0.047435
    94  H    0.041171
    95  H    0.027087
    96  H    0.076066
    97  H    0.055347
    98  H    0.062264
    99  H    0.048672
   100  H    0.073099
   101  H    0.060517
   102  H    0.038631
   103  H    0.069615
   104  H    0.032463
   105  H    0.061907
   106  H    0.039308
   107  H    0.050899
   108  H    0.036760
   109  H    0.022012
   110  H    0.030626
   111  H    0.027615
   112  H    0.029755
   113  H    0.024580
   114  H    0.040174
   115  H    0.031766
   116  H    0.033460
   117  H    0.016139
   118  H    0.030807
   119  H    0.028363
   120  H    0.038403
   121  H    0.034384
   122  H    0.016111
   123  H    0.017108
   124  H    0.018850
   125  H    0.031466
   126  H    0.032856
   127  H    0.023638
   128  H    0.016707
   129  H    0.026748
   130  H    0.034628
   131  H    0.020139
   132  H    0.024053
   133  H    0.024312
   134  H    0.031665
   135  H    0.037662
   136  H    0.030513
   137  H    0.045568
   138  H    0.030927
   139  H    0.032000
   140  H    0.040904
 Sum of Mulliken charges =  -0.00000

 Dipole moment (field-independent basis, Debye):
    X=              3.8150    Y=              3.2249    Z=             -3.2963  Tot=              5.9850
 Quadrupole moment (field-independent basis, Debye-Ang):
   XX=           -363.2570   YY=           -423.8400   ZZ=           -405.3508
   XY=             -9.2361   XZ=              9.7158   YZ=              8.2935

 Normal termination of Gaussian 16 at Thu May  5 02:34:42 2022.
