 Gaussian 16, Revision A.03,
 Gaussian 16:  ES64L-G16RevA.03 25-Dec-2016

 --------------------------------
 #p wB97XD/Def2SVP td=(nstates=5)
 --------------------------------

 --------------------------------------------------
 step_51_chromophore_3 TDDFT with wB97XD functional
 --------------------------------------------------
 Symbolic Z-matrix:
 Charge =  0 Multiplicity = 1

                         Standard orientation:
 ---------------------------------------------------------------------
 Center     Atomic      Atomic             Coordinates (Angstroms)
 Number     Number       Type             X           Y           Z
 ---------------------------------------------------------------------
      1         12           0       -5.327253    0.648971    0.046988
      2          6           0       -3.972002   -2.543344   -0.199900
      3          6           0       -2.119575    1.885422    0.272667
      4          6           0       -6.520017    3.848907    0.521556
      5          6           0       -8.449277   -0.693141    0.508630
      6          7           0       -3.323884   -0.155098    0.227861
      7          6           0       -3.004615   -1.500883   -0.069289
      8          6           0       -1.527544   -1.644262   -0.270882
      9          6           0       -0.946840   -0.271469    0.139814
     10          6           0       -2.171833    0.538498    0.268174
     11          6           0       -0.116286   -0.215600    1.435799
     12          6           0       -1.108965   -2.169924   -1.717600
     13          6           0       -0.217091   -3.394562   -1.696259
     14          6           0        1.100046   -3.308617   -0.915858
     15          8           0        1.365953   -3.824002    0.150811
     16          8           0        1.951604   -2.338504   -1.538754
     17          7           0       -4.440459    2.654191    0.168885
     18          6           0       -3.070656    2.887361    0.195570
     19          6           0       -2.857782    4.346955    0.192724
     20          6           0       -4.191518    4.940314    0.288631
     21          6           0       -5.107535    3.798679    0.398367
     22          6           0       -1.446196    4.986083    0.212105
     23          6           0       -4.569568    6.444313    0.405481
     24          8           0       -5.713871    6.798388    0.559940
     25          6           0       -3.577259    7.618607    0.318416
     26          7           0       -7.200425    1.491126    0.325219
     27          6           0       -7.484710    2.808507    0.464793
     28          6           0       -8.944895    3.030330    0.664568
     29          6           0       -9.553498    1.643325    0.275910
     30          6           0       -8.367115    0.708856    0.433986
     31          6           0       -9.273898    3.511053    2.129139
     32          6           0      -10.366569    1.440415   -1.100117
     33          6           0      -11.836485    0.993178   -0.853240
     34          7           0       -6.123639   -1.261346    0.175117
     35          6           0       -7.428939   -1.648720    0.389931
     36          6           0       -7.456821   -3.082819    0.303541
     37          6           0       -6.106382   -3.449560    0.076660
     38          6           0       -5.366056   -2.323660   -0.029911
     39          6           0       -8.703436   -3.941640    0.462006
     40          6           0       -5.260440   -4.641243   -0.093219
     41          8           0       -5.438330   -5.788213   -0.021904
     42          6           0       -3.753338   -4.097684   -0.314852
     43          6           0       -2.919808   -4.691238    0.714620
     44          8           0       -2.995960   -4.461094    1.921234
     45          8           0       -2.124407   -5.695036    0.217309
     46          6           0       -1.180358   -6.471841    1.031745
     47          6           0        3.265937   -2.142426   -0.864036
     48          6           0        4.222562   -1.510061   -1.816717
     49          6           0        5.560379   -1.793804   -1.931544
     50          6           0        6.305153   -2.910491   -1.178770
     51          6           0        6.322047   -0.912902   -2.881410
     52          6           0        6.931771    0.312335   -2.146020
     53          6           0        7.364360    1.438366   -3.102479
     54          6           0        8.830860    1.125520   -3.703220
     55          6           0        8.738011    1.597894   -5.125735
     56          6           0        9.905387    1.965648   -2.853136
     57          6           0       10.657321    1.057057   -1.848333
     58          6           0       10.201428    1.304233   -0.388309
     59          6           0       11.185933    2.106749    0.471890
     60          6           0       11.523830    3.523210    0.068235
     61          6           0       12.429353    1.294540    0.727834
     62          6           0       12.910678    1.234207    2.203935
     63          6           0       12.557421   -0.111674    2.827825
     64          6           0       12.567876   -0.186546    4.324325
     65          6           0       13.794113   -1.036852    4.831391
     66          6           0       11.170254   -0.652044    4.883411
     67          1           0       -1.085149    2.228624    0.206330
     68          1           0       -7.023134    4.808939    0.650433
     69          1           0       -9.435677   -1.161360    0.536542
     70          1           0       -1.302242   -2.348489    0.531441
     71          1           0       -0.359543    0.172837   -0.664284
     72          1           0       -0.636826    0.255107    2.269634
     73          1           0        0.780182    0.311994    1.107985
     74          1           0        0.167525   -1.250313    1.626291
     75          1           0       -0.786774   -1.281131   -2.259891
     76          1           0       -1.908720   -2.565288   -2.344670
     77          1           0       -0.002771   -3.597938   -2.745499
     78          1           0       -0.875197   -4.163466   -1.292636
     79          1           0       -1.378878    5.795490    0.939225
     80          1           0       -1.256905    5.416678   -0.771723
     81          1           0       -0.691078    4.216753    0.369954
     82          1           0       -4.135074    8.521201    0.068429
     83          1           0       -2.860755    7.426585   -0.479945
     84          1           0       -3.065613    7.884892    1.243317
     85          1           0       -9.285196    3.714227   -0.112856
     86          1           0      -10.266060    1.311667    1.030599
     87          1           0       -9.581376    4.543750    1.964605
     88          1           0       -8.354376    3.429115    2.709793
     89          1           0      -10.038663    2.897133    2.603500
     90          1           0       -9.853298    0.760683   -1.780143
     91          1           0      -10.507663    2.392384   -1.610752
     92          1           0      -12.310406    1.692145   -0.163039
     93          1           0      -11.872209   -0.052945   -0.549891
     94          1           0      -12.356481    1.042685   -1.809996
     95          1           0       -9.606239   -3.337006    0.371637
     96          1           0       -8.619059   -4.487764    1.401648
     97          1           0       -8.723246   -4.594853   -0.409992
     98          1           0       -3.324708   -4.408252   -1.268089
     99          1           0       -1.704800   -7.121355    1.733439
    100          1           0       -0.592072   -5.791576    1.647702
    101          1           0       -0.701362   -7.203330    0.380359
    102          1           0        3.568014   -3.188476   -0.804433
    103          1           0        3.221002   -1.714908    0.137927
    104          1           0        3.700486   -0.749395   -2.397949
    105          1           0        6.679061   -2.538736   -0.224368
    106          1           0        7.164638   -3.259339   -1.751232
    107          1           0        5.638658   -3.762926   -1.049863
    108          1           0        5.581580   -0.719058   -3.656329
    109          1           0        7.146796   -1.393604   -3.409222
    110          1           0        7.810828   -0.152890   -1.700182
    111          1           0        6.318883    0.626317   -1.300420
    112          1           0        7.225081    2.417696   -2.643488
    113          1           0        6.611368    1.427967   -3.890197
    114          1           0        8.985807    0.049726   -3.618773
    115          1           0        7.766176    1.928289   -5.492507
    116          1           0        9.195141    0.914629   -5.840542
    117          1           0        9.313451    2.514974   -5.254398
    118          1           0        9.324920    2.751148   -2.369433
    119          1           0       10.621117    2.470276   -3.502162
    120          1           0       11.711162    1.336590   -1.866626
    121          1           0       10.579801   -0.013262   -2.042989
    122          1           0        9.968642    0.388607    0.154977
    123          1           0        9.251025    1.816040   -0.234655
    124          1           0       10.698796    2.230704    1.438495
    125          1           0       12.176715    3.920248    0.845604
    126          1           0       10.655193    4.164546   -0.082131
    127          1           0       12.118436    3.597876   -0.842511
    128          1           0       13.292953    1.718703    0.214161
    129          1           0       12.219512    0.311417    0.306776
    130          1           0       12.706820    2.092020    2.844630
    131          1           0       13.984499    1.170915    2.031377
    132          1           0       13.271663   -0.832262    2.428374
    133          1           0       11.562858   -0.378786    2.471005
    134          1           0       12.720169    0.823144    4.706996
    135          1           0       13.589521   -2.005287    4.375038
    136          1           0       13.745874   -1.178994    5.911219
    137          1           0       14.803634   -0.659598    4.666864
    138          1           0       11.200924   -1.524127    5.537690
    139          1           0       10.433095   -0.945299    4.136390
    140          1           0       10.771037    0.203883    5.427855
 ---------------------------------------------------------------------

 SCF Done:  E(RwB97XD) =  -3007.88021015     A.U. after   19 cycles

 Excitation energies and oscillator strengths:

 Excited State   1:      Singlet-A      1.6873 eV  734.82 nm  f=0.3849  <S**2>=0.000
     245 -> 248       -0.17287
     246 -> 247        0.68639
     245 <- 248       -0.11166
 This state for optimization and/or second-order correction.
 Total Energy, E(TD-HF/TD-DFT) =  -3007.81820412
 Copying the excited state density for this state as the 1-particle RhoCI density.

 Excited State   2:      Singlet-A      2.1685 eV  571.75 nm  f=0.1316  <S**2>=0.000
     245 -> 247        0.64652
     246 -> 248        0.26189

 Excited State   3:      Singlet-A      3.2730 eV  378.81 nm  f=0.0019  <S**2>=0.000
     241 -> 247        0.11569
     242 -> 247        0.58084
     244 -> 247       -0.31249
     246 -> 248       -0.15011

 Excited State   4:      Singlet-A      3.4898 eV  355.28 nm  f=0.0013  <S**2>=0.000
     240 -> 247        0.16300
     242 -> 247        0.23248
     244 -> 247        0.59514
     246 -> 248       -0.17471

 Excited State   5:      Singlet-A      3.5921 eV  345.15 nm  f=0.0262  <S**2>=0.000
     239 -> 247        0.44160
     239 -> 248       -0.10421
     239 -> 249        0.27612
     239 -> 250       -0.11513
     240 -> 247        0.31939
     240 -> 249        0.18569
     246 -> 248        0.14948

 The electronic state is 1-A.
 Alpha  occ. eigenvalues --  -46.94197 -19.29532 -19.29050 -19.26194 -19.24180
 Alpha  occ. eigenvalues --  -19.23985 -19.23147 -14.46593 -14.46072 -14.43756
 Alpha  occ. eigenvalues --  -14.42483 -10.43890 -10.42087 -10.39726 -10.38643
 Alpha  occ. eigenvalues --  -10.35473 -10.34853 -10.34792 -10.34778 -10.34630
 Alpha  occ. eigenvalues --  -10.34537 -10.34340 -10.34225 -10.34119 -10.32418
 Alpha  occ. eigenvalues --  -10.32258 -10.32251 -10.31937 -10.31929 -10.31826
 Alpha  occ. eigenvalues --  -10.31813 -10.31771 -10.31767 -10.31477 -10.31404
 Alpha  occ. eigenvalues --  -10.31252 -10.31170 -10.30923 -10.30664 -10.30578
 Alpha  occ. eigenvalues --  -10.30563 -10.30463 -10.30182 -10.30151 -10.30081
 Alpha  occ. eigenvalues --  -10.30054 -10.29963 -10.29924 -10.29650 -10.29567
 Alpha  occ. eigenvalues --  -10.29448 -10.29441 -10.29426 -10.29310 -10.29295
 Alpha  occ. eigenvalues --  -10.29223 -10.28716 -10.28513 -10.28488 -10.28485
 Alpha  occ. eigenvalues --  -10.28473 -10.28299 -10.28072 -10.27975 -10.27880
 Alpha  occ. eigenvalues --  -10.27855  -3.20171  -1.93780  -1.93267  -1.93160
 Alpha  occ. eigenvalues --   -1.17361  -1.16901  -1.15135  -1.13483  -1.09762
 Alpha  occ. eigenvalues --   -1.08068  -1.06187  -1.05407  -1.04962  -1.04079
 Alpha  occ. eigenvalues --   -0.93517  -0.92585  -0.92221  -0.91728  -0.90615
 Alpha  occ. eigenvalues --   -0.90444  -0.89581  -0.89490  -0.89249  -0.88248
 Alpha  occ. eigenvalues --   -0.87874  -0.87206  -0.86009  -0.85575  -0.85034
 Alpha  occ. eigenvalues --   -0.84444  -0.83449  -0.82740  -0.82679  -0.82257
 Alpha  occ. eigenvalues --   -0.81861  -0.80187  -0.79665  -0.78900  -0.78117
 Alpha  occ. eigenvalues --   -0.77833  -0.77382  -0.77303  -0.77051  -0.75898
 Alpha  occ. eigenvalues --   -0.74907  -0.74196  -0.73791  -0.72295  -0.70760
 Alpha  occ. eigenvalues --   -0.70536  -0.70173  -0.68904  -0.68658  -0.68169
 Alpha  occ. eigenvalues --   -0.67337  -0.67085  -0.66452  -0.66326  -0.66142
 Alpha  occ. eigenvalues --   -0.65099  -0.65053  -0.63396  -0.63113  -0.62571
 Alpha  occ. eigenvalues --   -0.62038  -0.61323  -0.60748  -0.60286  -0.59614
 Alpha  occ. eigenvalues --   -0.59077  -0.58117  -0.57905  -0.57655  -0.57357
 Alpha  occ. eigenvalues --   -0.56867  -0.56567  -0.56250  -0.55988  -0.55777
 Alpha  occ. eigenvalues --   -0.55695  -0.55135  -0.55085  -0.54898  -0.54507
 Alpha  occ. eigenvalues --   -0.54222  -0.53974  -0.53838  -0.53605  -0.53505
 Alpha  occ. eigenvalues --   -0.53393  -0.53245  -0.52786  -0.52689  -0.52543
 Alpha  occ. eigenvalues --   -0.52347  -0.52251  -0.52105  -0.51716  -0.51568
 Alpha  occ. eigenvalues --   -0.51261  -0.51208  -0.51202  -0.50808  -0.50714
 Alpha  occ. eigenvalues --   -0.50552  -0.50411  -0.50259  -0.50106  -0.49989
 Alpha  occ. eigenvalues --   -0.49725  -0.49403  -0.49145  -0.48692  -0.48605
 Alpha  occ. eigenvalues --   -0.48446  -0.47936  -0.47797  -0.47737  -0.47584
 Alpha  occ. eigenvalues --   -0.47308  -0.47199  -0.47123  -0.47023  -0.46798
 Alpha  occ. eigenvalues --   -0.46484  -0.46338  -0.46225  -0.46114  -0.45967
 Alpha  occ. eigenvalues --   -0.45960  -0.45755  -0.45397  -0.45249  -0.45059
 Alpha  occ. eigenvalues --   -0.44976  -0.44648  -0.44609  -0.44470  -0.44398
 Alpha  occ. eigenvalues --   -0.43943  -0.43478  -0.43382  -0.42972  -0.42790
 Alpha  occ. eigenvalues --   -0.42759  -0.42578  -0.42145  -0.42123  -0.42039
 Alpha  occ. eigenvalues --   -0.42012  -0.41851  -0.41523  -0.41162  -0.40679
 Alpha  occ. eigenvalues --   -0.40470  -0.40045  -0.39923  -0.39234  -0.39220
 Alpha  occ. eigenvalues --   -0.39088  -0.38816  -0.38681  -0.38555  -0.38249
 Alpha  occ. eigenvalues --   -0.37452  -0.37222  -0.37089  -0.36595  -0.36085
 Alpha  occ. eigenvalues --   -0.35992  -0.35551  -0.34681  -0.33183  -0.32815
 Alpha  occ. eigenvalues --   -0.32242  -0.31911  -0.31817  -0.31133  -0.25752
 Alpha  occ. eigenvalues --   -0.22861
 Alpha virt. eigenvalues --   -0.06902   0.00847   0.03044   0.05075   0.06067
 Alpha virt. eigenvalues --    0.06249   0.07052   0.07484   0.08432   0.09657
 Alpha virt. eigenvalues --    0.10989   0.11241   0.11489   0.11963   0.12631

 Mulliken charges:
               1
     1  Mg   0.954359
     2  C   -0.046674
     3  C   -0.084630
     4  C   -0.067833
     5  C   -0.076227
     6  N   -0.371024
     7  C    0.007340
     8  C   -0.042887
     9  C   -0.141034
    10  C    0.053754
    11  C    0.045664
    12  C    0.041514
    13  C    0.009964
    14  C    0.235041
    15  O   -0.244813
    16  O   -0.430128
    17  N   -0.411680
    18  C    0.173988
    19  C   -0.161620
    20  C   -0.081052
    21  C    0.158152
    22  C    0.064852
    23  C    0.058909
    24  O   -0.220637
    25  C   -0.022488
    26  N   -0.409017
    27  C    0.049252
    28  C   -0.110044
    29  C   -0.064361
    30  C    0.079899
    31  C    0.036611
    32  C   -0.006520
    33  C   -0.076251
    34  N   -0.439930
    35  C    0.107943
    36  C   -0.207558
    37  C   -0.076511
    38  C    0.160248
    39  C    0.098323
    40  C    0.130781
    41  O   -0.133160
    42  C   -0.093710
    43  C    0.254572
    44  O   -0.262115
    45  O   -0.384539
    46  C    0.154482
    47  C    0.260485
    48  C   -0.151837
    49  C   -0.205655
    50  C    0.040203
    51  C    0.017381
    52  C   -0.029822
    53  C    0.017218
    54  C   -0.204177
    55  C    0.022906
    56  C    0.054408
    57  C   -0.016747
    58  C   -0.017095
    59  C   -0.163570
    60  C    0.011322
    61  C   -0.009232
    62  C   -0.019286
    63  C    0.009889
    64  C   -0.195218
    65  C   -0.022893
    66  C   -0.018734
    67  H   -0.026264
    68  H    0.017049
    69  H   -0.011989
    70  H    0.046420
    71  H    0.040581
    72  H    0.062429
    73  H    0.034667
    74  H    0.050965
    75  H    0.034018
    76  H    0.038758
    77  H    0.056698
    78  H    0.053370
    79  H    0.057272
    80  H    0.056998
    81  H    0.042140
    82  H    0.053704
    83  H    0.038739
    84  H    0.065900
    85  H    0.038789
    86  H    0.020544
    87  H    0.055761
    88  H    0.053169
    89  H    0.045199
    90  H    0.042582
    91  H    0.026902
    92  H    0.045052
    93  H    0.040644
    94  H    0.035239
    95  H    0.019923
    96  H    0.070089
    97  H    0.048411
    98  H    0.055100
    99  H    0.044594
   100  H    0.071026
   101  H    0.057478
   102  H    0.028142
   103  H    0.066156
   104  H    0.029856
   105  H    0.056579
   106  H    0.034532
   107  H    0.045576
   108  H    0.028391
   109  H    0.013447
   110  H    0.012004
   111  H    0.019652
   112  H    0.022847
   113  H    0.012618
   114  H    0.025556
   115  H    0.025882
   116  H    0.028815
   117  H    0.008956
   118  H    0.018768
   119  H    0.021239
   120  H    0.027583
   121  H    0.027713
   122  H    0.006645
   123  H    0.005533
   124  H    0.006556
   125  H    0.024364
   126  H    0.027933
   127  H    0.016166
   128  H    0.008373
   129  H    0.015654
   130  H    0.027103
   131  H    0.011071
   132  H    0.015082
   133  H    0.008976
   134  H    0.019913
   135  H    0.029289
   136  H    0.024414
   137  H    0.040583
   138  H    0.025586
   139  H    0.026292
   140  H    0.035450
 Sum of Mulliken charges =  -0.00000

 Dipole moment (field-independent basis, Debye):
    X=              4.3357    Y=              4.1547    Z=             -3.3088  Tot=              6.8562
 Quadrupole moment (field-independent basis, Debye-Ang):
   XX=           -368.7936   YY=           -420.6663   ZZ=           -404.9514
   XY=            -13.0990   XZ=              9.8962   YZ=              8.6260

 Normal termination of Gaussian 16 at Thu May  5 03:05:51 2022.
