 Gaussian 16, Revision A.03,
 Gaussian 16:  ES64L-G16RevA.03 25-Dec-2016

 --------------------
 #p ZINDO=(nstates=5)
 --------------------

 ---------------------------
 step_51_chromophore_3 ZINDO
 ---------------------------
 Symbolic Z-matrix:
 Charge =  0 Multiplicity = 1

                         Standard orientation:
 ---------------------------------------------------------------------
 Center     Atomic      Atomic             Coordinates (Angstroms)
 Number     Number       Type             X           Y           Z
 ---------------------------------------------------------------------
      1         12           0       -5.327253    0.648971    0.046988
      2          6           0       -3.972002   -2.543344   -0.199900
      3          6           0       -2.119575    1.885422    0.272667
      4          6           0       -6.520017    3.848907    0.521556
      5          6           0       -8.449277   -0.693141    0.508630
      6          7           0       -3.323884   -0.155098    0.227861
      7          6           0       -3.004615   -1.500883   -0.069289
      8          6           0       -1.527544   -1.644262   -0.270882
      9          6           0       -0.946840   -0.271469    0.139814
     10          6           0       -2.171833    0.538498    0.268174
     11          6           0       -0.116286   -0.215600    1.435799
     12          6           0       -1.108965   -2.169924   -1.717600
     13          6           0       -0.217091   -3.394562   -1.696259
     14          6           0        1.100046   -3.308617   -0.915858
     15          8           0        1.365953   -3.824002    0.150811
     16          8           0        1.951604   -2.338504   -1.538754
     17          7           0       -4.440459    2.654191    0.168885
     18          6           0       -3.070656    2.887361    0.195570
     19          6           0       -2.857782    4.346955    0.192724
     20          6           0       -4.191518    4.940314    0.288631
     21          6           0       -5.107535    3.798679    0.398367
     22          6           0       -1.446196    4.986083    0.212105
     23          6           0       -4.569568    6.444313    0.405481
     24          8           0       -5.713871    6.798388    0.559940
     25          6           0       -3.577259    7.618607    0.318416
     26          7           0       -7.200425    1.491126    0.325219
     27          6           0       -7.484710    2.808507    0.464793
     28          6           0       -8.944895    3.030330    0.664568
     29          6           0       -9.553498    1.643325    0.275910
     30          6           0       -8.367115    0.708856    0.433986
     31          6           0       -9.273898    3.511053    2.129139
     32          6           0      -10.366569    1.440415   -1.100117
     33          6           0      -11.836485    0.993178   -0.853240
     34          7           0       -6.123639   -1.261346    0.175117
     35          6           0       -7.428939   -1.648720    0.389931
     36          6           0       -7.456821   -3.082819    0.303541
     37          6           0       -6.106382   -3.449560    0.076660
     38          6           0       -5.366056   -2.323660   -0.029911
     39          6           0       -8.703436   -3.941640    0.462006
     40          6           0       -5.260440   -4.641243   -0.093219
     41          8           0       -5.438330   -5.788213   -0.021904
     42          6           0       -3.753338   -4.097684   -0.314852
     43          6           0       -2.919808   -4.691238    0.714620
     44          8           0       -2.995960   -4.461094    1.921234
     45          8           0       -2.124407   -5.695036    0.217309
     46          6           0       -1.180358   -6.471841    1.031745
     47          6           0        3.265937   -2.142426   -0.864036
     48          6           0        4.222562   -1.510061   -1.816717
     49          6           0        5.560379   -1.793804   -1.931544
     50          6           0        6.305153   -2.910491   -1.178770
     51          6           0        6.322047   -0.912902   -2.881410
     52          6           0        6.931771    0.312335   -2.146020
     53          6           0        7.364360    1.438366   -3.102479
     54          6           0        8.830860    1.125520   -3.703220
     55          6           0        8.738011    1.597894   -5.125735
     56          6           0        9.905387    1.965648   -2.853136
     57          6           0       10.657321    1.057057   -1.848333
     58          6           0       10.201428    1.304233   -0.388309
     59          6           0       11.185933    2.106749    0.471890
     60          6           0       11.523830    3.523210    0.068235
     61          6           0       12.429353    1.294540    0.727834
     62          6           0       12.910678    1.234207    2.203935
     63          6           0       12.557421   -0.111674    2.827825
     64          6           0       12.567876   -0.186546    4.324325
     65          6           0       13.794113   -1.036852    4.831391
     66          6           0       11.170254   -0.652044    4.883411
     67          1           0       -1.085149    2.228624    0.206330
     68          1           0       -7.023134    4.808939    0.650433
     69          1           0       -9.435677   -1.161360    0.536542
     70          1           0       -1.302242   -2.348489    0.531441
     71          1           0       -0.359543    0.172837   -0.664284
     72          1           0       -0.636826    0.255107    2.269634
     73          1           0        0.780182    0.311994    1.107985
     74          1           0        0.167525   -1.250313    1.626291
     75          1           0       -0.786774   -1.281131   -2.259891
     76          1           0       -1.908720   -2.565288   -2.344670
     77          1           0       -0.002771   -3.597938   -2.745499
     78          1           0       -0.875197   -4.163466   -1.292636
     79          1           0       -1.378878    5.795490    0.939225
     80          1           0       -1.256905    5.416678   -0.771723
     81          1           0       -0.691078    4.216753    0.369954
     82          1           0       -4.135074    8.521201    0.068429
     83          1           0       -2.860755    7.426585   -0.479945
     84          1           0       -3.065613    7.884892    1.243317
     85          1           0       -9.285196    3.714227   -0.112856
     86          1           0      -10.266060    1.311667    1.030599
     87          1           0       -9.581376    4.543750    1.964605
     88          1           0       -8.354376    3.429115    2.709793
     89          1           0      -10.038663    2.897133    2.603500
     90          1           0       -9.853298    0.760683   -1.780143
     91          1           0      -10.507663    2.392384   -1.610752
     92          1           0      -12.310406    1.692145   -0.163039
     93          1           0      -11.872209   -0.052945   -0.549891
     94          1           0      -12.356481    1.042685   -1.809996
     95          1           0       -9.606239   -3.337006    0.371637
     96          1           0       -8.619059   -4.487764    1.401648
     97          1           0       -8.723246   -4.594853   -0.409992
     98          1           0       -3.324708   -4.408252   -1.268089
     99          1           0       -1.704800   -7.121355    1.733439
    100          1           0       -0.592072   -5.791576    1.647702
    101          1           0       -0.701362   -7.203330    0.380359
    102          1           0        3.568014   -3.188476   -0.804433
    103          1           0        3.221002   -1.714908    0.137927
    104          1           0        3.700486   -0.749395   -2.397949
    105          1           0        6.679061   -2.538736   -0.224368
    106          1           0        7.164638   -3.259339   -1.751232
    107          1           0        5.638658   -3.762926   -1.049863
    108          1           0        5.581580   -0.719058   -3.656329
    109          1           0        7.146796   -1.393604   -3.409222
    110          1           0        7.810828   -0.152890   -1.700182
    111          1           0        6.318883    0.626317   -1.300420
    112          1           0        7.225081    2.417696   -2.643488
    113          1           0        6.611368    1.427967   -3.890197
    114          1           0        8.985807    0.049726   -3.618773
    115          1           0        7.766176    1.928289   -5.492507
    116          1           0        9.195141    0.914629   -5.840542
    117          1           0        9.313451    2.514974   -5.254398
    118          1           0        9.324920    2.751148   -2.369433
    119          1           0       10.621117    2.470276   -3.502162
    120          1           0       11.711162    1.336590   -1.866626
    121          1           0       10.579801   -0.013262   -2.042989
    122          1           0        9.968642    0.388607    0.154977
    123          1           0        9.251025    1.816040   -0.234655
    124          1           0       10.698796    2.230704    1.438495
    125          1           0       12.176715    3.920248    0.845604
    126          1           0       10.655193    4.164546   -0.082131
    127          1           0       12.118436    3.597876   -0.842511
    128          1           0       13.292953    1.718703    0.214161
    129          1           0       12.219512    0.311417    0.306776
    130          1           0       12.706820    2.092020    2.844630
    131          1           0       13.984499    1.170915    2.031377
    132          1           0       13.271663   -0.832262    2.428374
    133          1           0       11.562858   -0.378786    2.471005
    134          1           0       12.720169    0.823144    4.706996
    135          1           0       13.589521   -2.005287    4.375038
    136          1           0       13.745874   -1.178994    5.911219
    137          1           0       14.803634   -0.659598    4.666864
    138          1           0       11.200924   -1.524127    5.537690
    139          1           0       10.433095   -0.945299    4.136390
    140          1           0       10.771037    0.203883    5.427855
 ---------------------------------------------------------------------

 SCF Done:  E(RZINDO/S) =  -474.323215498     A.U. after   19 cycles

 Excitation energies and oscillator strengths:

 Excited State   1:      Singlet-A      1.2714 eV  975.19 nm  f=0.5592  <S**2>=0.000
     175 ->178        -0.16015
     176 ->177         0.67266
 This state for optimization and/or second-order correction.
 Total Energy, E(CIS/TDA) =  -474.276492884
 Copying the excited state density for this state as the 1-particle RhoCI density.

 Excited State   2:      Singlet-A      1.9477 eV  636.56 nm  f=0.0709  <S**2>=0.000
     175 ->177         0.56584
     176 ->178         0.38810

 Excited State   3:      Singlet-A      2.9206 eV  424.52 nm  f=0.0012  <S**2>=0.000
     167 ->177         0.17324
     167 ->179        -0.26674
     167 ->181         0.11553
     167 ->186        -0.13687
     168 ->177         0.27167
     168 ->179        -0.36674
     168 ->181         0.15430
     168 ->184         0.10054
     168 ->186        -0.19042
     171 ->177         0.11017

 Excited State   4:      Singlet-A      3.0457 eV  407.09 nm  f=0.8497  <S**2>=0.000
     170 ->177         0.17537
     171 ->177        -0.25559
     173 ->177        -0.12332
     175 ->177        -0.30918
     176 ->178         0.50111

 Excited State   5:      Singlet-A      3.1634 eV  391.93 nm  f=0.0001  <S**2>=0.000
     170 ->177         0.24026
     170 ->179         0.15989
     170 ->181         0.31800
     170 ->186         0.15293
     170 ->188         0.16394
     171 ->177         0.12787
     171 ->179         0.15050
     171 ->181         0.27807
     171 ->186         0.12766
     171 ->188         0.14227

 The electronic state is 1-A.
 Alpha  occ. eigenvalues --   -1.84908  -1.81667  -1.80177  -1.71841  -1.71284
 Alpha  occ. eigenvalues --   -1.69735  -1.67497  -1.61889  -1.60288  -1.59083
 Alpha  occ. eigenvalues --   -1.55660  -1.51607  -1.48273  -1.47304  -1.45342
 Alpha  occ. eigenvalues --   -1.44424  -1.42603  -1.39473  -1.38066  -1.37771
 Alpha  occ. eigenvalues --   -1.36250  -1.33711  -1.32158  -1.31640  -1.28224
 Alpha  occ. eigenvalues --   -1.28010  -1.24788  -1.21164  -1.20008  -1.17547
 Alpha  occ. eigenvalues --   -1.16972  -1.16183  -1.15544  -1.15467  -1.14612
 Alpha  occ. eigenvalues --   -1.11454  -1.10741  -1.10099  -1.05283  -1.03499
 Alpha  occ. eigenvalues --   -1.01939  -1.01181  -0.99672  -0.97851  -0.96982
 Alpha  occ. eigenvalues --   -0.95219  -0.94685  -0.94628  -0.93971  -0.92502
 Alpha  occ. eigenvalues --   -0.91341  -0.90561  -0.90320  -0.87919  -0.85644
 Alpha  occ. eigenvalues --   -0.84524  -0.84217  -0.82977  -0.82258  -0.80007
 Alpha  occ. eigenvalues --   -0.79623  -0.78738  -0.77144  -0.76542  -0.76416
 Alpha  occ. eigenvalues --   -0.75119  -0.74503  -0.74040  -0.73529  -0.72475
 Alpha  occ. eigenvalues --   -0.72243  -0.71735  -0.71406  -0.70854  -0.70444
 Alpha  occ. eigenvalues --   -0.70056  -0.69323  -0.69134  -0.68304  -0.67758
 Alpha  occ. eigenvalues --   -0.67359  -0.67039  -0.66389  -0.65950  -0.65369
 Alpha  occ. eigenvalues --   -0.65201  -0.65045  -0.64708  -0.63806  -0.63621
 Alpha  occ. eigenvalues --   -0.62934  -0.62645  -0.62633  -0.62377  -0.62038
 Alpha  occ. eigenvalues --   -0.61447  -0.61019  -0.60667  -0.60336  -0.60067
 Alpha  occ. eigenvalues --   -0.59619  -0.59512  -0.59175  -0.58976  -0.58368
 Alpha  occ. eigenvalues --   -0.57751  -0.57539  -0.57214  -0.56985  -0.56547
 Alpha  occ. eigenvalues --   -0.56462  -0.55670  -0.55263  -0.55013  -0.54827
 Alpha  occ. eigenvalues --   -0.54655  -0.54619  -0.53644  -0.53433  -0.53179
 Alpha  occ. eigenvalues --   -0.53149  -0.52553  -0.51935  -0.51710  -0.51582
 Alpha  occ. eigenvalues --   -0.51188  -0.51163  -0.50803  -0.50625  -0.50529
 Alpha  occ. eigenvalues --   -0.49956  -0.49511  -0.49287  -0.48794  -0.48737
 Alpha  occ. eigenvalues --   -0.48663  -0.48131  -0.47980  -0.47556  -0.47415
 Alpha  occ. eigenvalues --   -0.47247  -0.46972  -0.46495  -0.46318  -0.46227
 Alpha  occ. eigenvalues --   -0.46027  -0.45823  -0.45649  -0.45316  -0.45271
 Alpha  occ. eigenvalues --   -0.44961  -0.44957  -0.44895  -0.44405  -0.44240
 Alpha  occ. eigenvalues --   -0.43936  -0.43492  -0.43000  -0.42910  -0.42480
 Alpha  occ. eigenvalues --   -0.41396  -0.41294  -0.40089  -0.39497  -0.38518
 Alpha  occ. eigenvalues --   -0.37143  -0.36382  -0.35789  -0.34807  -0.33501
 Alpha  occ. eigenvalues --   -0.33354  -0.31955  -0.31782  -0.31087  -0.26468
 Alpha  occ. eigenvalues --   -0.21555
 Alpha virt. eigenvalues --   -0.08304  -0.01307  -0.00077   0.01263   0.02025
 Alpha virt. eigenvalues --    0.02794   0.03190   0.03751   0.04168   0.05048
 Alpha virt. eigenvalues --    0.05941   0.06504   0.07657   0.08254   0.08455

 Mulliken charges:
               1
     1  Mg   0.417061
     2  C   -0.050862
     3  C   -0.078060
     4  C   -0.087137
     5  C   -0.053026
     6  N   -0.289407
     7  C    0.088173
     8  C    0.001563
     9  C    0.007829
    10  C    0.191121
    11  C   -0.048336
    12  C   -0.018658
    13  C    0.012601
    14  C    0.460797
    15  O   -0.493737
    16  O   -0.298945
    17  N   -0.343377
    18  C    0.136971
    19  C    0.013100
    20  C   -0.041480
    21  C    0.171187
    22  C   -0.039288
    23  C    0.325325
    24  O   -0.502745
    25  C   -0.028204
    26  N   -0.277937
    27  C    0.183140
    28  C    0.009823
    29  C   -0.006144
    30  C    0.079586
    31  C   -0.047119
    32  C   -0.031179
    33  C   -0.057164
    34  N   -0.319671
    35  C    0.063271
    36  C   -0.004071
    37  C   -0.060640
    38  C    0.113745
    39  C   -0.042334
    40  C    0.340405
    41  O   -0.492272
    42  C    0.047231
    43  C    0.496072
    44  O   -0.532526
    45  O   -0.287771
    46  C    0.075828
    47  C    0.095729
    48  C   -0.095689
    49  C   -0.005242
    50  C   -0.039383
    51  C   -0.020675
    52  C   -0.032877
    53  C   -0.041850
    54  C   -0.011503
    55  C   -0.056149
    56  C   -0.033434
    57  C   -0.029796
    58  C   -0.034157
    59  C   -0.004012
    60  C   -0.050014
    61  C   -0.033824
    62  C   -0.042003
    63  C   -0.027254
    64  C   -0.008631
    65  C   -0.060897
    66  C   -0.059394
    67  H    0.008896
    68  H    0.040031
    69  H    0.024139
    70  H    0.044735
    71  H    0.027996
    72  H    0.038417
    73  H    0.018804
    74  H    0.033123
    75  H    0.027135
    76  H    0.022080
    77  H    0.035998
    78  H    0.045566
    79  H    0.033398
    80  H    0.031309
    81  H    0.031574
    82  H    0.037130
    83  H    0.024332
    84  H    0.043337
    85  H    0.031944
    86  H    0.018079
    87  H    0.028695
    88  H    0.031110
    89  H    0.029840
    90  H    0.030795
    91  H    0.015828
    92  H    0.025017
    93  H    0.023842
    94  H    0.012119
    95  H    0.020120
    96  H    0.041874
    97  H    0.027357
    98  H    0.047154
    99  H    0.036736
   100  H    0.056375
   101  H    0.040117
   102  H    0.039718
   103  H    0.060995
   104  H    0.032502
   105  H    0.034027
   106  H    0.021504
   107  H    0.030008
   108  H    0.021524
   109  H    0.017379
   110  H    0.013382
   111  H    0.021567
   112  H    0.023467
   113  H    0.013794
   114  H    0.035337
   115  H    0.022325
   116  H    0.013880
   117  H    0.008125
   118  H    0.026119
   119  H    0.020233
   120  H    0.019539
   121  H    0.025727
   122  H    0.010017
   123  H    0.009238
   124  H    0.007029
   125  H    0.014906
   126  H    0.015198
   127  H    0.014569
   128  H    0.011618
   129  H    0.020670
   130  H    0.033920
   131  H    0.007196
   132  H    0.016785
   133  H    0.014749
   134  H    0.014378
   135  H    0.019590
   136  H    0.008980
   137  H    0.028031
   138  H    0.018717
   139  H    0.019916
   140  H    0.016654
 Sum of Mulliken charges =  -0.00000

 Dipole moment (field-independent basis, Debye):
    X=              7.1488    Y=              7.6370    Z=             -5.2226  Tot=             11.6921
 N-N= 4.319025852239D+03 E-N= 0.000000000000D+00  KE=-9.312785494185D+03
 Leave Link  601 at Thu May  5 03:19:38 2022, MaxMem=  6710886400 cpu:               0.9 elap:               0.1
 (Enter /sw/apps/gaussian-16.0/g16/l9999.exe)
 1\1\GINC-BP1-COMPUTE179\SP\RZINDO CIS\STO-3G\C55H74Mg1N4O6\OF15641\05-
 May-2022\0\\#p ZINDO=(nstates=5)\\step_51_chromophore_3 ZINDO\\0,1\Mg,
 0,1.056,7.951,26.056\C,0,1.734,10.066,28.731\C,0,1.605,5.278,28.159\C,
 0,0.625,5.728,23.456\C,0,1.205,10.609,23.894\N,0,1.766,7.641,28.079\C,
 0,1.82,8.675,29.043\C,0,1.928,8.089,30.417\C,0,2.143,6.577,30.176\C,0,
 1.872,6.469,28.731\C,0,3.529,5.998,30.517\C,0,0.725,8.472,31.392\C,0,1
 .165,9.089,32.704\C,0,2.139,8.292,33.58\O,0,3.32,8.507,33.762\O,0,1.49

 Normal termination of Gaussian 16 at Thu May  5 03:19:38 2022.
