 Gaussian 16, Revision A.03,
 Gaussian 16:  ES64L-G16RevA.03 25-Dec-2016

 ------------------------------
 #p blyp/Def2SVP td=(nstates=5)
 ------------------------------

 --------------------------------------------------
 step_1351_chromophore_7 TDDFT with blyp functional
 --------------------------------------------------
 Symbolic Z-matrix:
 Charge =  0 Multiplicity = 1

                         Standard orientation:
 ---------------------------------------------------------------------
 Center     Atomic      Atomic             Coordinates (Angstroms)
 Number     Number       Type             X           Y           Z
 ---------------------------------------------------------------------
      1         12           0        5.677760    0.562327    0.351910
      2          6           0        3.415854   -2.225281    0.118017
      3          6           0        3.349186    2.461980   -1.232354
      4          6           0        8.078264    2.804346    0.078190
      5          6           0        8.109864   -1.783241    1.634902
      6          7           0        3.582912    0.074033   -0.449732
      7          6           0        2.828383   -1.031523   -0.354164
      8          6           0        1.386688   -0.756151   -0.724454
      9          6           0        1.499336    0.716513   -1.310302
     10          6           0        2.892365    1.174172   -0.904744
     11          6           0        1.123422    0.908814   -2.833149
     12          6           0        0.441319   -0.886289    0.548963
     13          6           0       -0.773788   -1.822982    0.456429
     14          6           0       -1.650622   -1.763074   -0.828623
     15          8           0       -1.375635   -2.309069   -1.885451
     16          8           0       -2.771767   -0.940562   -0.728203
     17          7           0        5.672369    2.420032   -0.472718
     18          6           0        4.650519    2.968603   -1.024920
     19          6           0        5.089677    4.375626   -1.379898
     20          6           0        6.514221    4.410267   -1.168417
     21          6           0        6.840895    3.188243   -0.483651
     22          6           0        4.139722    5.427908   -1.951920
     23          6           0        7.426261    5.538774   -1.448951
     24          8           0        8.624254    5.505331   -1.186789
     25          6           0        6.981697    6.799435   -2.207000
     26          7           0        7.905189    0.437789    0.711086
     27          6           0        8.563704    1.601211    0.679734
     28          6           0       10.053707    1.404280    1.163771
     29          6           0       10.081039   -0.096077    1.696387
     30          6           0        8.610692   -0.487327    1.436643
     31          6           0       11.068181    1.761034   -0.014780
     32          6           0       10.427454   -0.225745    3.228615
     33          6           0       11.842402   -0.826103    3.439202
     34          7           0        5.813517   -1.486064    0.804701
     35          6           0        6.808897   -2.312371    1.331051
     36          6           0        6.384349   -3.668846    1.532743
     37          6           0        5.086411   -3.570425    1.114104
     38          6           0        4.790026   -2.301975    0.619586
     39          6           0        7.223591   -4.843249    1.980785
     40          6           0        3.930197   -4.437275    0.913888
     41          8           0        3.821970   -5.657659    1.168804
     42          6           0        2.772596   -3.553767    0.341293
     43          6           0        2.231619   -4.235426   -0.907897
     44          8           0        2.745702   -4.270001   -2.025662
     45          8           0        1.008142   -4.779838   -0.653401
     46          6           0        0.407623   -5.537145   -1.727374
     47          6           0       -3.514248   -0.775034   -1.998663
     48          6           0       -4.822823   -0.059150   -1.561018
     49          6           0       -5.952917   -0.346822   -2.181007
     50          6           0       -6.169259   -0.935328   -3.532657
     51          6           0       -7.196253    0.354446   -1.570479
     52          6           0       -8.411865   -0.477275   -1.252669
     53          6           0       -9.799354    0.194624   -1.300993
     54          6           0      -10.759529   -0.598398   -2.300496
     55          6           0      -10.463000   -0.275585   -3.783097
     56          6           0      -12.230920   -0.315249   -1.862900
     57          6           0      -12.930067   -1.331548   -1.000340
     58          6           0      -13.735681   -0.577036    0.084468
     59          6           0      -12.959072   -0.361266    1.362068
     60          6           0      -13.793790   -0.710600    2.653801
     61          6           0      -12.483223    1.133763    1.529119
     62          6           0      -11.171007    1.189562    2.348456
     63          6           0      -11.151213    1.888770    3.770845
     64          6           0      -11.054461    3.438592    3.760138
     65          6           0      -10.387863    3.963741    5.130019
     66          6           0      -12.473107    3.996725    3.618264
     67          1           0        2.588489    3.120198   -1.658545
     68          1           0        8.951959    3.445266    0.214318
     69          1           0        8.864430   -2.445151    2.065188
     70          1           0        1.048031   -1.353381   -1.570700
     71          1           0        0.804431    1.310964   -0.715862
     72          1           0        2.049454    1.332091   -3.222190
     73          1           0        0.346790    1.662874   -2.955536
     74          1           0        0.892514   -0.080715   -3.228158
     75          1           0        0.008328    0.068351    0.846462
     76          1           0        1.161040   -1.233770    1.290679
     77          1           0       -1.441603   -1.639582    1.298518
     78          1           0       -0.465339   -2.857467    0.610059
     79          1           0        3.232173    5.061724   -2.431617
     80          1           0        4.706193    6.004189   -2.683184
     81          1           0        3.806013    6.163235   -1.220064
     82          1           0        7.658400    7.640701   -2.056708
     83          1           0        6.079216    7.034784   -1.643016
     84          1           0        6.906646    6.686199   -3.288278
     85          1           0       10.171404    2.077745    2.013132
     86          1           0       10.864570   -0.614418    1.143562
     87          1           0       10.505992    1.608264   -0.936547
     88          1           0       11.968939    1.159589   -0.136423
     89          1           0       11.328077    2.818166    0.036763
     90          1           0        9.767441   -1.022160    3.570078
     91          1           0       10.233484    0.647287    3.851878
     92          1           0       11.731886   -1.881858    3.685299
     93          1           0       12.310036   -0.428268    4.340263
     94          1           0       12.478678   -0.658553    2.569903
     95          1           0        8.282035   -4.690834    1.769419
     96          1           0        6.848118   -5.653779    1.354939
     97          1           0        7.092193   -4.988183    3.053000
     98          1           0        1.926857   -3.505069    1.027038
     99          1           0        1.130732   -5.846673   -2.482714
    100          1           0       -0.389555   -4.895672   -2.102656
    101          1           0        0.001251   -6.447345   -1.287031
    102          1           0       -3.693405   -1.739203   -2.474019
    103          1           0       -2.902857   -0.174986   -2.673480
    104          1           0       -4.885189    0.345652   -0.551498
    105          1           0       -5.981979   -2.009689   -3.516293
    106          1           0       -5.488154   -0.393035   -4.186923
    107          1           0       -7.198166   -0.772723   -3.853016
    108          1           0       -7.547459    0.863093   -2.468325
    109          1           0       -7.075365    1.121266   -0.805532
    110          1           0       -8.170265   -0.838934   -0.253061
    111          1           0       -8.502495   -1.309707   -1.949922
    112          1           0       -9.633381    1.224144   -1.616157
    113          1           0      -10.363463    0.132922   -0.369838
    114          1           0      -10.593318   -1.672606   -2.219333
    115          1           0      -10.174449    0.775864   -3.778751
    116          1           0      -11.363753   -0.366346   -4.389106
    117          1           0       -9.669409   -0.998646   -3.975100
    118          1           0      -12.734871   -0.302637   -2.829161
    119          1           0      -12.378931    0.683263   -1.452767
    120          1           0      -12.287116   -2.082091   -0.539685
    121          1           0      -13.759491   -1.793647   -1.535998
    122          1           0      -14.671366   -1.091775    0.300894
    123          1           0      -14.042412    0.419946   -0.231770
    124          1           0      -12.132030   -1.069833    1.401694
    125          1           0      -13.480751    0.018829    3.400202
    126          1           0      -13.500229   -1.625639    3.168757
    127          1           0      -14.880008   -0.622186    2.623191
    128          1           0      -13.172234    1.694270    2.159892
    129          1           0      -12.496655    1.718119    0.608451
    130          1           0      -10.399542    1.732320    1.801562
    131          1           0      -10.729883    0.196060    2.430004
    132          1           0      -10.250247    1.619032    4.323160
    133          1           0      -11.997676    1.635591    4.408934
    134          1           0      -10.529001    3.746219    2.855635
    135          1           0      -10.308611    3.204413    5.908444
    136          1           0      -10.874702    4.888175    5.438337
    137          1           0       -9.388846    4.263814    4.815340
    138          1           0      -12.555381    5.013059    4.004189
    139          1           0      -13.234205    3.374812    4.087821
    140          1           0      -12.770950    3.896801    2.573898
 ---------------------------------------------------------------------

 SCF Done:  E(RB-LYP) =  -3007.36215355     A.U. after   22 cycles

 Excitation energies and oscillator strengths:

 Excited State   1:      Singlet-A      1.7945 eV  690.90 nm  f=0.0059  <S**2>=0.000
     244 -> 247        0.66766
     245 -> 247       -0.20952
 This state for optimization and/or second-order correction.
 Total Energy, E(TD-HF/TD-DFT) =  -3007.29620561
 Copying the excited state density for this state as the 1-particle RhoCI density.

 Excited State   2:      Singlet-A      1.8459 eV  671.66 nm  f=0.2968  <S**2>=0.000
     245 -> 248        0.18615
     246 -> 247        0.67473
     246 <- 247       -0.13958

 Excited State   3:      Singlet-A      1.8936 eV  654.77 nm  f=0.0064  <S**2>=0.000
     243 -> 247        0.69401

 Excited State   4:      Singlet-A      2.0272 eV  611.60 nm  f=0.0750  <S**2>=0.000
     244 -> 247        0.19754
     245 -> 247        0.61211
     246 -> 248       -0.23636

 Excited State   5:      Singlet-A      2.5763 eV  481.24 nm  f=0.0001  <S**2>=0.000
     241 -> 247        0.65708
     242 -> 247       -0.24573

 The electronic state is 1-A.
 Alpha  occ. eigenvalues --  -46.28376 -18.82320 -18.81295 -18.77691 -18.75529
 Alpha  occ. eigenvalues --  -18.75262 -18.74979 -14.03053 -14.02795 -14.01837
 Alpha  occ. eigenvalues --  -14.00946 -10.04802 -10.03159  -9.99486  -9.99169
 Alpha  occ. eigenvalues --   -9.98183  -9.96668  -9.96439  -9.96351  -9.96259
 Alpha  occ. eigenvalues --   -9.96115  -9.96035  -9.95961  -9.95246  -9.94649
 Alpha  occ. eigenvalues --   -9.94408  -9.94248  -9.94182  -9.94119  -9.94085
 Alpha  occ. eigenvalues --   -9.93875  -9.93819  -9.93651  -9.93428  -9.93220
 Alpha  occ. eigenvalues --   -9.93183  -9.93048  -9.92978  -9.92957  -9.92896
 Alpha  occ. eigenvalues --   -9.92663  -9.92633  -9.92605  -9.92437  -9.92362
 Alpha  occ. eigenvalues --   -9.92247  -9.92207  -9.92106  -9.92015  -9.91836
 Alpha  occ. eigenvalues --   -9.91798  -9.91684  -9.91671  -9.91573  -9.91484
 Alpha  occ. eigenvalues --   -9.91452  -9.91365  -9.91355  -9.91353  -9.91330
 Alpha  occ. eigenvalues --   -9.91185  -9.90685  -9.90669  -9.90513  -9.90480
 Alpha  occ. eigenvalues --   -9.90287  -2.92842  -1.73259  -1.72755  -1.72533
 Alpha  occ. eigenvalues --   -0.97794  -0.97187  -0.91047  -0.89962  -0.89429
 Alpha  occ. eigenvalues --   -0.88377  -0.87205  -0.86684  -0.85793  -0.85341
 Alpha  occ. eigenvalues --   -0.74970  -0.74282  -0.73334  -0.72307  -0.71979
 Alpha  occ. eigenvalues --   -0.71970  -0.71400  -0.70908  -0.70530  -0.70369
 Alpha  occ. eigenvalues --   -0.70185  -0.68923  -0.68397  -0.67176  -0.66836
 Alpha  occ. eigenvalues --   -0.66509  -0.65492  -0.64867  -0.64734  -0.64174
 Alpha  occ. eigenvalues --   -0.64105  -0.62774  -0.62350  -0.61450  -0.60987
 Alpha  occ. eigenvalues --   -0.60542  -0.60135  -0.59611  -0.59535  -0.59259
 Alpha  occ. eigenvalues --   -0.58352  -0.57967  -0.56317  -0.55702  -0.54212
 Alpha  occ. eigenvalues --   -0.54018  -0.53617  -0.53472  -0.52013  -0.51220
 Alpha  occ. eigenvalues --   -0.51111  -0.50914  -0.50705  -0.50222  -0.50071
 Alpha  occ. eigenvalues --   -0.49812  -0.49276  -0.48970  -0.47802  -0.46854
 Alpha  occ. eigenvalues --   -0.46267  -0.45992  -0.45496  -0.45035  -0.44403
 Alpha  occ. eigenvalues --   -0.43649  -0.43457  -0.43032  -0.42557  -0.42138
 Alpha  occ. eigenvalues --   -0.41869  -0.41686  -0.41235  -0.41180  -0.41017
 Alpha  occ. eigenvalues --   -0.40607  -0.40581  -0.40285  -0.40110  -0.39898
 Alpha  occ. eigenvalues --   -0.39762  -0.39656  -0.39458  -0.39210  -0.39076
 Alpha  occ. eigenvalues --   -0.38922  -0.38771  -0.38672  -0.38537  -0.38386
 Alpha  occ. eigenvalues --   -0.38123  -0.38049  -0.37801  -0.37358  -0.37316
 Alpha  occ. eigenvalues --   -0.37214  -0.37068  -0.36677  -0.36435  -0.36183
 Alpha  occ. eigenvalues --   -0.36050  -0.35919  -0.35883  -0.35724  -0.35498
 Alpha  occ. eigenvalues --   -0.35307  -0.35246  -0.35160  -0.34811  -0.34738
 Alpha  occ. eigenvalues --   -0.34647  -0.34350  -0.34288  -0.33982  -0.33883
 Alpha  occ. eigenvalues --   -0.33823  -0.33780  -0.33630  -0.33573  -0.33448
 Alpha  occ. eigenvalues --   -0.33006  -0.32704  -0.32602  -0.32367  -0.32069
 Alpha  occ. eigenvalues --   -0.31911  -0.31819  -0.31598  -0.31377  -0.31307
 Alpha  occ. eigenvalues --   -0.31065  -0.30964  -0.30943  -0.30738  -0.30630
 Alpha  occ. eigenvalues --   -0.30531  -0.30456  -0.30359  -0.30193  -0.30019
 Alpha  occ. eigenvalues --   -0.29867  -0.29595  -0.29259  -0.28819  -0.28743
 Alpha  occ. eigenvalues --   -0.28551  -0.28442  -0.28097  -0.27933  -0.27816
 Alpha  occ. eigenvalues --   -0.27679  -0.27263  -0.27196  -0.26770  -0.26461
 Alpha  occ. eigenvalues --   -0.26067  -0.25963  -0.25799  -0.25659  -0.25090
 Alpha  occ. eigenvalues --   -0.24986  -0.24494  -0.23831  -0.23788  -0.23756
 Alpha  occ. eigenvalues --   -0.23114  -0.22366  -0.22009  -0.21068  -0.20949
 Alpha  occ. eigenvalues --   -0.20824  -0.20722  -0.18213  -0.17909  -0.17065
 Alpha  occ. eigenvalues --   -0.15810
 Alpha virt. eigenvalues --   -0.11352  -0.06916  -0.06010  -0.04821  -0.03875
 Alpha virt. eigenvalues --   -0.03262  -0.01961  -0.01616  -0.01480   0.00178
 Alpha virt. eigenvalues --    0.01338   0.01942   0.02258   0.02566   0.02967

 Mulliken charges:
               1
     1  Mg   0.689272
     2  C   -0.003752
     3  C   -0.074376
     4  C   -0.000963
     5  C   -0.076361
     6  N   -0.189322
     7  C   -0.105651
     8  C    0.005615
     9  C   -0.036180
    10  C    0.024233
    11  C    0.142901
    12  C    0.118506
    13  C    0.144187
    14  C    0.085868
    15  O   -0.200784
    16  O   -0.287829
    17  N   -0.283574
    18  C    0.137192
    19  C   -0.159817
    20  C    0.090984
    21  C    0.173824
    22  C    0.151023
    23  C   -0.110680
    24  O   -0.169904
    25  C    0.128854
    26  N   -0.184964
    27  C   -0.103965
    28  C    0.037308
    29  C    0.020157
    30  C    0.000519
    31  C    0.098753
    32  C    0.083893
    33  C    0.053344
    34  N   -0.222184
    35  C    0.114301
    36  C   -0.198426
    37  C    0.093875
    38  C    0.096084
    39  C    0.192308
    40  C   -0.049068
    41  O   -0.165428
    42  C    0.088855
    43  C    0.099944
    44  O   -0.190350
    45  O   -0.262343
    46  C    0.199822
    47  C    0.288936
    48  C   -0.083469
    49  C   -0.155562
    50  C    0.168717
    51  C    0.111910
    52  C    0.075935
    53  C    0.102825
    54  C   -0.145104
    55  C    0.111073
    56  C    0.122752
    57  C    0.118063
    58  C    0.104152
    59  C   -0.087915
    60  C    0.110244
    61  C    0.106946
    62  C    0.073720
    63  C    0.083466
    64  C   -0.106647
    65  C    0.105248
    66  C    0.096675
    67  H   -0.061862
    68  H   -0.047270
    69  H   -0.064126
    70  H    0.006960
    71  H   -0.038307
    72  H   -0.008239
    73  H   -0.006289
    74  H    0.015311
    75  H   -0.007770
    76  H   -0.008170
    77  H   -0.017420
    78  H    0.004708
    79  H   -0.007635
    80  H   -0.008958
    81  H    0.007980
    82  H   -0.017836
    83  H   -0.012346
    84  H    0.030270
    85  H   -0.024720
    86  H   -0.014733
    87  H    0.001199
    88  H   -0.003688
    89  H    0.013009
    90  H   -0.031096
    91  H   -0.014910
    92  H   -0.008094
    93  H   -0.016032
    94  H    0.002203
    95  H   -0.011258
    96  H    0.020847
    97  H    0.010603
    98  H   -0.004444
    99  H    0.025796
   100  H    0.024368
   101  H    0.006445
   102  H    0.006556
   103  H   -0.001961
   104  H   -0.024724
   105  H    0.012712
   106  H    0.013357
   107  H   -0.011288
   108  H   -0.043396
   109  H   -0.028053
   110  H   -0.034556
   111  H   -0.041687
   112  H   -0.029786
   113  H   -0.013235
   114  H   -0.036542
   115  H   -0.013650
   116  H   -0.011050
   117  H    0.006397
   118  H   -0.060607
   119  H   -0.031166
   120  H   -0.021694
   121  H   -0.035672
   122  H   -0.051155
   123  H   -0.042272
   124  H   -0.030606
   125  H   -0.043493
   126  H   -0.026166
   127  H   -0.010487
   128  H   -0.037629
   129  H   -0.029127
   130  H   -0.037014
   131  H   -0.029597
   132  H   -0.042642
   133  H   -0.025660
   134  H   -0.033471
   135  H    0.001034
   136  H   -0.018257
   137  H   -0.017088
   138  H   -0.016411
   139  H   -0.023233
   140  H   -0.018842
 Sum of Mulliken charges =  -0.00000

 Dipole moment (field-independent basis, Debye):
    X=             -3.8095    Y=              4.1426    Z=              1.5537  Tot=              5.8384
 Quadrupole moment (field-independent basis, Debye-Ang):
   XX=           -386.4054   YY=           -430.4897   ZZ=           -401.4125
   XY=              0.9860   XZ=             28.5343   YZ=             -3.5634

 Normal termination of Gaussian 16 at Wed May  4 05:02:48 2022.
