 Gaussian 16, Revision A.03,
 Gaussian 16:  ES64L-G16RevA.03 25-Dec-2016

 -----------------------------------
 #p cam-b3lyp/Def2SVP td=(nstates=5)
 -----------------------------------

 -------------------------------------------------------
 step_1351_chromophore_7 TDDFT with cam-b3lyp functional
 -------------------------------------------------------
 Symbolic Z-matrix:
 Charge =  0 Multiplicity = 1

                         Standard orientation:
 ---------------------------------------------------------------------
 Center     Atomic      Atomic             Coordinates (Angstroms)
 Number     Number       Type             X           Y           Z
 ---------------------------------------------------------------------
      1         12           0        5.677760    0.562327    0.351910
      2          6           0        3.415854   -2.225281    0.118017
      3          6           0        3.349186    2.461980   -1.232354
      4          6           0        8.078264    2.804346    0.078190
      5          6           0        8.109864   -1.783241    1.634902
      6          7           0        3.582912    0.074033   -0.449732
      7          6           0        2.828383   -1.031523   -0.354164
      8          6           0        1.386688   -0.756151   -0.724454
      9          6           0        1.499336    0.716513   -1.310302
     10          6           0        2.892365    1.174172   -0.904744
     11          6           0        1.123422    0.908814   -2.833149
     12          6           0        0.441319   -0.886289    0.548963
     13          6           0       -0.773788   -1.822982    0.456429
     14          6           0       -1.650622   -1.763074   -0.828623
     15          8           0       -1.375635   -2.309069   -1.885451
     16          8           0       -2.771767   -0.940562   -0.728203
     17          7           0        5.672369    2.420032   -0.472718
     18          6           0        4.650519    2.968603   -1.024920
     19          6           0        5.089677    4.375626   -1.379898
     20          6           0        6.514221    4.410267   -1.168417
     21          6           0        6.840895    3.188243   -0.483651
     22          6           0        4.139722    5.427908   -1.951920
     23          6           0        7.426261    5.538774   -1.448951
     24          8           0        8.624254    5.505331   -1.186789
     25          6           0        6.981697    6.799435   -2.207000
     26          7           0        7.905189    0.437789    0.711086
     27          6           0        8.563704    1.601211    0.679734
     28          6           0       10.053707    1.404280    1.163771
     29          6           0       10.081039   -0.096077    1.696387
     30          6           0        8.610692   -0.487327    1.436643
     31          6           0       11.068181    1.761034   -0.014780
     32          6           0       10.427454   -0.225745    3.228615
     33          6           0       11.842402   -0.826103    3.439202
     34          7           0        5.813517   -1.486064    0.804701
     35          6           0        6.808897   -2.312371    1.331051
     36          6           0        6.384349   -3.668846    1.532743
     37          6           0        5.086411   -3.570425    1.114104
     38          6           0        4.790026   -2.301975    0.619586
     39          6           0        7.223591   -4.843249    1.980785
     40          6           0        3.930197   -4.437275    0.913888
     41          8           0        3.821970   -5.657659    1.168804
     42          6           0        2.772596   -3.553767    0.341293
     43          6           0        2.231619   -4.235426   -0.907897
     44          8           0        2.745702   -4.270001   -2.025662
     45          8           0        1.008142   -4.779838   -0.653401
     46          6           0        0.407623   -5.537145   -1.727374
     47          6           0       -3.514248   -0.775034   -1.998663
     48          6           0       -4.822823   -0.059150   -1.561018
     49          6           0       -5.952917   -0.346822   -2.181007
     50          6           0       -6.169259   -0.935328   -3.532657
     51          6           0       -7.196253    0.354446   -1.570479
     52          6           0       -8.411865   -0.477275   -1.252669
     53          6           0       -9.799354    0.194624   -1.300993
     54          6           0      -10.759529   -0.598398   -2.300496
     55          6           0      -10.463000   -0.275585   -3.783097
     56          6           0      -12.230920   -0.315249   -1.862900
     57          6           0      -12.930067   -1.331548   -1.000340
     58          6           0      -13.735681   -0.577036    0.084468
     59          6           0      -12.959072   -0.361266    1.362068
     60          6           0      -13.793790   -0.710600    2.653801
     61          6           0      -12.483223    1.133763    1.529119
     62          6           0      -11.171007    1.189562    2.348456
     63          6           0      -11.151213    1.888770    3.770845
     64          6           0      -11.054461    3.438592    3.760138
     65          6           0      -10.387863    3.963741    5.130019
     66          6           0      -12.473107    3.996725    3.618264
     67          1           0        2.588489    3.120198   -1.658545
     68          1           0        8.951959    3.445266    0.214318
     69          1           0        8.864430   -2.445151    2.065188
     70          1           0        1.048031   -1.353381   -1.570700
     71          1           0        0.804431    1.310964   -0.715862
     72          1           0        2.049454    1.332091   -3.222190
     73          1           0        0.346790    1.662874   -2.955536
     74          1           0        0.892514   -0.080715   -3.228158
     75          1           0        0.008328    0.068351    0.846462
     76          1           0        1.161040   -1.233770    1.290679
     77          1           0       -1.441603   -1.639582    1.298518
     78          1           0       -0.465339   -2.857467    0.610059
     79          1           0        3.232173    5.061724   -2.431617
     80          1           0        4.706193    6.004189   -2.683184
     81          1           0        3.806013    6.163235   -1.220064
     82          1           0        7.658400    7.640701   -2.056708
     83          1           0        6.079216    7.034784   -1.643016
     84          1           0        6.906646    6.686199   -3.288278
     85          1           0       10.171404    2.077745    2.013132
     86          1           0       10.864570   -0.614418    1.143562
     87          1           0       10.505992    1.608264   -0.936547
     88          1           0       11.968939    1.159589   -0.136423
     89          1           0       11.328077    2.818166    0.036763
     90          1           0        9.767441   -1.022160    3.570078
     91          1           0       10.233484    0.647287    3.851878
     92          1           0       11.731886   -1.881858    3.685299
     93          1           0       12.310036   -0.428268    4.340263
     94          1           0       12.478678   -0.658553    2.569903
     95          1           0        8.282035   -4.690834    1.769419
     96          1           0        6.848118   -5.653779    1.354939
     97          1           0        7.092193   -4.988183    3.053000
     98          1           0        1.926857   -3.505069    1.027038
     99          1           0        1.130732   -5.846673   -2.482714
    100          1           0       -0.389555   -4.895672   -2.102656
    101          1           0        0.001251   -6.447345   -1.287031
    102          1           0       -3.693405   -1.739203   -2.474019
    103          1           0       -2.902857   -0.174986   -2.673480
    104          1           0       -4.885189    0.345652   -0.551498
    105          1           0       -5.981979   -2.009689   -3.516293
    106          1           0       -5.488154   -0.393035   -4.186923
    107          1           0       -7.198166   -0.772723   -3.853016
    108          1           0       -7.547459    0.863093   -2.468325
    109          1           0       -7.075365    1.121266   -0.805532
    110          1           0       -8.170265   -0.838934   -0.253061
    111          1           0       -8.502495   -1.309707   -1.949922
    112          1           0       -9.633381    1.224144   -1.616157
    113          1           0      -10.363463    0.132922   -0.369838
    114          1           0      -10.593318   -1.672606   -2.219333
    115          1           0      -10.174449    0.775864   -3.778751
    116          1           0      -11.363753   -0.366346   -4.389106
    117          1           0       -9.669409   -0.998646   -3.975100
    118          1           0      -12.734871   -0.302637   -2.829161
    119          1           0      -12.378931    0.683263   -1.452767
    120          1           0      -12.287116   -2.082091   -0.539685
    121          1           0      -13.759491   -1.793647   -1.535998
    122          1           0      -14.671366   -1.091775    0.300894
    123          1           0      -14.042412    0.419946   -0.231770
    124          1           0      -12.132030   -1.069833    1.401694
    125          1           0      -13.480751    0.018829    3.400202
    126          1           0      -13.500229   -1.625639    3.168757
    127          1           0      -14.880008   -0.622186    2.623191
    128          1           0      -13.172234    1.694270    2.159892
    129          1           0      -12.496655    1.718119    0.608451
    130          1           0      -10.399542    1.732320    1.801562
    131          1           0      -10.729883    0.196060    2.430004
    132          1           0      -10.250247    1.619032    4.323160
    133          1           0      -11.997676    1.635591    4.408934
    134          1           0      -10.529001    3.746219    2.855635
    135          1           0      -10.308611    3.204413    5.908444
    136          1           0      -10.874702    4.888175    5.438337
    137          1           0       -9.388846    4.263814    4.815340
    138          1           0      -12.555381    5.013059    4.004189
    139          1           0      -13.234205    3.374812    4.087821
    140          1           0      -12.770950    3.896801    2.573898
 ---------------------------------------------------------------------

 SCF Done:  E(RCAM-B3LYP) =  -3007.15448916     A.U. after   19 cycles

 Excitation energies and oscillator strengths:

 Excited State   1:      Singlet-A      1.7548 eV  706.55 nm  f=0.3730  <S**2>=0.000
     245 -> 248        0.18660
     246 -> 247        0.68183
     245 <- 248        0.10687
 This state for optimization and/or second-order correction.
 Total Energy, E(TD-HF/TD-DFT) =  -3007.09000234
 Copying the excited state density for this state as the 1-particle RhoCI density.

 Excited State   2:      Singlet-A      2.2536 eV  550.16 nm  f=0.1156  <S**2>=0.000
     245 -> 247        0.63778
     246 -> 248       -0.29355

 Excited State   3:      Singlet-A      3.4380 eV  360.63 nm  f=0.0187  <S**2>=0.000
     240 -> 247       -0.16974
     240 -> 249       -0.11380
     241 -> 247        0.17189
     241 -> 249        0.11534
     242 -> 247        0.45446
     242 -> 248       -0.17288
     242 -> 249        0.30471
     242 -> 251        0.15159
     246 -> 248       -0.10857

 Excited State   4:      Singlet-A      3.5009 eV  354.15 nm  f=0.0253  <S**2>=0.000
     243 -> 247        0.29769
     243 -> 249       -0.16992
     243 -> 251        0.21641
     244 -> 247        0.46853
     244 -> 249       -0.17874
     244 -> 251        0.19268
     246 -> 248        0.14070

 Excited State   5:      Singlet-A      3.5521 eV  349.04 nm  f=0.6084  <S**2>=0.000
     240 -> 247        0.18798
     242 -> 247        0.13133
     243 -> 247       -0.11677
     245 -> 247        0.25849
     246 -> 248        0.58048
     245 <- 247       -0.10101

 The electronic state is 1-A.
 Alpha  occ. eigenvalues --  -46.90054 -19.25083 -19.24057 -19.20637 -19.18493
 Alpha  occ. eigenvalues --  -19.18464 -19.18203 -14.41876 -14.41705 -14.40488
 Alpha  occ. eigenvalues --  -14.39229 -10.40096 -10.38485 -10.34911 -10.34328
 Alpha  occ. eigenvalues --  -10.32212 -10.31356 -10.31146 -10.30890 -10.30865
 Alpha  occ. eigenvalues --  -10.30659 -10.30072 -10.29820 -10.29740 -10.29076
 Alpha  occ. eigenvalues --  -10.28492 -10.28211 -10.28139 -10.28127 -10.28057
 Alpha  occ. eigenvalues --  -10.28038 -10.27872 -10.27678 -10.27654 -10.27424
 Alpha  occ. eigenvalues --  -10.27402 -10.27188 -10.27124 -10.27064 -10.27025
 Alpha  occ. eigenvalues --  -10.26840 -10.26666 -10.26310 -10.26089 -10.26010
 Alpha  occ. eigenvalues --  -10.25996 -10.25994 -10.25981 -10.25875 -10.25755
 Alpha  occ. eigenvalues --  -10.25469 -10.25448 -10.25388 -10.25370 -10.25287
 Alpha  occ. eigenvalues --  -10.25169 -10.25070 -10.24993 -10.24985 -10.24947
 Alpha  occ. eigenvalues --  -10.24781 -10.24324 -10.24279 -10.24138 -10.24089
 Alpha  occ. eigenvalues --  -10.23987  -3.18414  -1.93309  -1.92877  -1.92704
 Alpha  occ. eigenvalues --   -1.16172  -1.15560  -1.09731  -1.07700  -1.07536
 Alpha  occ. eigenvalues --   -1.06173  -1.05117  -1.04201  -1.03450  -1.02897
 Alpha  occ. eigenvalues --   -0.91934  -0.91169  -0.90151  -0.88997  -0.88731
 Alpha  occ. eigenvalues --   -0.88672  -0.88036  -0.87486  -0.87288  -0.87098
 Alpha  occ. eigenvalues --   -0.86691  -0.85256  -0.84684  -0.83318  -0.82939
 Alpha  occ. eigenvalues --   -0.82571  -0.81470  -0.80897  -0.80577  -0.80054
 Alpha  occ. eigenvalues --   -0.79931  -0.78633  -0.77889  -0.76920  -0.76329
 Alpha  occ. eigenvalues --   -0.75843  -0.75504  -0.74874  -0.74802  -0.74523
 Alpha  occ. eigenvalues --   -0.73393  -0.72968  -0.71201  -0.70483  -0.68832
 Alpha  occ. eigenvalues --   -0.68629  -0.68499  -0.67907  -0.66330  -0.65299
 Alpha  occ. eigenvalues --   -0.65249  -0.65062  -0.64633  -0.64249  -0.64093
 Alpha  occ. eigenvalues --   -0.63590  -0.63220  -0.62906  -0.61402  -0.60698
 Alpha  occ. eigenvalues --   -0.59852  -0.59487  -0.58839  -0.58282  -0.57821
 Alpha  occ. eigenvalues --   -0.57023  -0.56630  -0.56373  -0.55713  -0.55205
 Alpha  occ. eigenvalues --   -0.54942  -0.54633  -0.54398  -0.54116  -0.53892
 Alpha  occ. eigenvalues --   -0.53616  -0.53130  -0.53106  -0.52838  -0.52663
 Alpha  occ. eigenvalues --   -0.52531  -0.52213  -0.52023  -0.51945  -0.51628
 Alpha  occ. eigenvalues --   -0.51465  -0.51300  -0.51144  -0.51074  -0.50993
 Alpha  occ. eigenvalues --   -0.50456  -0.50352  -0.50082  -0.49710  -0.49570
 Alpha  occ. eigenvalues --   -0.49424  -0.49268  -0.49229  -0.48877  -0.48608
 Alpha  occ. eigenvalues --   -0.48333  -0.48148  -0.48099  -0.47880  -0.47687
 Alpha  occ. eigenvalues --   -0.47550  -0.47323  -0.47097  -0.46861  -0.46664
 Alpha  occ. eigenvalues --   -0.46467  -0.46336  -0.46268  -0.45925  -0.45662
 Alpha  occ. eigenvalues --   -0.45658  -0.45460  -0.45378  -0.45168  -0.45048
 Alpha  occ. eigenvalues --   -0.44629  -0.44339  -0.44124  -0.44057  -0.43966
 Alpha  occ. eigenvalues --   -0.43613  -0.43218  -0.43149  -0.43122  -0.42981
 Alpha  occ. eigenvalues --   -0.42879  -0.42532  -0.42424  -0.42223  -0.42006
 Alpha  occ. eigenvalues --   -0.41898  -0.41849  -0.41599  -0.41448  -0.41402
 Alpha  occ. eigenvalues --   -0.41090  -0.40907  -0.40701  -0.40346  -0.39867
 Alpha  occ. eigenvalues --   -0.39596  -0.39510  -0.38978  -0.38875  -0.38690
 Alpha  occ. eigenvalues --   -0.38508  -0.38165  -0.38055  -0.37615  -0.37529
 Alpha  occ. eigenvalues --   -0.37073  -0.36736  -0.36666  -0.36486  -0.36195
 Alpha  occ. eigenvalues --   -0.35463  -0.35147  -0.34950  -0.34364  -0.34219
 Alpha  occ. eigenvalues --   -0.34166  -0.33423  -0.32867  -0.31057  -0.30635
 Alpha  occ. eigenvalues --   -0.30477  -0.30471  -0.30232  -0.29927  -0.23763
 Alpha  occ. eigenvalues --   -0.21147
 Alpha virt. eigenvalues --   -0.08383  -0.01743   0.00396   0.01597   0.02201
 Alpha virt. eigenvalues --    0.04062   0.05485   0.05664   0.06373   0.06924
 Alpha virt. eigenvalues --    0.08155   0.08593   0.08797   0.09191   0.09265

 Mulliken charges:
               1
     1  Mg   0.819803
     2  C   -0.029521
     3  C   -0.096636
     4  C   -0.018708
     5  C   -0.070004
     6  N   -0.264158
     7  C   -0.057586
     8  C   -0.047075
     9  C   -0.084627
    10  C    0.049965
    11  C    0.083690
    12  C    0.067909
    13  C    0.078496
    14  C    0.162587
    15  O   -0.241848
    16  O   -0.353384
    17  N   -0.378489
    18  C    0.156001
    19  C   -0.160246
    20  C    0.018522
    21  C    0.195046
    22  C    0.090465
    23  C   -0.033908
    24  O   -0.208162
    25  C    0.049982
    26  N   -0.245919
    27  C   -0.080522
    28  C   -0.016018
    29  C   -0.029934
    30  C    0.004966
    31  C    0.038989
    32  C    0.029661
    33  C   -0.006154
    34  N   -0.310686
    35  C    0.106483
    36  C   -0.188920
    37  C    0.001774
    38  C    0.131312
    39  C    0.143546
    40  C    0.052347
    41  O   -0.205907
    42  C    0.009838
    43  C    0.190734
    44  O   -0.229130
    45  O   -0.326299
    46  C    0.161938
    47  C    0.258281
    48  C   -0.103654
    49  C   -0.164896
    50  C    0.099547
    51  C    0.047155
    52  C    0.024405
    53  C    0.055042
    54  C   -0.194999
    55  C    0.056040
    56  C    0.067362
    57  C    0.055979
    58  C    0.049673
    59  C   -0.141956
    60  C    0.057091
    61  C    0.048771
    62  C    0.019356
    63  C    0.031230
    64  C   -0.162166
    65  C    0.043539
    66  C    0.037682
    67  H   -0.026662
    68  H   -0.006158
    69  H   -0.029557
    70  H    0.040834
    71  H   -0.002477
    72  H    0.017589
    73  H    0.017326
    74  H    0.039566
    75  H    0.021053
    76  H    0.023042
    77  H    0.018292
    78  H    0.034961
    79  H    0.021727
    80  H    0.019768
    81  H    0.036311
    82  H    0.019061
    83  H    0.014027
    84  H    0.058145
    85  H    0.009207
    86  H    0.018620
    87  H    0.026887
    88  H    0.021046
    89  H    0.035611
    90  H   -0.000958
    91  H    0.013064
    92  H    0.014668
    93  H    0.009253
    94  H    0.022124
    95  H    0.012456
    96  H    0.046503
    97  H    0.036169
    98  H    0.036466
    99  H    0.051868
   100  H    0.045462
   101  H    0.028172
   102  H    0.034916
   103  H    0.024083
   104  H    0.010562
   105  H    0.037650
   106  H    0.038175
   107  H    0.011810
   108  H   -0.017044
   109  H    0.002873
   110  H   -0.005255
   111  H   -0.015387
   112  H   -0.002106
   113  H    0.009403
   114  H   -0.004760
   115  H    0.008476
   116  H    0.014130
   117  H    0.025282
   118  H   -0.028712
   119  H   -0.005226
   120  H    0.005856
   121  H   -0.004047
   122  H   -0.018626
   123  H   -0.012756
   124  H   -0.000553
   125  H   -0.022408
   126  H   -0.000058
   127  H    0.013545
   128  H   -0.009890
   129  H   -0.001698
   130  H   -0.009668
   131  H   -0.000956
   132  H   -0.011448
   133  H   -0.000497
   134  H   -0.002299
   135  H    0.024139
   136  H    0.005686
   137  H    0.007305
   138  H    0.008717
   139  H   -0.000320
   140  H    0.003942
 Sum of Mulliken charges =  -0.00000

 Dipole moment (field-independent basis, Debye):
    X=             -3.6446    Y=              5.2975    Z=              1.4451  Tot=              6.5905
 Quadrupole moment (field-independent basis, Debye-Ang):
   XX=           -383.1286   YY=           -426.1407   ZZ=           -400.8359
   XY=              6.8716   XZ=             27.9465   YZ=             -5.4213

 Normal termination of Gaussian 16 at Wed May  4 04:05:37 2022.
