 Gaussian 16, Revision A.03,
 Gaussian 16:  ES64L-G16RevA.03 25-Dec-2016

 ---------------------------------
 #p PBE1PBE/Def2SVP td=(nstates=5)
 ---------------------------------

 -----------------------------------------------------
 step_1351_chromophore_7 TDDFT with PBE1PBE functional
 -----------------------------------------------------
 Symbolic Z-matrix:
 Charge =  0 Multiplicity = 1

                         Standard orientation:
 ---------------------------------------------------------------------
 Center     Atomic      Atomic             Coordinates (Angstroms)
 Number     Number       Type             X           Y           Z
 ---------------------------------------------------------------------
      1         12           0        5.677760    0.562327    0.351910
      2          6           0        3.415854   -2.225281    0.118017
      3          6           0        3.349186    2.461980   -1.232354
      4          6           0        8.078264    2.804346    0.078190
      5          6           0        8.109864   -1.783241    1.634902
      6          7           0        3.582912    0.074033   -0.449732
      7          6           0        2.828383   -1.031523   -0.354164
      8          6           0        1.386688   -0.756151   -0.724454
      9          6           0        1.499336    0.716513   -1.310302
     10          6           0        2.892365    1.174172   -0.904744
     11          6           0        1.123422    0.908814   -2.833149
     12          6           0        0.441319   -0.886289    0.548963
     13          6           0       -0.773788   -1.822982    0.456429
     14          6           0       -1.650622   -1.763074   -0.828623
     15          8           0       -1.375635   -2.309069   -1.885451
     16          8           0       -2.771767   -0.940562   -0.728203
     17          7           0        5.672369    2.420032   -0.472718
     18          6           0        4.650519    2.968603   -1.024920
     19          6           0        5.089677    4.375626   -1.379898
     20          6           0        6.514221    4.410267   -1.168417
     21          6           0        6.840895    3.188243   -0.483651
     22          6           0        4.139722    5.427908   -1.951920
     23          6           0        7.426261    5.538774   -1.448951
     24          8           0        8.624254    5.505331   -1.186789
     25          6           0        6.981697    6.799435   -2.207000
     26          7           0        7.905189    0.437789    0.711086
     27          6           0        8.563704    1.601211    0.679734
     28          6           0       10.053707    1.404280    1.163771
     29          6           0       10.081039   -0.096077    1.696387
     30          6           0        8.610692   -0.487327    1.436643
     31          6           0       11.068181    1.761034   -0.014780
     32          6           0       10.427454   -0.225745    3.228615
     33          6           0       11.842402   -0.826103    3.439202
     34          7           0        5.813517   -1.486064    0.804701
     35          6           0        6.808897   -2.312371    1.331051
     36          6           0        6.384349   -3.668846    1.532743
     37          6           0        5.086411   -3.570425    1.114104
     38          6           0        4.790026   -2.301975    0.619586
     39          6           0        7.223591   -4.843249    1.980785
     40          6           0        3.930197   -4.437275    0.913888
     41          8           0        3.821970   -5.657659    1.168804
     42          6           0        2.772596   -3.553767    0.341293
     43          6           0        2.231619   -4.235426   -0.907897
     44          8           0        2.745702   -4.270001   -2.025662
     45          8           0        1.008142   -4.779838   -0.653401
     46          6           0        0.407623   -5.537145   -1.727374
     47          6           0       -3.514248   -0.775034   -1.998663
     48          6           0       -4.822823   -0.059150   -1.561018
     49          6           0       -5.952917   -0.346822   -2.181007
     50          6           0       -6.169259   -0.935328   -3.532657
     51          6           0       -7.196253    0.354446   -1.570479
     52          6           0       -8.411865   -0.477275   -1.252669
     53          6           0       -9.799354    0.194624   -1.300993
     54          6           0      -10.759529   -0.598398   -2.300496
     55          6           0      -10.463000   -0.275585   -3.783097
     56          6           0      -12.230920   -0.315249   -1.862900
     57          6           0      -12.930067   -1.331548   -1.000340
     58          6           0      -13.735681   -0.577036    0.084468
     59          6           0      -12.959072   -0.361266    1.362068
     60          6           0      -13.793790   -0.710600    2.653801
     61          6           0      -12.483223    1.133763    1.529119
     62          6           0      -11.171007    1.189562    2.348456
     63          6           0      -11.151213    1.888770    3.770845
     64          6           0      -11.054461    3.438592    3.760138
     65          6           0      -10.387863    3.963741    5.130019
     66          6           0      -12.473107    3.996725    3.618264
     67          1           0        2.588489    3.120198   -1.658545
     68          1           0        8.951959    3.445266    0.214318
     69          1           0        8.864430   -2.445151    2.065188
     70          1           0        1.048031   -1.353381   -1.570700
     71          1           0        0.804431    1.310964   -0.715862
     72          1           0        2.049454    1.332091   -3.222190
     73          1           0        0.346790    1.662874   -2.955536
     74          1           0        0.892514   -0.080715   -3.228158
     75          1           0        0.008328    0.068351    0.846462
     76          1           0        1.161040   -1.233770    1.290679
     77          1           0       -1.441603   -1.639582    1.298518
     78          1           0       -0.465339   -2.857467    0.610059
     79          1           0        3.232173    5.061724   -2.431617
     80          1           0        4.706193    6.004189   -2.683184
     81          1           0        3.806013    6.163235   -1.220064
     82          1           0        7.658400    7.640701   -2.056708
     83          1           0        6.079216    7.034784   -1.643016
     84          1           0        6.906646    6.686199   -3.288278
     85          1           0       10.171404    2.077745    2.013132
     86          1           0       10.864570   -0.614418    1.143562
     87          1           0       10.505992    1.608264   -0.936547
     88          1           0       11.968939    1.159589   -0.136423
     89          1           0       11.328077    2.818166    0.036763
     90          1           0        9.767441   -1.022160    3.570078
     91          1           0       10.233484    0.647287    3.851878
     92          1           0       11.731886   -1.881858    3.685299
     93          1           0       12.310036   -0.428268    4.340263
     94          1           0       12.478678   -0.658553    2.569903
     95          1           0        8.282035   -4.690834    1.769419
     96          1           0        6.848118   -5.653779    1.354939
     97          1           0        7.092193   -4.988183    3.053000
     98          1           0        1.926857   -3.505069    1.027038
     99          1           0        1.130732   -5.846673   -2.482714
    100          1           0       -0.389555   -4.895672   -2.102656
    101          1           0        0.001251   -6.447345   -1.287031
    102          1           0       -3.693405   -1.739203   -2.474019
    103          1           0       -2.902857   -0.174986   -2.673480
    104          1           0       -4.885189    0.345652   -0.551498
    105          1           0       -5.981979   -2.009689   -3.516293
    106          1           0       -5.488154   -0.393035   -4.186923
    107          1           0       -7.198166   -0.772723   -3.853016
    108          1           0       -7.547459    0.863093   -2.468325
    109          1           0       -7.075365    1.121266   -0.805532
    110          1           0       -8.170265   -0.838934   -0.253061
    111          1           0       -8.502495   -1.309707   -1.949922
    112          1           0       -9.633381    1.224144   -1.616157
    113          1           0      -10.363463    0.132922   -0.369838
    114          1           0      -10.593318   -1.672606   -2.219333
    115          1           0      -10.174449    0.775864   -3.778751
    116          1           0      -11.363753   -0.366346   -4.389106
    117          1           0       -9.669409   -0.998646   -3.975100
    118          1           0      -12.734871   -0.302637   -2.829161
    119          1           0      -12.378931    0.683263   -1.452767
    120          1           0      -12.287116   -2.082091   -0.539685
    121          1           0      -13.759491   -1.793647   -1.535998
    122          1           0      -14.671366   -1.091775    0.300894
    123          1           0      -14.042412    0.419946   -0.231770
    124          1           0      -12.132030   -1.069833    1.401694
    125          1           0      -13.480751    0.018829    3.400202
    126          1           0      -13.500229   -1.625639    3.168757
    127          1           0      -14.880008   -0.622186    2.623191
    128          1           0      -13.172234    1.694270    2.159892
    129          1           0      -12.496655    1.718119    0.608451
    130          1           0      -10.399542    1.732320    1.801562
    131          1           0      -10.729883    0.196060    2.430004
    132          1           0      -10.250247    1.619032    4.323160
    133          1           0      -11.997676    1.635591    4.408934
    134          1           0      -10.529001    3.746219    2.855635
    135          1           0      -10.308611    3.204413    5.908444
    136          1           0      -10.874702    4.888175    5.438337
    137          1           0       -9.388846    4.263814    4.815340
    138          1           0      -12.555381    5.013059    4.004189
    139          1           0      -13.234205    3.374812    4.087821
    140          1           0      -12.770950    3.896801    2.573898
 ---------------------------------------------------------------------

 SCF Done:  E(RPBE1PBE) =  -3005.34248211     A.U. after   15 cycles

 Excitation energies and oscillator strengths:

 Excited State   1:      Singlet-A      1.9005 eV  652.39 nm  f=0.3650  <S**2>=0.000
     245 -> 248        0.18029
     246 -> 247        0.68840
 This state for optimization and/or second-order correction.
 Total Energy, E(TD-HF/TD-DFT) =  -3005.27264094
 Copying the excited state density for this state as the 1-particle RhoCI density.

 Excited State   2:      Singlet-A      2.2477 eV  551.61 nm  f=0.1129  <S**2>=0.000
     245 -> 247        0.65028
     246 -> 248       -0.26680

 Excited State   3:      Singlet-A      2.9403 eV  421.67 nm  f=0.0008  <S**2>=0.000
     244 -> 247        0.66372
     244 -> 248       -0.12467
     244 -> 249        0.17581

 Excited State   4:      Singlet-A      2.9699 eV  417.47 nm  f=0.0001  <S**2>=0.000
     243 -> 247        0.67238
     243 -> 249       -0.14526
     243 -> 250        0.13390

 Excited State   5:      Singlet-A      3.2838 eV  377.56 nm  f=0.0441  <S**2>=0.000
     240 -> 247        0.13376
     241 -> 247        0.61365
     246 -> 248        0.28070

 The electronic state is 1-A.
 Alpha  occ. eigenvalues --  -46.93417 -19.25818 -19.24800 -19.20926 -19.18800
 Alpha  occ. eigenvalues --  -19.18644 -19.18524 -14.41349 -14.41230 -14.39982
 Alpha  occ. eigenvalues --  -14.38983 -10.37182 -10.35599 -10.31877 -10.31671
 Alpha  occ. eigenvalues --  -10.29650 -10.28875 -10.28711 -10.28525 -10.28494
 Alpha  occ. eigenvalues --  -10.28246 -10.28021 -10.27220 -10.27127 -10.27108
 Alpha  occ. eigenvalues --  -10.26349 -10.26008 -10.25923 -10.25811 -10.25787
 Alpha  occ. eigenvalues --  -10.25744 -10.25682 -10.25667 -10.25231 -10.25128
 Alpha  occ. eigenvalues --  -10.24912 -10.24882 -10.24734 -10.24684 -10.24586
 Alpha  occ. eigenvalues --  -10.24445 -10.24065 -10.24003 -10.23692 -10.23618
 Alpha  occ. eigenvalues --  -10.23556 -10.23538 -10.23493 -10.23433 -10.23155
 Alpha  occ. eigenvalues --  -10.23051 -10.22968 -10.22952 -10.22915 -10.22868
 Alpha  occ. eigenvalues --  -10.22777 -10.22664 -10.22493 -10.22427 -10.22405
 Alpha  occ. eigenvalues --  -10.22337 -10.21948 -10.21914 -10.21720 -10.21708
 Alpha  occ. eigenvalues --  -10.21489  -3.15363  -1.88197  -1.87743  -1.87574
 Alpha  occ. eigenvalues --   -1.10994  -1.10434  -1.04282  -1.02601  -1.02429
 Alpha  occ. eigenvalues --   -1.01080  -0.99650  -0.99012  -0.98070  -0.97580
 Alpha  occ. eigenvalues --   -0.86409  -0.85318  -0.84261  -0.83228  -0.83027
 Alpha  occ. eigenvalues --   -0.82792  -0.82324  -0.81615  -0.81465  -0.81351
 Alpha  occ. eigenvalues --   -0.81100  -0.79500  -0.78875  -0.77633  -0.77229
 Alpha  occ. eigenvalues --   -0.76770  -0.75731  -0.75008  -0.74861  -0.74331
 Alpha  occ. eigenvalues --   -0.74106  -0.72856  -0.72204  -0.71251  -0.70565
 Alpha  occ. eigenvalues --   -0.70207  -0.69587  -0.69202  -0.68998  -0.68672
 Alpha  occ. eigenvalues --   -0.67740  -0.67429  -0.65623  -0.64839  -0.63165
 Alpha  occ. eigenvalues --   -0.62888  -0.62762  -0.62491  -0.60579  -0.59788
 Alpha  occ. eigenvalues --   -0.59658  -0.59307  -0.59221  -0.58806  -0.58225
 Alpha  occ. eigenvalues --   -0.58090  -0.57407  -0.57076  -0.56053  -0.55125
 Alpha  occ. eigenvalues --   -0.54427  -0.54043  -0.53379  -0.52950  -0.52436
 Alpha  occ. eigenvalues --   -0.51536  -0.51154  -0.50888  -0.50180  -0.49694
 Alpha  occ. eigenvalues --   -0.49451  -0.49178  -0.48929  -0.48594  -0.48427
 Alpha  occ. eigenvalues --   -0.48183  -0.47694  -0.47576  -0.47316  -0.47196
 Alpha  occ. eigenvalues --   -0.47096  -0.46708  -0.46589  -0.46462  -0.46187
 Alpha  occ. eigenvalues --   -0.45956  -0.45785  -0.45726  -0.45622  -0.45489
 Alpha  occ. eigenvalues --   -0.45072  -0.44893  -0.44693  -0.44310  -0.44227
 Alpha  occ. eigenvalues --   -0.43988  -0.43848  -0.43800  -0.43451  -0.43158
 Alpha  occ. eigenvalues --   -0.42949  -0.42797  -0.42717  -0.42525  -0.42337
 Alpha  occ. eigenvalues --   -0.42207  -0.41952  -0.41757  -0.41566  -0.41436
 Alpha  occ. eigenvalues --   -0.41156  -0.41068  -0.40956  -0.40646  -0.40455
 Alpha  occ. eigenvalues --   -0.40270  -0.40199  -0.40075  -0.39886  -0.39741
 Alpha  occ. eigenvalues --   -0.39489  -0.39201  -0.38927  -0.38786  -0.38769
 Alpha  occ. eigenvalues --   -0.38466  -0.37934  -0.37917  -0.37881  -0.37723
 Alpha  occ. eigenvalues --   -0.37602  -0.37214  -0.37156  -0.36950  -0.36866
 Alpha  occ. eigenvalues --   -0.36757  -0.36580  -0.36492  -0.36354  -0.36297
 Alpha  occ. eigenvalues --   -0.35841  -0.35798  -0.35592  -0.35162  -0.34805
 Alpha  occ. eigenvalues --   -0.34518  -0.34323  -0.33918  -0.33753  -0.33504
 Alpha  occ. eigenvalues --   -0.33288  -0.33122  -0.32883  -0.32600  -0.32428
 Alpha  occ. eigenvalues --   -0.32021  -0.31802  -0.31561  -0.31340  -0.31224
 Alpha  occ. eigenvalues --   -0.30442  -0.30160  -0.29906  -0.29411  -0.29232
 Alpha  occ. eigenvalues --   -0.29142  -0.28734  -0.28028  -0.26706  -0.26111
 Alpha  occ. eigenvalues --   -0.25854  -0.25751  -0.25074  -0.25045  -0.20729
 Alpha  occ. eigenvalues --   -0.18763
 Alpha virt. eigenvalues --   -0.10902  -0.05244  -0.03791  -0.02255  -0.01127
 Alpha virt. eigenvalues --   -0.00530   0.01094   0.01329   0.01610   0.03112
 Alpha virt. eigenvalues --    0.04258   0.04781   0.05193   0.05412   0.05933

 Mulliken charges:
               1
     1  Mg   0.959089
     2  C   -0.028660
     3  C   -0.081214
     4  C   -0.015398
     5  C   -0.059084
     6  N   -0.364805
     7  C    0.020993
     8  C   -0.116480
     9  C   -0.149389
    10  C    0.082651
    11  C    0.020257
    12  C    0.016927
    13  C    0.001819
    14  C    0.225291
    15  O   -0.273458
    16  O   -0.383039
    17  N   -0.505622
    18  C    0.184686
    19  C   -0.181778
    20  C   -0.042075
    21  C    0.220129
    22  C    0.027346
    23  C    0.019895
    24  O   -0.244509
    25  C   -0.027580
    26  N   -0.342301
    27  C   -0.040829
    28  C   -0.086916
    29  C   -0.106651
    30  C    0.042929
    31  C   -0.022071
    32  C   -0.026989
    33  C   -0.078244
    34  N   -0.440990
    35  C    0.115748
    36  C   -0.189912
    37  C   -0.061874
    38  C    0.183208
    39  C    0.087187
    40  C    0.154558
    41  O   -0.249376
    42  C   -0.109856
    43  C    0.285621
    44  O   -0.264452
    45  O   -0.360354
    46  C    0.107832
    47  C    0.220191
    48  C   -0.118072
    49  C   -0.193214
    50  C    0.024818
    51  C   -0.030085
    52  C   -0.031259
    53  C   -0.012849
    54  C   -0.276895
    55  C   -0.004753
    56  C    0.009976
    57  C   -0.012330
    58  C   -0.004316
    59  C   -0.222251
    60  C   -0.001428
    61  C   -0.014879
    62  C   -0.039859
    63  C   -0.028258
    64  C   -0.250930
    65  C   -0.019817
    66  C   -0.022568
    67  H    0.006563
    68  H    0.026498
    69  H    0.001459
    70  H    0.080022
    71  H    0.036125
    72  H    0.047003
    73  H    0.044197
    74  H    0.065724
    75  H    0.052267
    76  H    0.056940
    77  H    0.050819
    78  H    0.068974
    79  H    0.047405
    80  H    0.049469
    81  H    0.063260
    82  H    0.046992
    83  H    0.042611
    84  H    0.083091
    85  H    0.046722
    86  H    0.054817
    87  H    0.056159
    88  H    0.047610
    89  H    0.062157
    90  H    0.034469
    91  H    0.043776
    92  H    0.042127
    93  H    0.038088
    94  H    0.049207
    95  H    0.039951
    96  H    0.074034
    97  H    0.064459
    98  H    0.075073
    99  H    0.072659
   100  H    0.069500
   101  H    0.050811
   102  H    0.060728
   103  H    0.051213
   104  H    0.040033
   105  H    0.064717
   106  H    0.066384
   107  H    0.042135
   108  H    0.020767
   109  H    0.033339
   110  H    0.028935
   111  H    0.018250
   112  H    0.029233
   113  H    0.056739
   114  H    0.033127
   115  H    0.035794
   116  H    0.041615
   117  H    0.052283
   118  H    0.006040
   119  H    0.027912
   120  H    0.036827
   121  H    0.030148
   122  H    0.014437
   123  H    0.020828
   124  H    0.034856
   125  H    0.008420
   126  H    0.028006
   127  H    0.040009
   128  H    0.026452
   129  H    0.028334
   130  H    0.023246
   131  H    0.030318
   132  H    0.023041
   133  H    0.032116
   134  H    0.034153
   135  H    0.049929
   136  H    0.032965
   137  H    0.036017
   138  H    0.036693
   139  H    0.026333
   140  H    0.033108
 Sum of Mulliken charges =  -0.00000

 Dipole moment (field-independent basis, Debye):
    X=             -3.7771    Y=              4.8288    Z=              1.6106  Tot=              6.3386
 Quadrupole moment (field-independent basis, Debye-Ang):
   XX=           -377.9039   YY=           -423.9367   ZZ=           -397.9509
   XY=              3.6729   XZ=             29.8639   YZ=             -5.3152

 Normal termination of Gaussian 16 at Wed May  4 04:26:00 2022.
