 Gaussian 16, Revision A.03,
 Gaussian 16:  ES64L-G16RevA.03 25-Dec-2016

 --------------------------------
 #p wB97XD/Def2SVP td=(nstates=5)
 --------------------------------

 ----------------------------------------------------
 step_1351_chromophore_7 TDDFT with wB97XD functional
 ----------------------------------------------------
 Symbolic Z-matrix:
 Charge =  0 Multiplicity = 1

                         Standard orientation:
 ---------------------------------------------------------------------
 Center     Atomic      Atomic             Coordinates (Angstroms)
 Number     Number       Type             X           Y           Z
 ---------------------------------------------------------------------
      1         12           0        5.677760    0.562327    0.351910
      2          6           0        3.415854   -2.225281    0.118017
      3          6           0        3.349186    2.461980   -1.232354
      4          6           0        8.078264    2.804346    0.078190
      5          6           0        8.109864   -1.783241    1.634902
      6          7           0        3.582912    0.074033   -0.449732
      7          6           0        2.828383   -1.031523   -0.354164
      8          6           0        1.386688   -0.756151   -0.724454
      9          6           0        1.499336    0.716513   -1.310302
     10          6           0        2.892365    1.174172   -0.904744
     11          6           0        1.123422    0.908814   -2.833149
     12          6           0        0.441319   -0.886289    0.548963
     13          6           0       -0.773788   -1.822982    0.456429
     14          6           0       -1.650622   -1.763074   -0.828623
     15          8           0       -1.375635   -2.309069   -1.885451
     16          8           0       -2.771767   -0.940562   -0.728203
     17          7           0        5.672369    2.420032   -0.472718
     18          6           0        4.650519    2.968603   -1.024920
     19          6           0        5.089677    4.375626   -1.379898
     20          6           0        6.514221    4.410267   -1.168417
     21          6           0        6.840895    3.188243   -0.483651
     22          6           0        4.139722    5.427908   -1.951920
     23          6           0        7.426261    5.538774   -1.448951
     24          8           0        8.624254    5.505331   -1.186789
     25          6           0        6.981697    6.799435   -2.207000
     26          7           0        7.905189    0.437789    0.711086
     27          6           0        8.563704    1.601211    0.679734
     28          6           0       10.053707    1.404280    1.163771
     29          6           0       10.081039   -0.096077    1.696387
     30          6           0        8.610692   -0.487327    1.436643
     31          6           0       11.068181    1.761034   -0.014780
     32          6           0       10.427454   -0.225745    3.228615
     33          6           0       11.842402   -0.826103    3.439202
     34          7           0        5.813517   -1.486064    0.804701
     35          6           0        6.808897   -2.312371    1.331051
     36          6           0        6.384349   -3.668846    1.532743
     37          6           0        5.086411   -3.570425    1.114104
     38          6           0        4.790026   -2.301975    0.619586
     39          6           0        7.223591   -4.843249    1.980785
     40          6           0        3.930197   -4.437275    0.913888
     41          8           0        3.821970   -5.657659    1.168804
     42          6           0        2.772596   -3.553767    0.341293
     43          6           0        2.231619   -4.235426   -0.907897
     44          8           0        2.745702   -4.270001   -2.025662
     45          8           0        1.008142   -4.779838   -0.653401
     46          6           0        0.407623   -5.537145   -1.727374
     47          6           0       -3.514248   -0.775034   -1.998663
     48          6           0       -4.822823   -0.059150   -1.561018
     49          6           0       -5.952917   -0.346822   -2.181007
     50          6           0       -6.169259   -0.935328   -3.532657
     51          6           0       -7.196253    0.354446   -1.570479
     52          6           0       -8.411865   -0.477275   -1.252669
     53          6           0       -9.799354    0.194624   -1.300993
     54          6           0      -10.759529   -0.598398   -2.300496
     55          6           0      -10.463000   -0.275585   -3.783097
     56          6           0      -12.230920   -0.315249   -1.862900
     57          6           0      -12.930067   -1.331548   -1.000340
     58          6           0      -13.735681   -0.577036    0.084468
     59          6           0      -12.959072   -0.361266    1.362068
     60          6           0      -13.793790   -0.710600    2.653801
     61          6           0      -12.483223    1.133763    1.529119
     62          6           0      -11.171007    1.189562    2.348456
     63          6           0      -11.151213    1.888770    3.770845
     64          6           0      -11.054461    3.438592    3.760138
     65          6           0      -10.387863    3.963741    5.130019
     66          6           0      -12.473107    3.996725    3.618264
     67          1           0        2.588489    3.120198   -1.658545
     68          1           0        8.951959    3.445266    0.214318
     69          1           0        8.864430   -2.445151    2.065188
     70          1           0        1.048031   -1.353381   -1.570700
     71          1           0        0.804431    1.310964   -0.715862
     72          1           0        2.049454    1.332091   -3.222190
     73          1           0        0.346790    1.662874   -2.955536
     74          1           0        0.892514   -0.080715   -3.228158
     75          1           0        0.008328    0.068351    0.846462
     76          1           0        1.161040   -1.233770    1.290679
     77          1           0       -1.441603   -1.639582    1.298518
     78          1           0       -0.465339   -2.857467    0.610059
     79          1           0        3.232173    5.061724   -2.431617
     80          1           0        4.706193    6.004189   -2.683184
     81          1           0        3.806013    6.163235   -1.220064
     82          1           0        7.658400    7.640701   -2.056708
     83          1           0        6.079216    7.034784   -1.643016
     84          1           0        6.906646    6.686199   -3.288278
     85          1           0       10.171404    2.077745    2.013132
     86          1           0       10.864570   -0.614418    1.143562
     87          1           0       10.505992    1.608264   -0.936547
     88          1           0       11.968939    1.159589   -0.136423
     89          1           0       11.328077    2.818166    0.036763
     90          1           0        9.767441   -1.022160    3.570078
     91          1           0       10.233484    0.647287    3.851878
     92          1           0       11.731886   -1.881858    3.685299
     93          1           0       12.310036   -0.428268    4.340263
     94          1           0       12.478678   -0.658553    2.569903
     95          1           0        8.282035   -4.690834    1.769419
     96          1           0        6.848118   -5.653779    1.354939
     97          1           0        7.092193   -4.988183    3.053000
     98          1           0        1.926857   -3.505069    1.027038
     99          1           0        1.130732   -5.846673   -2.482714
    100          1           0       -0.389555   -4.895672   -2.102656
    101          1           0        0.001251   -6.447345   -1.287031
    102          1           0       -3.693405   -1.739203   -2.474019
    103          1           0       -2.902857   -0.174986   -2.673480
    104          1           0       -4.885189    0.345652   -0.551498
    105          1           0       -5.981979   -2.009689   -3.516293
    106          1           0       -5.488154   -0.393035   -4.186923
    107          1           0       -7.198166   -0.772723   -3.853016
    108          1           0       -7.547459    0.863093   -2.468325
    109          1           0       -7.075365    1.121266   -0.805532
    110          1           0       -8.170265   -0.838934   -0.253061
    111          1           0       -8.502495   -1.309707   -1.949922
    112          1           0       -9.633381    1.224144   -1.616157
    113          1           0      -10.363463    0.132922   -0.369838
    114          1           0      -10.593318   -1.672606   -2.219333
    115          1           0      -10.174449    0.775864   -3.778751
    116          1           0      -11.363753   -0.366346   -4.389106
    117          1           0       -9.669409   -0.998646   -3.975100
    118          1           0      -12.734871   -0.302637   -2.829161
    119          1           0      -12.378931    0.683263   -1.452767
    120          1           0      -12.287116   -2.082091   -0.539685
    121          1           0      -13.759491   -1.793647   -1.535998
    122          1           0      -14.671366   -1.091775    0.300894
    123          1           0      -14.042412    0.419946   -0.231770
    124          1           0      -12.132030   -1.069833    1.401694
    125          1           0      -13.480751    0.018829    3.400202
    126          1           0      -13.500229   -1.625639    3.168757
    127          1           0      -14.880008   -0.622186    2.623191
    128          1           0      -13.172234    1.694270    2.159892
    129          1           0      -12.496655    1.718119    0.608451
    130          1           0      -10.399542    1.732320    1.801562
    131          1           0      -10.729883    0.196060    2.430004
    132          1           0      -10.250247    1.619032    4.323160
    133          1           0      -11.997676    1.635591    4.408934
    134          1           0      -10.529001    3.746219    2.855635
    135          1           0      -10.308611    3.204413    5.908444
    136          1           0      -10.874702    4.888175    5.438337
    137          1           0       -9.388846    4.263814    4.815340
    138          1           0      -12.555381    5.013059    4.004189
    139          1           0      -13.234205    3.374812    4.087821
    140          1           0      -12.770950    3.896801    2.573898
 ---------------------------------------------------------------------

 SCF Done:  E(RwB97XD) =  -3007.85462088     A.U. after   19 cycles

 Excitation energies and oscillator strengths:

 Excited State   1:      Singlet-A      1.7037 eV  727.72 nm  f=0.3705  <S**2>=0.000
     245 -> 248        0.19143
     246 -> 247        0.67958
     245 <- 248        0.11574
 This state for optimization and/or second-order correction.
 Total Energy, E(TD-HF/TD-DFT) =  -3007.79200963
 Copying the excited state density for this state as the 1-particle RhoCI density.

 Excited State   2:      Singlet-A      2.2048 eV  562.33 nm  f=0.1132  <S**2>=0.000
     245 -> 247        0.63568
     246 -> 248       -0.29543

 Excited State   3:      Singlet-A      3.4331 eV  361.15 nm  f=0.0140  <S**2>=0.000
     242 -> 247        0.50345
     242 -> 248       -0.19531
     242 -> 249        0.36534
     242 -> 250        0.17429

 Excited State   4:      Singlet-A      3.5399 eV  350.25 nm  f=0.0814  <S**2>=0.000
     243 -> 250       -0.14110
     244 -> 247        0.50661
     244 -> 249       -0.23026
     244 -> 250        0.25387
     246 -> 248        0.23052

 Excited State   5:      Singlet-A      3.5762 eV  346.69 nm  f=0.5839  <S**2>=0.000
     240 -> 247        0.22341
     243 -> 247        0.11009
     244 -> 247       -0.16604
     244 -> 250       -0.10029
     245 -> 247        0.24840
     246 -> 248        0.55062
     245 <- 247       -0.10204

 The electronic state is 1-A.
 Alpha  occ. eigenvalues --  -46.96394 -19.30321 -19.29263 -19.25530 -19.23556
 Alpha  occ. eigenvalues --  -19.23392 -19.23231 -14.46491 -14.46256 -14.45091
 Alpha  occ. eigenvalues --  -14.43799 -10.43900 -10.42317 -10.38912 -10.38327
 Alpha  occ. eigenvalues --  -10.36113 -10.35485 -10.35216 -10.34951 -10.34950
 Alpha  occ. eigenvalues --  -10.34648 -10.34054 -10.33990 -10.33536 -10.33053
 Alpha  occ. eigenvalues --  -10.32453 -10.32279 -10.32103 -10.32100 -10.32070
 Alpha  occ. eigenvalues --  -10.32056 -10.31936 -10.31832 -10.31742 -10.31470
 Alpha  occ. eigenvalues --  -10.31388 -10.31269 -10.31244 -10.31086 -10.31064
 Alpha  occ. eigenvalues --  -10.30896 -10.30512 -10.30253 -10.29956 -10.29950
 Alpha  occ. eigenvalues --  -10.29907 -10.29872 -10.29871 -10.29839 -10.29763
 Alpha  occ. eigenvalues --  -10.29414 -10.29333 -10.29318 -10.29269 -10.29234
 Alpha  occ. eigenvalues --  -10.29140 -10.29013 -10.28872 -10.28837 -10.28829
 Alpha  occ. eigenvalues --  -10.28693 -10.28267 -10.28126 -10.28056 -10.27961
 Alpha  occ. eigenvalues --  -10.27921  -3.22221  -1.95800  -1.95348  -1.95173
 Alpha  occ. eigenvalues --   -1.18317  -1.17721  -1.11979  -1.09889  -1.09725
 Alpha  occ. eigenvalues --   -1.08345  -1.07196  -1.06216  -1.05449  -1.04922
 Alpha  occ. eigenvalues --   -0.93878  -0.92979  -0.91921  -0.90838  -0.90679
 Alpha  occ. eigenvalues --   -0.90451  -0.89928  -0.89283  -0.89254  -0.89022
 Alpha  occ. eigenvalues --   -0.88611  -0.87134  -0.86526  -0.85246  -0.84825
 Alpha  occ. eigenvalues --   -0.84417  -0.83399  -0.82827  -0.82486  -0.81991
 Alpha  occ. eigenvalues --   -0.81768  -0.80610  -0.79781  -0.78839  -0.78200
 Alpha  occ. eigenvalues --   -0.77771  -0.77292  -0.76791  -0.76657  -0.76349
 Alpha  occ. eigenvalues --   -0.75317  -0.74950  -0.73172  -0.72422  -0.70780
 Alpha  occ. eigenvalues --   -0.70573  -0.70443  -0.69909  -0.68202  -0.67237
 Alpha  occ. eigenvalues --   -0.67179  -0.66929  -0.66637  -0.66237  -0.65898
 Alpha  occ. eigenvalues --   -0.65547  -0.65060  -0.64730  -0.63382  -0.62740
 Alpha  occ. eigenvalues --   -0.61788  -0.61461  -0.60794  -0.60265  -0.59778
 Alpha  occ. eigenvalues --   -0.58964  -0.58555  -0.58380  -0.57604  -0.57109
 Alpha  occ. eigenvalues --   -0.56839  -0.56580  -0.56338  -0.56000  -0.55792
 Alpha  occ. eigenvalues --   -0.55523  -0.55081  -0.55021  -0.54772  -0.54543
 Alpha  occ. eigenvalues --   -0.54477  -0.54151  -0.53938  -0.53836  -0.53560
 Alpha  occ. eigenvalues --   -0.53340  -0.53193  -0.53088  -0.53004  -0.52874
 Alpha  occ. eigenvalues --   -0.52387  -0.52233  -0.52004  -0.51629  -0.51524
 Alpha  occ. eigenvalues --   -0.51299  -0.51213  -0.51121  -0.50810  -0.50535
 Alpha  occ. eigenvalues --   -0.50272  -0.50101  -0.49996  -0.49801  -0.49645
 Alpha  occ. eigenvalues --   -0.49440  -0.49279  -0.48992  -0.48773  -0.48568
 Alpha  occ. eigenvalues --   -0.48339  -0.48255  -0.48182  -0.47880  -0.47578
 Alpha  occ. eigenvalues --   -0.47503  -0.47324  -0.47265  -0.47048  -0.46905
 Alpha  occ. eigenvalues --   -0.46557  -0.46273  -0.46035  -0.45938  -0.45902
 Alpha  occ. eigenvalues --   -0.45526  -0.45098  -0.45061  -0.45051  -0.44916
 Alpha  occ. eigenvalues --   -0.44794  -0.44573  -0.44310  -0.44084  -0.43962
 Alpha  occ. eigenvalues --   -0.43808  -0.43709  -0.43502  -0.43405  -0.43321
 Alpha  occ. eigenvalues --   -0.42961  -0.42781  -0.42637  -0.42225  -0.41780
 Alpha  occ. eigenvalues --   -0.41499  -0.41377  -0.40839  -0.40768  -0.40546
 Alpha  occ. eigenvalues --   -0.40346  -0.40071  -0.39910  -0.39587  -0.39423
 Alpha  occ. eigenvalues --   -0.39039  -0.38879  -0.38531  -0.38321  -0.38108
 Alpha  occ. eigenvalues --   -0.37315  -0.37144  -0.36796  -0.36265  -0.36172
 Alpha  occ. eigenvalues --   -0.36064  -0.35494  -0.34955  -0.33278  -0.32866
 Alpha  occ. eigenvalues --   -0.32514  -0.32450  -0.32288  -0.31931  -0.25686
 Alpha  occ. eigenvalues --   -0.22973
 Alpha virt. eigenvalues --   -0.06733   0.00152   0.02428   0.04306   0.04759
 Alpha virt. eigenvalues --    0.06353   0.07806   0.08068   0.08533   0.09589
 Alpha virt. eigenvalues --    0.10754   0.11536   0.11856   0.12095   0.12615

 Mulliken charges:
               1
     1  Mg   0.953596
     2  C   -0.038266
     3  C   -0.108408
     4  C   -0.028952
     5  C   -0.073332
     6  N   -0.332860
     7  C   -0.009688
     8  C   -0.093457
     9  C   -0.128524
    10  C    0.074490
    11  C    0.035114
    12  C    0.029751
    13  C    0.020954
    14  C    0.213970
    15  O   -0.270628
    16  O   -0.382916
    17  N   -0.469335
    18  C    0.179090
    19  C   -0.175959
    20  C   -0.028659
    21  C    0.214206
    22  C    0.041832
    23  C    0.013644
    24  O   -0.238322
    25  C   -0.012564
    26  N   -0.309152
    27  C   -0.054811
    28  C   -0.065597
    29  C   -0.079998
    30  C    0.027740
    31  C   -0.009784
    32  C   -0.014307
    33  C   -0.060892
    34  N   -0.402169
    35  C    0.109715
    36  C   -0.191857
    37  C   -0.053595
    38  C    0.165909
    39  C    0.100161
    40  C    0.129903
    41  O   -0.240799
    42  C   -0.062962
    43  C    0.259445
    44  O   -0.259299
    45  O   -0.357822
    46  C    0.123812
    47  C    0.232704
    48  C   -0.125531
    49  C   -0.185810
    50  C    0.042742
    51  C    0.001361
    52  C   -0.016523
    53  C    0.016496
    54  C   -0.246908
    55  C    0.008813
    56  C    0.031479
    57  C    0.002127
    58  C    0.013825
    59  C   -0.197149
    60  C    0.013953
    61  C    0.011014
    62  C   -0.025692
    63  C   -0.007064
    64  C   -0.224070
    65  C   -0.007011
    66  C   -0.009170
    67  H   -0.001172
    68  H    0.020650
    69  H   -0.005190
    70  H    0.064174
    71  H    0.024031
    72  H    0.038267
    73  H    0.039373
    74  H    0.061945
    75  H    0.045053
    76  H    0.047177
    77  H    0.046498
    78  H    0.059136
    79  H    0.045121
    80  H    0.042359
    81  H    0.060072
    82  H    0.046205
    83  H    0.033925
    84  H    0.080410
    85  H    0.036153
    86  H    0.043083
    87  H    0.048063
    88  H    0.043541
    89  H    0.057007
    90  H    0.022881
    91  H    0.037742
    92  H    0.036137
    93  H    0.032389
    94  H    0.041514
    95  H    0.033573
    96  H    0.069299
    97  H    0.059598
    98  H    0.064713
    99  H    0.068679
   100  H    0.064723
   101  H    0.046510
   102  H    0.054639
   103  H    0.046542
   104  H    0.037549
   105  H    0.060248
   106  H    0.061300
   107  H    0.031523
   108  H    0.003560
   109  H    0.028386
   110  H    0.021596
   111  H    0.003269
   112  H    0.019550
   113  H    0.029754
   114  H    0.020375
   115  H    0.028488
   116  H    0.036441
   117  H    0.044407
   118  H   -0.003466
   119  H    0.013084
   120  H    0.028790
   121  H    0.023400
   122  H    0.007152
   123  H    0.009681
   124  H    0.020691
   125  H   -0.004780
   126  H    0.023412
   127  H    0.035085
   128  H    0.008492
   129  H    0.019909
   130  H    0.013324
   131  H    0.022249
   132  H    0.014074
   133  H    0.019380
   134  H    0.023810
   135  H    0.044710
   136  H    0.026907
   137  H    0.029744
   138  H    0.031236
   139  H    0.018876
   140  H    0.024972
 Sum of Mulliken charges =  -0.00000

 Dipole moment (field-independent basis, Debye):
    X=             -3.6636    Y=              5.4798    Z=              1.4398  Tot=              6.7470
 Quadrupole moment (field-independent basis, Debye-Ang):
   XX=           -377.9330   YY=           -421.8598   ZZ=           -397.5266
   XY=              7.7706   XZ=             28.6034   YZ=             -5.8752

 Normal termination of Gaussian 16 at Wed May  4 04:51:02 2022.
