 Gaussian 16, Revision A.03,
 Gaussian 16:  ES64L-G16RevA.03 25-Dec-2016

 --------------------
 #p ZINDO=(nstates=5)
 --------------------

 -----------------------------
 step_1351_chromophore_7 ZINDO
 -----------------------------
 Symbolic Z-matrix:
 Charge =  0 Multiplicity = 1

                         Standard orientation:
 ---------------------------------------------------------------------
 Center     Atomic      Atomic             Coordinates (Angstroms)
 Number     Number       Type             X           Y           Z
 ---------------------------------------------------------------------
      1         12           0        5.677760    0.562327    0.351910
      2          6           0        3.415854   -2.225281    0.118017
      3          6           0        3.349186    2.461980   -1.232354
      4          6           0        8.078264    2.804346    0.078190
      5          6           0        8.109864   -1.783241    1.634902
      6          7           0        3.582912    0.074033   -0.449732
      7          6           0        2.828383   -1.031523   -0.354164
      8          6           0        1.386688   -0.756151   -0.724454
      9          6           0        1.499336    0.716513   -1.310302
     10          6           0        2.892365    1.174172   -0.904744
     11          6           0        1.123422    0.908814   -2.833149
     12          6           0        0.441319   -0.886289    0.548963
     13          6           0       -0.773788   -1.822982    0.456429
     14          6           0       -1.650622   -1.763074   -0.828623
     15          8           0       -1.375635   -2.309069   -1.885451
     16          8           0       -2.771767   -0.940562   -0.728203
     17          7           0        5.672369    2.420032   -0.472718
     18          6           0        4.650519    2.968603   -1.024920
     19          6           0        5.089677    4.375626   -1.379898
     20          6           0        6.514221    4.410267   -1.168417
     21          6           0        6.840895    3.188243   -0.483651
     22          6           0        4.139722    5.427908   -1.951920
     23          6           0        7.426261    5.538774   -1.448951
     24          8           0        8.624254    5.505331   -1.186789
     25          6           0        6.981697    6.799435   -2.207000
     26          7           0        7.905189    0.437789    0.711086
     27          6           0        8.563704    1.601211    0.679734
     28          6           0       10.053707    1.404280    1.163771
     29          6           0       10.081039   -0.096077    1.696387
     30          6           0        8.610692   -0.487327    1.436643
     31          6           0       11.068181    1.761034   -0.014780
     32          6           0       10.427454   -0.225745    3.228615
     33          6           0       11.842402   -0.826103    3.439202
     34          7           0        5.813517   -1.486064    0.804701
     35          6           0        6.808897   -2.312371    1.331051
     36          6           0        6.384349   -3.668846    1.532743
     37          6           0        5.086411   -3.570425    1.114104
     38          6           0        4.790026   -2.301975    0.619586
     39          6           0        7.223591   -4.843249    1.980785
     40          6           0        3.930197   -4.437275    0.913888
     41          8           0        3.821970   -5.657659    1.168804
     42          6           0        2.772596   -3.553767    0.341293
     43          6           0        2.231619   -4.235426   -0.907897
     44          8           0        2.745702   -4.270001   -2.025662
     45          8           0        1.008142   -4.779838   -0.653401
     46          6           0        0.407623   -5.537145   -1.727374
     47          6           0       -3.514248   -0.775034   -1.998663
     48          6           0       -4.822823   -0.059150   -1.561018
     49          6           0       -5.952917   -0.346822   -2.181007
     50          6           0       -6.169259   -0.935328   -3.532657
     51          6           0       -7.196253    0.354446   -1.570479
     52          6           0       -8.411865   -0.477275   -1.252669
     53          6           0       -9.799354    0.194624   -1.300993
     54          6           0      -10.759529   -0.598398   -2.300496
     55          6           0      -10.463000   -0.275585   -3.783097
     56          6           0      -12.230920   -0.315249   -1.862900
     57          6           0      -12.930067   -1.331548   -1.000340
     58          6           0      -13.735681   -0.577036    0.084468
     59          6           0      -12.959072   -0.361266    1.362068
     60          6           0      -13.793790   -0.710600    2.653801
     61          6           0      -12.483223    1.133763    1.529119
     62          6           0      -11.171007    1.189562    2.348456
     63          6           0      -11.151213    1.888770    3.770845
     64          6           0      -11.054461    3.438592    3.760138
     65          6           0      -10.387863    3.963741    5.130019
     66          6           0      -12.473107    3.996725    3.618264
     67          1           0        2.588489    3.120198   -1.658545
     68          1           0        8.951959    3.445266    0.214318
     69          1           0        8.864430   -2.445151    2.065188
     70          1           0        1.048031   -1.353381   -1.570700
     71          1           0        0.804431    1.310964   -0.715862
     72          1           0        2.049454    1.332091   -3.222190
     73          1           0        0.346790    1.662874   -2.955536
     74          1           0        0.892514   -0.080715   -3.228158
     75          1           0        0.008328    0.068351    0.846462
     76          1           0        1.161040   -1.233770    1.290679
     77          1           0       -1.441603   -1.639582    1.298518
     78          1           0       -0.465339   -2.857467    0.610059
     79          1           0        3.232173    5.061724   -2.431617
     80          1           0        4.706193    6.004189   -2.683184
     81          1           0        3.806013    6.163235   -1.220064
     82          1           0        7.658400    7.640701   -2.056708
     83          1           0        6.079216    7.034784   -1.643016
     84          1           0        6.906646    6.686199   -3.288278
     85          1           0       10.171404    2.077745    2.013132
     86          1           0       10.864570   -0.614418    1.143562
     87          1           0       10.505992    1.608264   -0.936547
     88          1           0       11.968939    1.159589   -0.136423
     89          1           0       11.328077    2.818166    0.036763
     90          1           0        9.767441   -1.022160    3.570078
     91          1           0       10.233484    0.647287    3.851878
     92          1           0       11.731886   -1.881858    3.685299
     93          1           0       12.310036   -0.428268    4.340263
     94          1           0       12.478678   -0.658553    2.569903
     95          1           0        8.282035   -4.690834    1.769419
     96          1           0        6.848118   -5.653779    1.354939
     97          1           0        7.092193   -4.988183    3.053000
     98          1           0        1.926857   -3.505069    1.027038
     99          1           0        1.130732   -5.846673   -2.482714
    100          1           0       -0.389555   -4.895672   -2.102656
    101          1           0        0.001251   -6.447345   -1.287031
    102          1           0       -3.693405   -1.739203   -2.474019
    103          1           0       -2.902857   -0.174986   -2.673480
    104          1           0       -4.885189    0.345652   -0.551498
    105          1           0       -5.981979   -2.009689   -3.516293
    106          1           0       -5.488154   -0.393035   -4.186923
    107          1           0       -7.198166   -0.772723   -3.853016
    108          1           0       -7.547459    0.863093   -2.468325
    109          1           0       -7.075365    1.121266   -0.805532
    110          1           0       -8.170265   -0.838934   -0.253061
    111          1           0       -8.502495   -1.309707   -1.949922
    112          1           0       -9.633381    1.224144   -1.616157
    113          1           0      -10.363463    0.132922   -0.369838
    114          1           0      -10.593318   -1.672606   -2.219333
    115          1           0      -10.174449    0.775864   -3.778751
    116          1           0      -11.363753   -0.366346   -4.389106
    117          1           0       -9.669409   -0.998646   -3.975100
    118          1           0      -12.734871   -0.302637   -2.829161
    119          1           0      -12.378931    0.683263   -1.452767
    120          1           0      -12.287116   -2.082091   -0.539685
    121          1           0      -13.759491   -1.793647   -1.535998
    122          1           0      -14.671366   -1.091775    0.300894
    123          1           0      -14.042412    0.419946   -0.231770
    124          1           0      -12.132030   -1.069833    1.401694
    125          1           0      -13.480751    0.018829    3.400202
    126          1           0      -13.500229   -1.625639    3.168757
    127          1           0      -14.880008   -0.622186    2.623191
    128          1           0      -13.172234    1.694270    2.159892
    129          1           0      -12.496655    1.718119    0.608451
    130          1           0      -10.399542    1.732320    1.801562
    131          1           0      -10.729883    0.196060    2.430004
    132          1           0      -10.250247    1.619032    4.323160
    133          1           0      -11.997676    1.635591    4.408934
    134          1           0      -10.529001    3.746219    2.855635
    135          1           0      -10.308611    3.204413    5.908444
    136          1           0      -10.874702    4.888175    5.438337
    137          1           0       -9.388846    4.263814    4.815340
    138          1           0      -12.555381    5.013059    4.004189
    139          1           0      -13.234205    3.374812    4.087821
    140          1           0      -12.770950    3.896801    2.573898
 ---------------------------------------------------------------------

 SCF Done:  E(RZINDO/S) =  -474.149122719     A.U. after   19 cycles

 Excitation energies and oscillator strengths:

 Excited State   1:      Singlet-A      1.2898 eV  961.26 nm  f=0.5661  <S**2>=0.000
     175 ->178         0.18597
     176 ->177         0.66278
 This state for optimization and/or second-order correction.
 Total Energy, E(CIS/TDA) =  -474.101723226
 Copying the excited state density for this state as the 1-particle RhoCI density.

 Excited State   2:      Singlet-A      1.9363 eV  640.30 nm  f=0.0512  <S**2>=0.000
     175 ->177         0.55247
     176 ->178        -0.41027

 Excited State   3:      Singlet-A      2.8243 eV  438.99 nm  f=0.0104  <S**2>=0.000
     168 ->177         0.31514
     168 ->178        -0.18029
     168 ->179        -0.43394
     168 ->181        -0.19495
     168 ->186         0.21198
     168 ->187        -0.10609

 Excited State   4:      Singlet-A      3.0078 eV  412.21 nm  f=0.8331  <S**2>=0.000
     170 ->177         0.15192
     170 ->179         0.12574
     170 ->180         0.11196
     170 ->181        -0.17305
     175 ->177         0.32969
     176 ->178         0.46255

 Excited State   5:      Singlet-A      3.0213 eV  410.37 nm  f=0.2535  <S**2>=0.000
     170 ->177         0.24757
     170 ->179         0.24018
     170 ->180         0.20839
     170 ->181        -0.31509
     170 ->186        -0.16623
     170 ->187        -0.13195
     170 ->203        -0.11055
     175 ->177        -0.18048
     176 ->178        -0.24956

 The electronic state is 1-A.
 Alpha  occ. eigenvalues --   -1.84171  -1.82298  -1.78708  -1.72426  -1.72281
 Alpha  occ. eigenvalues --   -1.70764  -1.67059  -1.61386  -1.59768  -1.56845
 Alpha  occ. eigenvalues --   -1.56365  -1.51231  -1.47791  -1.46534  -1.46248
 Alpha  occ. eigenvalues --   -1.42422  -1.42337  -1.39765  -1.39374  -1.38426
 Alpha  occ. eigenvalues --   -1.35964  -1.33341  -1.33223  -1.32074  -1.27108
 Alpha  occ. eigenvalues --   -1.26441  -1.24439  -1.20891  -1.20113  -1.17997
 Alpha  occ. eigenvalues --   -1.16906  -1.16092  -1.15650  -1.14790  -1.12391
 Alpha  occ. eigenvalues --   -1.11879  -1.11748  -1.11015  -1.04480  -1.03359
 Alpha  occ. eigenvalues --   -1.02625  -1.01620  -0.99048  -0.97696  -0.97138
 Alpha  occ. eigenvalues --   -0.95122  -0.94177  -0.92956  -0.92645  -0.92443
 Alpha  occ. eigenvalues --   -0.91490  -0.89652  -0.88556  -0.88249  -0.87617
 Alpha  occ. eigenvalues --   -0.86678  -0.84908  -0.83210  -0.82176  -0.80028
 Alpha  occ. eigenvalues --   -0.79737  -0.78769  -0.76801  -0.76322  -0.76159
 Alpha  occ. eigenvalues --   -0.75955  -0.74833  -0.74199  -0.73053  -0.72635
 Alpha  occ. eigenvalues --   -0.72284  -0.71764  -0.71411  -0.70683  -0.69867
 Alpha  occ. eigenvalues --   -0.69754  -0.69441  -0.69080  -0.68285  -0.67730
 Alpha  occ. eigenvalues --   -0.67450  -0.66826  -0.66588  -0.66162  -0.64959
 Alpha  occ. eigenvalues --   -0.64832  -0.64795  -0.64181  -0.63733  -0.63459
 Alpha  occ. eigenvalues --   -0.63160  -0.63009  -0.62686  -0.62155  -0.61797
 Alpha  occ. eigenvalues --   -0.61378  -0.60750  -0.60476  -0.60336  -0.60042
 Alpha  occ. eigenvalues --   -0.59807  -0.59153  -0.58984  -0.58757  -0.58327
 Alpha  occ. eigenvalues --   -0.58198  -0.57972  -0.57327  -0.57007  -0.56193
 Alpha  occ. eigenvalues --   -0.55828  -0.55530  -0.55146  -0.54959  -0.54456
 Alpha  occ. eigenvalues --   -0.54175  -0.53812  -0.53414  -0.52741  -0.52631
 Alpha  occ. eigenvalues --   -0.52508  -0.52400  -0.52087  -0.51918  -0.51500
 Alpha  occ. eigenvalues --   -0.51181  -0.51061  -0.50796  -0.50273  -0.49636
 Alpha  occ. eigenvalues --   -0.49621  -0.49380  -0.49301  -0.49086  -0.48522
 Alpha  occ. eigenvalues --   -0.48463  -0.48302  -0.48160  -0.48002  -0.47660
 Alpha  occ. eigenvalues --   -0.47409  -0.47319  -0.47078  -0.46736  -0.46566
 Alpha  occ. eigenvalues --   -0.46390  -0.46186  -0.45872  -0.45549  -0.44962
 Alpha  occ. eigenvalues --   -0.44817  -0.44584  -0.44312  -0.44223  -0.43860
 Alpha  occ. eigenvalues --   -0.43419  -0.43167  -0.42726  -0.42505  -0.42162
 Alpha  occ. eigenvalues --   -0.41541  -0.41280  -0.40212  -0.38942  -0.38795
 Alpha  occ. eigenvalues --   -0.37361  -0.36750  -0.35471  -0.34780  -0.33900
 Alpha  occ. eigenvalues --   -0.33421  -0.33209  -0.32494  -0.32155  -0.26277
 Alpha  occ. eigenvalues --   -0.21756
 Alpha virt. eigenvalues --   -0.08198  -0.01927  -0.00617   0.01295   0.01460
 Alpha virt. eigenvalues --    0.01659   0.03019   0.03650   0.04461   0.04847
 Alpha virt. eigenvalues --    0.06280   0.06727   0.07168   0.07875   0.08324

 Mulliken charges:
               1
     1  Mg   0.437429
     2  C   -0.063511
     3  C   -0.108929
     4  C   -0.052947
     5  C   -0.046224
     6  N   -0.302692
     7  C    0.130621
     8  C   -0.000386
     9  C   -0.009810
    10  C    0.154201
    11  C   -0.054136
    12  C   -0.018479
    13  C    0.010547
    14  C    0.459907
    15  O   -0.510860
    16  O   -0.279455
    17  N   -0.295817
    18  C    0.156234
    19  C    0.001326
    20  C   -0.025200
    21  C    0.128101
    22  C   -0.044349
    23  C    0.324276
    24  O   -0.524339
    25  C   -0.034695
    26  N   -0.251322
    27  C    0.137302
    28  C   -0.001694
    29  C    0.000037
    30  C    0.071475
    31  C   -0.053246
    32  C   -0.038280
    33  C   -0.060775
    34  N   -0.310781
    35  C    0.055837
    36  C    0.030685
    37  C   -0.053555
    38  C    0.121107
    39  C   -0.034518
    40  C    0.318930
    41  O   -0.542128
    42  C    0.062576
    43  C    0.485681
    44  O   -0.527088
    45  O   -0.268137
    46  C    0.074961
    47  C    0.100190
    48  C   -0.104230
    49  C    0.009559
    50  C   -0.035523
    51  C   -0.036108
    52  C   -0.034031
    53  C   -0.041000
    54  C   -0.025650
    55  C   -0.064792
    56  C   -0.037843
    57  C   -0.031750
    58  C   -0.035248
    59  C   -0.007787
    60  C   -0.070651
    61  C   -0.033632
    62  C   -0.038385
    63  C   -0.036051
    64  C   -0.017886
    65  C   -0.064020
    66  C   -0.060422
    67  H    0.030318
    68  H    0.048516
    69  H    0.023736
    70  H    0.051428
    71  H    0.017698
    72  H    0.024704
    73  H    0.025449
    74  H    0.041712
    75  H    0.026847
    76  H    0.030406
    77  H    0.026728
    78  H    0.042047
    79  H    0.029139
    80  H    0.026015
    81  H    0.033695
    82  H    0.033621
    83  H    0.029628
    84  H    0.050049
    85  H    0.029997
    86  H    0.043400
    87  H    0.021922
    88  H    0.026968
    89  H    0.026657
    90  H    0.016694
    91  H    0.031793
    92  H    0.019891
    93  H    0.013989
    94  H    0.025647
    95  H    0.023751
    96  H    0.041741
    97  H    0.038381
    98  H    0.053226
    99  H    0.056153
   100  H    0.044650
   101  H    0.028866
   102  H    0.056079
   103  H    0.045369
   104  H    0.042860
   105  H    0.034889
   106  H    0.032731
   107  H    0.024155
   108  H    0.008563
   109  H    0.029416
   110  H    0.013695
   111  H    0.021528
   112  H    0.026388
   113  H    0.024214
   114  H    0.019210
   115  H    0.021736
   116  H    0.025291
   117  H    0.028464
   118  H    0.006692
   119  H    0.024967
   120  H    0.030090
   121  H    0.016430
   122  H    0.010236
   123  H    0.017970
   124  H    0.025541
   125  H    0.007102
   126  H    0.016915
   127  H    0.026456
   128  H    0.018952
   129  H    0.023974
   130  H    0.009490
   131  H    0.016840
   132  H    0.010170
   133  H    0.023851
   134  H    0.027139
   135  H    0.032611
   136  H    0.023175
   137  H    0.011705
   138  H    0.018829
   139  H    0.016188
   140  H    0.012010
 Sum of Mulliken charges =  -0.00000

 Dipole moment (field-independent basis, Debye):
    X=             -5.5637    Y=              9.6578    Z=              2.3519  Tot=             11.3912
 N-N= 4.261757129363D+03 E-N= 0.000000000000D+00  KE=-9.198129808157D+03
 Leave Link  601 at Wed May  4 05:02:55 2022, MaxMem=  6710886400 cpu:               0.8 elap:               0.0
 (Enter /sw/apps/gaussian-16.0/g16/l9999.exe)
 1\1\GINC-BP1-COMPUTE100\SP\RZINDO CIS\STO-3G\C55H74Mg1N4O6\OF15641\04-
 May-2022\0\\#p ZINDO=(nstates=5)\\step_1351_chromophore_7 ZINDO\\0,1\M
 g,0,25.52,-0.458,29.661\C,0,27.473,-1.053,32.623\C,0,22.742,-0.419,31.
 616\C,0,23.845,-0.557,26.824\C,0,28.574,-0.962,27.795\N,0,25.229,-0.71
 9,31.923\C,0,26.112,-0.833,32.927\C,0,25.455,-0.62,34.274\C,0,23.92,-0
 .602,33.864\C,0,23.94,-0.489,32.347\C,0,23.009,-1.747,34.461\C,0,25.97
 1,0.726,34.948\C,0,26.542,0.65,36.373\C,0,25.766,-0.188,37.431\O,0,25.

 Normal termination of Gaussian 16 at Wed May  4 05:02:55 2022.
