 Gaussian 16, Revision A.03,
 Gaussian 16:  ES64L-G16RevA.03 25-Dec-2016

 ------------------------------
 #p blyp/Def2SVP td=(nstates=5)
 ------------------------------

 --------------------------------------------------
 step_1701_chromophore_8 TDDFT with blyp functional
 --------------------------------------------------
 Symbolic Z-matrix:
 Charge =  0 Multiplicity = 1

                         Standard orientation:
 ---------------------------------------------------------------------
 Center     Atomic      Atomic             Coordinates (Angstroms)
 Number     Number       Type             X           Y           Z
 ---------------------------------------------------------------------
      1         12           0        4.308394    0.966071   -0.031735
      2          6           0        4.086888   -2.491338    0.420014
      3          6           0        3.942477    0.647631   -3.386462
      4          6           0        4.122149    4.298299   -0.161747
      5          6           0        4.171593    1.266623    3.622398
      6          7           0        4.023332   -0.789348   -1.278001
      7          6           0        4.200050   -2.097641   -0.949590
      8          6           0        4.196185   -2.992874   -2.218959
      9          6           0        4.344082   -1.867749   -3.396993
     10          6           0        4.030992   -0.551887   -2.665011
     11          6           0        5.685373   -1.848890   -4.135939
     12          6           0        2.947691   -3.921279   -2.521519
     13          6           0        1.622819   -3.216824   -2.466784
     14          6           0        0.513495   -3.805044   -1.682264
     15          8           0        0.562776   -4.632583   -0.759324
     16          8           0       -0.598088   -3.138063   -2.040360
     17          7           0        3.967714    2.334776   -1.517823
     18          6           0        3.866072    1.988834   -2.867965
     19          6           0        3.853112    3.213713   -3.687630
     20          6           0        3.835541    4.300086   -2.713290
     21          6           0        3.929865    3.660886   -1.393204
     22          6           0        3.893102    3.355289   -5.221156
     23          6           0        3.649022    5.742664   -3.062277
     24          8           0        3.656969    6.097333   -4.252239
     25          6           0        3.392983    6.875472   -2.112405
     26          7           0        4.107908    2.589881    1.523296
     27          6           0        4.391355    3.808635    1.106166
     28          6           0        4.558629    4.717692    2.394920
     29          6           0        4.303702    3.702708    3.687617
     30          6           0        4.126306    2.435254    2.909630
     31          6           0        5.908583    5.528829    2.404825
     32          6           0        3.256050    4.086195    4.665447
     33          6           0        3.666840    4.544769    6.032555
     34          7           0        4.143864   -0.338621    1.711309
     35          6           0        4.189503   -0.064209    3.109535
     36          6           0        4.146427   -1.341995    3.843983
     37          6           0        4.022576   -2.290226    2.832339
     38          6           0        4.187231   -1.602254    1.592701
     39          6           0        4.120364   -1.452719    5.342837
     40          6           0        3.845490   -3.694514    2.544443
     41          8           0        3.682339   -4.658407    3.293952
     42          6           0        3.906253   -3.886305    0.954735
     43          6           0        5.157777   -4.727486    0.724188
     44          8           0        6.309710   -4.388841    0.892914
     45          8           0        4.740443   -6.040350    0.286574
     46          6           0        5.757991   -6.936052   -0.273586
     47          6           0       -1.795336   -3.604317   -1.377248
     48          6           0       -2.835273   -2.578779   -1.018746
     49          6           0       -3.695411   -2.501275    0.002201
     50          6           0       -3.982314   -3.668090    0.945984
     51          6           0       -4.473141   -1.207192    0.247265
     52          6           0       -5.319220   -0.755910   -0.984129
     53          6           0       -5.255278    0.755321   -1.174660
     54          6           0       -6.634068    1.321648   -1.650158
     55          6           0       -6.536783    1.924317   -3.063421
     56          6           0       -7.369043    2.277426   -0.666298
     57          6           0       -8.862663    1.828276   -0.557449
     58          6           0       -9.109874    0.670931    0.422816
     59          6           0      -10.069768    1.095279    1.602386
     60          6           0       -9.258223    1.836019    2.626240
     61          6           0      -10.692966   -0.190188    2.249737
     62          6           0      -12.275576    0.001674    2.289124
     63          6           0      -12.934345   -0.770579    1.173074
     64          6           0      -13.208215    0.043850   -0.168474
     65          6           0      -12.299048   -0.522197   -1.304152
     66          6           0      -14.655948    0.186017   -0.594438
     67          1           0        4.004839    0.529281   -4.470520
     68          1           0        4.124964    5.389645   -0.199642
     69          1           0        4.359374    1.252120    4.698112
     70          1           0        5.032237   -3.688823   -2.146416
     71          1           0        3.576542   -2.179347   -4.105526
     72          1           0        6.496352   -1.266296   -3.698346
     73          1           0        5.536732   -1.348291   -5.092873
     74          1           0        5.967391   -2.892160   -4.276285
     75          1           0        2.910233   -4.798892   -1.875019
     76          1           0        3.144464   -4.396605   -3.482131
     77          1           0        1.191626   -3.169350   -3.466430
     78          1           0        1.670197   -2.251408   -1.963924
     79          1           0        4.670490    4.059593   -5.518923
     80          1           0        2.893200    3.583152   -5.587980
     81          1           0        4.299973    2.462382   -5.696067
     82          1           0        4.273935    7.215874   -1.567631
     83          1           0        2.523323    6.555285   -1.540067
     84          1           0        2.998260    7.681939   -2.730630
     85          1           0        3.723673    5.414751    2.465187
     86          1           0        5.178372    3.502857    4.305945
     87          1           0        6.250957    5.360171    3.425822
     88          1           0        5.791017    6.600447    2.239822
     89          1           0        6.588626    5.098541    1.669802
     90          1           0        2.523076    3.285194    4.762974
     91          1           0        2.705924    4.923039    4.235988
     92          1           0        3.484296    3.728064    6.731680
     93          1           0        3.070943    5.375622    6.408685
     94          1           0        4.699779    4.887028    5.976040
     95          1           0        3.911546   -2.522481    5.365824
     96          1           0        3.295794   -0.841449    5.710626
     97          1           0        5.072898   -1.167784    5.789537
     98          1           0        3.029079   -4.372640    0.527006
     99          1           0        5.343978   -7.855462   -0.687455
    100          1           0        6.399123   -7.294727    0.531505
    101          1           0        6.379726   -6.490322   -1.049928
    102          1           0       -1.733999   -4.132231   -0.425579
    103          1           0       -2.369250   -4.222107   -2.067735
    104          1           0       -2.519241   -1.697797   -1.578047
    105          1           0       -3.299733   -4.507788    0.821243
    106          1           0       -5.032829   -3.952002    0.869695
    107          1           0       -3.890407   -3.254277    1.950849
    108          1           0       -3.784056   -0.394768    0.481680
    109          1           0       -5.182607   -1.202832    1.075137
    110          1           0       -6.338273   -1.071157   -0.761640
    111          1           0       -5.176833   -1.347508   -1.889270
    112          1           0       -4.603659    0.921307   -2.031891
    113          1           0       -5.014293    1.258558   -0.237772
    114          1           0       -7.303404    0.469056   -1.765869
    115          1           0       -5.980894    1.214307   -3.676940
    116          1           0       -6.093657    2.920488   -3.066319
    117          1           0       -7.519236    1.911223   -3.535030
    118          1           0       -7.444461    3.300856   -1.032895
    119          1           0       -6.911115    2.181882    0.318329
    120          1           0       -9.167144    1.580953   -1.574246
    121          1           0       -9.526894    2.613517   -0.197321
    122          1           0       -8.190615    0.237824    0.818270
    123          1           0       -9.507320   -0.177848   -0.133820
    124          1           0      -10.840695    1.810165    1.313510
    125          1           0       -9.791100    1.895181    3.576803
    126          1           0       -9.190566    2.873082    2.298841
    127          1           0       -8.281541    1.360198    2.708587
    128          1           0      -10.367495   -0.360765    3.276081
    129          1           0      -10.404610   -1.160433    1.845009
    130          1           0      -12.537341    1.058521    2.336974
    131          1           0      -12.514121   -0.443687    3.254140
    132          1           0      -13.870619   -1.064676    1.646868
    133          1           0      -12.370600   -1.656259    0.879103
    134          1           0      -12.786429    1.041645   -0.040578
    135          1           0      -11.816872   -1.475636   -1.088684
    136          1           0      -11.376011    0.040261   -1.441503
    137          1           0      -12.813809   -0.812477   -2.219939
    138          1           0      -15.320738   -0.084967    0.226313
    139          1           0      -14.935651   -0.474155   -1.415298
    140          1           0      -14.944911    1.193868   -0.895869
 ---------------------------------------------------------------------

 SCF Done:  E(RB-LYP) =  -3007.34742369     A.U. after   22 cycles

 Excitation energies and oscillator strengths:

 Excited State   1:      Singlet-A      1.6046 eV  772.67 nm  f=0.0016  <S**2>=0.000
     244 -> 247        0.70279
 This state for optimization and/or second-order correction.
 Total Energy, E(TD-HF/TD-DFT) =  -3007.28845468
 Copying the excited state density for this state as the 1-particle RhoCI density.

 Excited State   2:      Singlet-A      1.8261 eV  678.95 nm  f=0.0161  <S**2>=0.000
     243 -> 247        0.67080
     245 -> 247        0.15672
     246 -> 247        0.14518

 Excited State   3:      Singlet-A      1.8413 eV  673.37 nm  f=0.2767  <S**2>=0.000
     243 -> 247       -0.16259
     245 -> 248        0.20462
     246 -> 247        0.66111
     246 <- 247       -0.13671

 Excited State   4:      Singlet-A      1.9764 eV  627.33 nm  f=0.0844  <S**2>=0.000
     243 -> 247       -0.14924
     245 -> 247        0.63674
     246 -> 248       -0.23266

 Excited State   5:      Singlet-A      2.0628 eV  601.04 nm  f=0.0001  <S**2>=0.000
     242 -> 247        0.70703

 The electronic state is 1-A.
 Alpha  occ. eigenvalues --  -46.28557 -18.83413 -18.80654 -18.77249 -18.76959
 Alpha  occ. eigenvalues --  -18.75588 -18.74590 -14.04011 -14.03182 -14.01836
 Alpha  occ. eigenvalues --  -14.01089 -10.04372 -10.03832  -9.99592  -9.99313
 Alpha  occ. eigenvalues --   -9.97428  -9.97344  -9.97162  -9.96989  -9.96675
 Alpha  occ. eigenvalues --   -9.96591  -9.96340  -9.96252  -9.95626  -9.94842
 Alpha  occ. eigenvalues --   -9.94710  -9.94593  -9.94538  -9.94512  -9.94083
 Alpha  occ. eigenvalues --   -9.94035  -9.93869  -9.93704  -9.93572  -9.93509
 Alpha  occ. eigenvalues --   -9.93342  -9.93125  -9.92987  -9.92905  -9.92867
 Alpha  occ. eigenvalues --   -9.92857  -9.92733  -9.92656  -9.92299  -9.92285
 Alpha  occ. eigenvalues --   -9.92252  -9.92108  -9.92100  -9.92020  -9.91808
 Alpha  occ. eigenvalues --   -9.91785  -9.91335  -9.91335  -9.91121  -9.91088
 Alpha  occ. eigenvalues --   -9.91084  -9.91063  -9.91017  -9.90915  -9.90906
 Alpha  occ. eigenvalues --   -9.90818  -9.90784  -9.90703  -9.90672  -9.90495
 Alpha  occ. eigenvalues --   -9.90423  -2.92985  -1.73404  -1.72845  -1.72726
 Alpha  occ. eigenvalues --   -0.99559  -0.95532  -0.90572  -0.90261  -0.89776
 Alpha  occ. eigenvalues --   -0.89031  -0.87068  -0.86269  -0.85537  -0.84881
 Alpha  occ. eigenvalues --   -0.74550  -0.73767  -0.73621  -0.73207  -0.72731
 Alpha  occ. eigenvalues --   -0.71867  -0.71748  -0.70968  -0.70868  -0.70606
 Alpha  occ. eigenvalues --   -0.69686  -0.69051  -0.68266  -0.67641  -0.67416
 Alpha  occ. eigenvalues --   -0.66546  -0.65841  -0.65515  -0.64890  -0.64308
 Alpha  occ. eigenvalues --   -0.64032  -0.62915  -0.62605  -0.61806  -0.60612
 Alpha  occ. eigenvalues --   -0.60265  -0.60103  -0.59703  -0.59354  -0.58768
 Alpha  occ. eigenvalues --   -0.58601  -0.57811  -0.56618  -0.55712  -0.54788
 Alpha  occ. eigenvalues --   -0.53853  -0.53504  -0.52897  -0.52193  -0.51832
 Alpha  occ. eigenvalues --   -0.51345  -0.50932  -0.50877  -0.50413  -0.50050
 Alpha  occ. eigenvalues --   -0.49970  -0.49106  -0.48565  -0.47686  -0.46520
 Alpha  occ. eigenvalues --   -0.46319  -0.46231  -0.45292  -0.45218  -0.44865
 Alpha  occ. eigenvalues --   -0.44335  -0.43547  -0.43291  -0.43125  -0.41842
 Alpha  occ. eigenvalues --   -0.41783  -0.41535  -0.41284  -0.40993  -0.40915
 Alpha  occ. eigenvalues --   -0.40871  -0.40574  -0.40468  -0.40231  -0.39909
 Alpha  occ. eigenvalues --   -0.39865  -0.39841  -0.39479  -0.39376  -0.39318
 Alpha  occ. eigenvalues --   -0.38919  -0.38853  -0.38648  -0.38459  -0.38291
 Alpha  occ. eigenvalues --   -0.38139  -0.37961  -0.37764  -0.37570  -0.37386
 Alpha  occ. eigenvalues --   -0.37083  -0.36935  -0.36882  -0.36567  -0.36462
 Alpha  occ. eigenvalues --   -0.36401  -0.36163  -0.36037  -0.35743  -0.35670
 Alpha  occ. eigenvalues --   -0.35560  -0.35420  -0.35179  -0.35070  -0.34872
 Alpha  occ. eigenvalues --   -0.34710  -0.34341  -0.34270  -0.34210  -0.33929
 Alpha  occ. eigenvalues --   -0.33668  -0.33641  -0.33547  -0.33382  -0.32965
 Alpha  occ. eigenvalues --   -0.32773  -0.32670  -0.32473  -0.32397  -0.32125
 Alpha  occ. eigenvalues --   -0.32069  -0.31888  -0.31743  -0.31552  -0.31425
 Alpha  occ. eigenvalues --   -0.31315  -0.31197  -0.31046  -0.30929  -0.30851
 Alpha  occ. eigenvalues --   -0.30613  -0.30191  -0.30098  -0.29962  -0.29853
 Alpha  occ. eigenvalues --   -0.29569  -0.29368  -0.29191  -0.28890  -0.28734
 Alpha  occ. eigenvalues --   -0.28676  -0.28622  -0.28114  -0.27712  -0.27543
 Alpha  occ. eigenvalues --   -0.27406  -0.27095  -0.27044  -0.26535  -0.26427
 Alpha  occ. eigenvalues --   -0.26284  -0.25865  -0.25613  -0.25316  -0.25238
 Alpha  occ. eigenvalues --   -0.25036  -0.24678  -0.24072  -0.23940  -0.23089
 Alpha  occ. eigenvalues --   -0.22796  -0.22452  -0.22094  -0.21718  -0.21197
 Alpha  occ. eigenvalues --   -0.20686  -0.19496  -0.18531  -0.17736  -0.17376
 Alpha  occ. eigenvalues --   -0.16363
 Alpha virt. eigenvalues --   -0.11915  -0.07396  -0.06260  -0.04887  -0.03375
 Alpha virt. eigenvalues --   -0.02727  -0.02534  -0.01864  -0.01479  -0.00519
 Alpha virt. eigenvalues --    0.01099   0.01315   0.02394   0.02425   0.02700

 Mulliken charges:
               1
     1  Mg   0.671051
     2  C   -0.010115
     3  C   -0.059693
     4  C   -0.046450
     5  C   -0.076143
     6  N   -0.257158
     7  C   -0.033201
     8  C    0.006786
     9  C   -0.008245
    10  C    0.058426
    11  C    0.132764
    12  C    0.114432
    13  C    0.116471
    14  C    0.060618
    15  O   -0.195201
    16  O   -0.244543
    17  N   -0.300614
    18  C    0.139420
    19  C   -0.156277
    20  C    0.062608
    21  C    0.131669
    22  C    0.201577
    23  C   -0.124764
    24  O   -0.195826
    25  C    0.163677
    26  N   -0.189621
    27  C    0.034046
    28  C   -0.020228
    29  C    0.009128
    30  C    0.050819
    31  C    0.130652
    32  C    0.110707
    33  C    0.073576
    34  N   -0.197191
    35  C    0.056162
    36  C   -0.193407
    37  C    0.091285
    38  C    0.059949
    39  C    0.172927
    40  C   -0.051783
    41  O   -0.137668
    42  C    0.061409
    43  C    0.133282
    44  O   -0.160702
    45  O   -0.310121
    46  C    0.227206
    47  C    0.316050
    48  C   -0.152061
    49  C   -0.125297
    50  C    0.146985
    51  C    0.138062
    52  C    0.025511
    53  C    0.165410
    54  C   -0.124452
    55  C    0.106223
    56  C    0.144491
    57  C    0.044667
    58  C    0.076138
    59  C   -0.067247
    60  C    0.122541
    61  C    0.103123
    62  C    0.050172
    63  C    0.134113
    64  C   -0.066704
    65  C    0.071554
    66  C    0.117064
    67  H   -0.053558
    68  H   -0.080555
    69  H   -0.054350
    70  H   -0.023316
    71  H   -0.024052
    72  H   -0.003747
    73  H   -0.010575
    74  H   -0.003949
    75  H   -0.003362
    76  H   -0.026876
    77  H    0.002642
    78  H    0.033873
    79  H    0.008446
    80  H    0.019799
    81  H   -0.034880
    82  H    0.030189
    83  H   -0.005282
    84  H   -0.013629
    85  H   -0.021373
    86  H   -0.028455
    87  H   -0.012195
    88  H   -0.001413
    89  H   -0.001446
    90  H   -0.025885
    91  H   -0.037256
    92  H   -0.005206
    93  H   -0.013209
    94  H   -0.008399
    95  H    0.019496
    96  H    0.007002
    97  H    0.012283
    98  H    0.014651
    99  H    0.008153
   100  H    0.006124
   101  H    0.002256
   102  H    0.014041
   103  H   -0.007169
   104  H   -0.039358
   105  H   -0.005435
   106  H   -0.001156
   107  H   -0.005788
   108  H   -0.011384
   109  H   -0.038556
   110  H   -0.039579
   111  H   -0.027206
   112  H   -0.035376
   113  H   -0.027576
   114  H   -0.033642
   115  H   -0.024489
   116  H   -0.003294
   117  H   -0.025646
   118  H   -0.035213
   119  H   -0.036921
   120  H   -0.021076
   121  H   -0.041477
   122  H   -0.036439
   123  H   -0.040158
   124  H   -0.022707
   125  H   -0.021546
   126  H   -0.026663
   127  H   -0.014420
   128  H   -0.052889
   129  H   -0.046549
   130  H   -0.023424
   131  H   -0.042235
   132  H   -0.039187
   133  H   -0.032292
   134  H   -0.030530
   135  H   -0.036405
   136  H   -0.007456
   137  H   -0.021427
   138  H   -0.026010
   139  H   -0.018849
   140  H   -0.014500
 Sum of Mulliken charges =  -0.00000

 Dipole moment (field-independent basis, Debye):
    X=             -0.7776    Y=              2.4088    Z=             -0.3503  Tot=              2.5554
 Quadrupole moment (field-independent basis, Debye-Ang):
   XX=           -390.7489   YY=           -423.4403   ZZ=           -401.1621
   XY=             10.7670   XZ=             -8.0208   YZ=             54.3273

 Normal termination of Gaussian 16 at Thu Apr 28 21:20:00 2022.
