 Gaussian 16, Revision A.03,
 Gaussian 16:  ES64L-G16RevA.03 25-Dec-2016

 -----------------------------------
 #p cam-b3lyp/Def2SVP td=(nstates=5)
 -----------------------------------

 -------------------------------------------------------
 step_1701_chromophore_8 TDDFT with cam-b3lyp functional
 -------------------------------------------------------
 Symbolic Z-matrix:
 Charge =  0 Multiplicity = 1

                         Standard orientation:
 ---------------------------------------------------------------------
 Center     Atomic      Atomic             Coordinates (Angstroms)
 Number     Number       Type             X           Y           Z
 ---------------------------------------------------------------------
      1         12           0        4.308394    0.966071   -0.031735
      2          6           0        4.086888   -2.491338    0.420014
      3          6           0        3.942477    0.647631   -3.386462
      4          6           0        4.122149    4.298299   -0.161747
      5          6           0        4.171593    1.266623    3.622398
      6          7           0        4.023332   -0.789348   -1.278001
      7          6           0        4.200050   -2.097641   -0.949590
      8          6           0        4.196185   -2.992874   -2.218959
      9          6           0        4.344082   -1.867749   -3.396993
     10          6           0        4.030992   -0.551887   -2.665011
     11          6           0        5.685373   -1.848890   -4.135939
     12          6           0        2.947691   -3.921279   -2.521519
     13          6           0        1.622819   -3.216824   -2.466784
     14          6           0        0.513495   -3.805044   -1.682264
     15          8           0        0.562776   -4.632583   -0.759324
     16          8           0       -0.598088   -3.138063   -2.040360
     17          7           0        3.967714    2.334776   -1.517823
     18          6           0        3.866072    1.988834   -2.867965
     19          6           0        3.853112    3.213713   -3.687630
     20          6           0        3.835541    4.300086   -2.713290
     21          6           0        3.929865    3.660886   -1.393204
     22          6           0        3.893102    3.355289   -5.221156
     23          6           0        3.649022    5.742664   -3.062277
     24          8           0        3.656969    6.097333   -4.252239
     25          6           0        3.392983    6.875472   -2.112405
     26          7           0        4.107908    2.589881    1.523296
     27          6           0        4.391355    3.808635    1.106166
     28          6           0        4.558629    4.717692    2.394920
     29          6           0        4.303702    3.702708    3.687617
     30          6           0        4.126306    2.435254    2.909630
     31          6           0        5.908583    5.528829    2.404825
     32          6           0        3.256050    4.086195    4.665447
     33          6           0        3.666840    4.544769    6.032555
     34          7           0        4.143864   -0.338621    1.711309
     35          6           0        4.189503   -0.064209    3.109535
     36          6           0        4.146427   -1.341995    3.843983
     37          6           0        4.022576   -2.290226    2.832339
     38          6           0        4.187231   -1.602254    1.592701
     39          6           0        4.120364   -1.452719    5.342837
     40          6           0        3.845490   -3.694514    2.544443
     41          8           0        3.682339   -4.658407    3.293952
     42          6           0        3.906253   -3.886305    0.954735
     43          6           0        5.157777   -4.727486    0.724188
     44          8           0        6.309710   -4.388841    0.892914
     45          8           0        4.740443   -6.040350    0.286574
     46          6           0        5.757991   -6.936052   -0.273586
     47          6           0       -1.795336   -3.604317   -1.377248
     48          6           0       -2.835273   -2.578779   -1.018746
     49          6           0       -3.695411   -2.501275    0.002201
     50          6           0       -3.982314   -3.668090    0.945984
     51          6           0       -4.473141   -1.207192    0.247265
     52          6           0       -5.319220   -0.755910   -0.984129
     53          6           0       -5.255278    0.755321   -1.174660
     54          6           0       -6.634068    1.321648   -1.650158
     55          6           0       -6.536783    1.924317   -3.063421
     56          6           0       -7.369043    2.277426   -0.666298
     57          6           0       -8.862663    1.828276   -0.557449
     58          6           0       -9.109874    0.670931    0.422816
     59          6           0      -10.069768    1.095279    1.602386
     60          6           0       -9.258223    1.836019    2.626240
     61          6           0      -10.692966   -0.190188    2.249737
     62          6           0      -12.275576    0.001674    2.289124
     63          6           0      -12.934345   -0.770579    1.173074
     64          6           0      -13.208215    0.043850   -0.168474
     65          6           0      -12.299048   -0.522197   -1.304152
     66          6           0      -14.655948    0.186017   -0.594438
     67          1           0        4.004839    0.529281   -4.470520
     68          1           0        4.124964    5.389645   -0.199642
     69          1           0        4.359374    1.252120    4.698112
     70          1           0        5.032237   -3.688823   -2.146416
     71          1           0        3.576542   -2.179347   -4.105526
     72          1           0        6.496352   -1.266296   -3.698346
     73          1           0        5.536732   -1.348291   -5.092873
     74          1           0        5.967391   -2.892160   -4.276285
     75          1           0        2.910233   -4.798892   -1.875019
     76          1           0        3.144464   -4.396605   -3.482131
     77          1           0        1.191626   -3.169350   -3.466430
     78          1           0        1.670197   -2.251408   -1.963924
     79          1           0        4.670490    4.059593   -5.518923
     80          1           0        2.893200    3.583152   -5.587980
     81          1           0        4.299973    2.462382   -5.696067
     82          1           0        4.273935    7.215874   -1.567631
     83          1           0        2.523323    6.555285   -1.540067
     84          1           0        2.998260    7.681939   -2.730630
     85          1           0        3.723673    5.414751    2.465187
     86          1           0        5.178372    3.502857    4.305945
     87          1           0        6.250957    5.360171    3.425822
     88          1           0        5.791017    6.600447    2.239822
     89          1           0        6.588626    5.098541    1.669802
     90          1           0        2.523076    3.285194    4.762974
     91          1           0        2.705924    4.923039    4.235988
     92          1           0        3.484296    3.728064    6.731680
     93          1           0        3.070943    5.375622    6.408685
     94          1           0        4.699779    4.887028    5.976040
     95          1           0        3.911546   -2.522481    5.365824
     96          1           0        3.295794   -0.841449    5.710626
     97          1           0        5.072898   -1.167784    5.789537
     98          1           0        3.029079   -4.372640    0.527006
     99          1           0        5.343978   -7.855462   -0.687455
    100          1           0        6.399123   -7.294727    0.531505
    101          1           0        6.379726   -6.490322   -1.049928
    102          1           0       -1.733999   -4.132231   -0.425579
    103          1           0       -2.369250   -4.222107   -2.067735
    104          1           0       -2.519241   -1.697797   -1.578047
    105          1           0       -3.299733   -4.507788    0.821243
    106          1           0       -5.032829   -3.952002    0.869695
    107          1           0       -3.890407   -3.254277    1.950849
    108          1           0       -3.784056   -0.394768    0.481680
    109          1           0       -5.182607   -1.202832    1.075137
    110          1           0       -6.338273   -1.071157   -0.761640
    111          1           0       -5.176833   -1.347508   -1.889270
    112          1           0       -4.603659    0.921307   -2.031891
    113          1           0       -5.014293    1.258558   -0.237772
    114          1           0       -7.303404    0.469056   -1.765869
    115          1           0       -5.980894    1.214307   -3.676940
    116          1           0       -6.093657    2.920488   -3.066319
    117          1           0       -7.519236    1.911223   -3.535030
    118          1           0       -7.444461    3.300856   -1.032895
    119          1           0       -6.911115    2.181882    0.318329
    120          1           0       -9.167144    1.580953   -1.574246
    121          1           0       -9.526894    2.613517   -0.197321
    122          1           0       -8.190615    0.237824    0.818270
    123          1           0       -9.507320   -0.177848   -0.133820
    124          1           0      -10.840695    1.810165    1.313510
    125          1           0       -9.791100    1.895181    3.576803
    126          1           0       -9.190566    2.873082    2.298841
    127          1           0       -8.281541    1.360198    2.708587
    128          1           0      -10.367495   -0.360765    3.276081
    129          1           0      -10.404610   -1.160433    1.845009
    130          1           0      -12.537341    1.058521    2.336974
    131          1           0      -12.514121   -0.443687    3.254140
    132          1           0      -13.870619   -1.064676    1.646868
    133          1           0      -12.370600   -1.656259    0.879103
    134          1           0      -12.786429    1.041645   -0.040578
    135          1           0      -11.816872   -1.475636   -1.088684
    136          1           0      -11.376011    0.040261   -1.441503
    137          1           0      -12.813809   -0.812477   -2.219939
    138          1           0      -15.320738   -0.084967    0.226313
    139          1           0      -14.935651   -0.474155   -1.415298
    140          1           0      -14.944911    1.193868   -0.895869
 ---------------------------------------------------------------------

 SCF Done:  E(RCAM-B3LYP) =  -3007.13325135     A.U. after   17 cycles

 Excitation energies and oscillator strengths:

 Excited State   1:      Singlet-A      1.7286 eV  717.24 nm  f=0.3684  <S**2>=0.000
     245 -> 248        0.18870
     246 -> 247        0.68135
     245 <- 248        0.10767
 This state for optimization and/or second-order correction.
 Total Energy, E(TD-HF/TD-DFT) =  -3007.06972536
 Copying the excited state density for this state as the 1-particle RhoCI density.

 Excited State   2:      Singlet-A      2.1628 eV  573.26 nm  f=0.1195  <S**2>=0.000
     245 -> 247        0.64410
     246 -> 248       -0.28042

 Excited State   3:      Singlet-A      3.3272 eV  372.64 nm  f=0.0003  <S**2>=0.000
     241 -> 247        0.42849
     241 -> 248       -0.11646
     241 -> 249       -0.23889
     241 -> 251       -0.21304
     242 -> 247        0.30228
     242 -> 249       -0.16938
     242 -> 251       -0.13754
     243 -> 247        0.16423

 Excited State   4:      Singlet-A      3.3466 eV  370.47 nm  f=0.0004  <S**2>=0.000
     240 -> 247        0.24611
     240 -> 249        0.15332
     240 -> 251       -0.12432
     242 -> 247       -0.31714
     242 -> 249       -0.13775
     243 -> 247        0.45893
     243 -> 249        0.10756

 Excited State   5:      Singlet-A      3.4332 eV  361.14 nm  f=0.0172  <S**2>=0.000
     240 -> 247       -0.22194
     241 -> 247       -0.33946
     242 -> 247        0.29356
     243 -> 247        0.45585

 The electronic state is 1-A.
 Alpha  occ. eigenvalues --  -46.90232 -19.26278 -19.23541 -19.20446 -19.19831
 Alpha  occ. eigenvalues --  -19.18664 -19.17887 -14.42872 -14.42120 -14.40420
 Alpha  occ. eigenvalues --  -14.39513 -10.39580 -10.39434 -10.34879 -10.34545
 Alpha  occ. eigenvalues --  -10.31866 -10.31773 -10.31349 -10.31188 -10.31134
 Alpha  occ. eigenvalues --  -10.30947 -10.30759 -10.30611 -10.29817 -10.29312
 Alpha  occ. eigenvalues --  -10.29005 -10.28971 -10.28717 -10.28603 -10.28490
 Alpha  occ. eigenvalues --  -10.28304 -10.28045 -10.27867 -10.27617 -10.27452
 Alpha  occ. eigenvalues --  -10.27449 -10.27274 -10.27271 -10.27053 -10.27008
 Alpha  occ. eigenvalues --  -10.26589 -10.26467 -10.26348 -10.26192 -10.25915
 Alpha  occ. eigenvalues --  -10.25886 -10.25867 -10.25800 -10.25705 -10.25701
 Alpha  occ. eigenvalues --  -10.25505 -10.25335 -10.25054 -10.25005 -10.24755
 Alpha  occ. eigenvalues --  -10.24727 -10.24716 -10.24651 -10.24614 -10.24579
 Alpha  occ. eigenvalues --  -10.24457 -10.24371 -10.24363 -10.24244 -10.24060
 Alpha  occ. eigenvalues --  -10.24020  -3.18554  -1.93452  -1.92979  -1.92881
 Alpha  occ. eigenvalues --   -1.17970  -1.14101  -1.08848  -1.08708  -1.07575
 Alpha  occ. eigenvalues --   -1.06885  -1.04725  -1.03973  -1.03188  -1.02440
 Alpha  occ. eigenvalues --   -0.91591  -0.90591  -0.90401  -0.90004  -0.89506
 Alpha  occ. eigenvalues --   -0.88543  -0.88433  -0.87512  -0.87463  -0.87135
 Alpha  occ. eigenvalues --   -0.86083  -0.85720  -0.84524  -0.83805  -0.83623
 Alpha  occ. eigenvalues --   -0.82604  -0.81961  -0.81549  -0.80873  -0.80108
 Alpha  occ. eigenvalues --   -0.79757  -0.78525  -0.78160  -0.77486  -0.75988
 Alpha  occ. eigenvalues --   -0.75619  -0.75406  -0.74986  -0.74631  -0.73875
 Alpha  occ. eigenvalues --   -0.73759  -0.72797  -0.71497  -0.70489  -0.69396
 Alpha  occ. eigenvalues --   -0.68489  -0.68032  -0.67437  -0.66532  -0.65887
 Alpha  occ. eigenvalues --   -0.65455  -0.65122  -0.64933  -0.64351  -0.64087
 Alpha  occ. eigenvalues --   -0.63784  -0.63046  -0.62435  -0.61316  -0.60150
 Alpha  occ. eigenvalues --   -0.59855  -0.59700  -0.58749  -0.58597  -0.58272
 Alpha  occ. eigenvalues --   -0.57674  -0.57070  -0.56587  -0.56323  -0.55090
 Alpha  occ. eigenvalues --   -0.54984  -0.54557  -0.54108  -0.53872  -0.53855
 Alpha  occ. eigenvalues --   -0.53567  -0.53284  -0.53083  -0.52971  -0.52860
 Alpha  occ. eigenvalues --   -0.52692  -0.52388  -0.52359  -0.51954  -0.51771
 Alpha  occ. eigenvalues --   -0.51553  -0.51271  -0.51170  -0.50966  -0.50619
 Alpha  occ. eigenvalues --   -0.50524  -0.50287  -0.50181  -0.49865  -0.49625
 Alpha  occ. eigenvalues --   -0.49475  -0.49329  -0.48983  -0.48881  -0.48582
 Alpha  occ. eigenvalues --   -0.48562  -0.48403  -0.48370  -0.48181  -0.47993
 Alpha  occ. eigenvalues --   -0.47647  -0.47485  -0.47305  -0.47115  -0.46994
 Alpha  occ. eigenvalues --   -0.46800  -0.46406  -0.46166  -0.46049  -0.45608
 Alpha  occ. eigenvalues --   -0.45558  -0.45329  -0.45270  -0.45119  -0.44907
 Alpha  occ. eigenvalues --   -0.44519  -0.44238  -0.44150  -0.43894  -0.43830
 Alpha  occ. eigenvalues --   -0.43776  -0.43512  -0.43271  -0.43109  -0.42991
 Alpha  occ. eigenvalues --   -0.42903  -0.42656  -0.42573  -0.42504  -0.42178
 Alpha  occ. eigenvalues --   -0.41994  -0.41701  -0.41376  -0.41230  -0.41069
 Alpha  occ. eigenvalues --   -0.40804  -0.40660  -0.40645  -0.40479  -0.39911
 Alpha  occ. eigenvalues --   -0.39629  -0.39614  -0.39091  -0.38808  -0.38553
 Alpha  occ. eigenvalues --   -0.38288  -0.37944  -0.37858  -0.37787  -0.37142
 Alpha  occ. eigenvalues --   -0.37012  -0.36788  -0.36427  -0.36127  -0.35921
 Alpha  occ. eigenvalues --   -0.35616  -0.35588  -0.35208  -0.34350  -0.34151
 Alpha  occ. eigenvalues --   -0.33974  -0.33498  -0.33096  -0.31273  -0.30647
 Alpha  occ. eigenvalues --   -0.30318  -0.30240  -0.30040  -0.29086  -0.24059
 Alpha  occ. eigenvalues --   -0.21702
 Alpha virt. eigenvalues --   -0.09120  -0.02309   0.00179   0.01662   0.02170
 Alpha virt. eigenvalues --    0.04895   0.05133   0.05378   0.06110   0.06447
 Alpha virt. eigenvalues --    0.07509   0.08303   0.08460   0.08684   0.08912

 Mulliken charges:
               1
     1  Mg   0.801271
     2  C   -0.034148
     3  C   -0.071856
     4  C   -0.062550
     5  C   -0.077997
     6  N   -0.326244
     7  C    0.002822
     8  C   -0.032813
     9  C   -0.067749
    10  C    0.072701
    11  C    0.078794
    12  C    0.060330
    13  C    0.038283
    14  C    0.146763
    15  O   -0.239790
    16  O   -0.308660
    17  N   -0.389977
    18  C    0.143392
    19  C   -0.157266
    20  C   -0.012548
    21  C    0.161607
    22  C    0.148676
    23  C   -0.047025
    24  O   -0.235146
    25  C    0.077575
    26  N   -0.257398
    27  C    0.050170
    28  C   -0.072796
    29  C   -0.047754
    30  C    0.070423
    31  C    0.074824
    32  C    0.050303
    33  C    0.012234
    34  N   -0.280830
    35  C    0.054749
    36  C   -0.179625
    37  C    0.005709
    38  C    0.099232
    39  C    0.119145
    40  C    0.044162
    41  O   -0.177101
    42  C   -0.011237
    43  C    0.222305
    44  O   -0.195418
    45  O   -0.375403
    46  C    0.187705
    47  C    0.283723
    48  C   -0.168819
    49  C   -0.154060
    50  C    0.086458
    51  C    0.084252
    52  C   -0.027034
    53  C    0.104054
    54  C   -0.179089
    55  C    0.052624
    56  C    0.091312
    57  C   -0.005851
    58  C    0.028716
    59  C   -0.124249
    60  C    0.067032
    61  C    0.048169
    62  C   -0.007602
    63  C    0.079276
    64  C   -0.129279
    65  C    0.018693
    66  C    0.058988
    67  H   -0.018333
    68  H   -0.044000
    69  H   -0.019050
    70  H    0.009595
    71  H    0.010823
    72  H    0.022123
    73  H    0.012385
    74  H    0.019350
    75  H    0.029589
    76  H    0.005272
    77  H    0.036509
    78  H    0.064927
    79  H    0.037292
    80  H    0.046461
    81  H   -0.008491
    82  H    0.056417
    83  H    0.024133
    84  H    0.024087
    85  H    0.011956
    86  H    0.006075
    87  H    0.010606
    88  H    0.021880
    89  H    0.023204
    90  H    0.006206
    91  H   -0.007628
    92  H    0.017505
    93  H    0.012490
    94  H    0.012949
    95  H    0.046521
    96  H    0.031704
    97  H    0.037744
    98  H    0.058078
    99  H    0.031552
   100  H    0.029604
   101  H    0.022832
   102  H    0.042778
   103  H    0.019959
   104  H   -0.005575
   105  H    0.018464
   106  H    0.022613
   107  H    0.018295
   108  H    0.018763
   109  H   -0.008667
   110  H   -0.012047
   111  H    0.003084
   112  H   -0.004505
   113  H    0.001081
   114  H   -0.003134
   115  H   -0.000731
   116  H    0.019630
   117  H   -0.001555
   118  H   -0.004971
   119  H   -0.010563
   120  H    0.003350
   121  H   -0.012319
   122  H   -0.011713
   123  H   -0.014286
   124  H    0.005075
   125  H    0.003766
   126  H   -0.002108
   127  H    0.007937
   128  H   -0.021073
   129  H   -0.016683
   130  H    0.003834
   131  H   -0.010823
   132  H   -0.009596
   133  H   -0.004167
   134  H   -0.000220
   135  H   -0.013080
   136  H    0.010872
   137  H    0.004094
   138  H   -0.001655
   139  H    0.004424
   140  H    0.009931
 Sum of Mulliken charges =  -0.00000

 Dipole moment (field-independent basis, Debye):
    X=             -0.6275    Y=              2.8624    Z=             -0.6562  Tot=              3.0030
 Quadrupole moment (field-independent basis, Debye-Ang):
   XX=           -390.3335   YY=           -419.9512   ZZ=           -398.8319
   XY=             12.0687   XZ=             -9.7177   YZ=             56.1533

 Normal termination of Gaussian 16 at Thu Apr 28 20:13:05 2022.
