 Gaussian 16, Revision A.03,
 Gaussian 16:  ES64L-G16RevA.03 25-Dec-2016

 ---------------------------------
 #p PBE1PBE/Def2SVP td=(nstates=5)
 ---------------------------------

 -----------------------------------------------------
 step_1701_chromophore_8 TDDFT with PBE1PBE functional
 -----------------------------------------------------
 Symbolic Z-matrix:
 Charge =  0 Multiplicity = 1

                         Standard orientation:
 ---------------------------------------------------------------------
 Center     Atomic      Atomic             Coordinates (Angstroms)
 Number     Number       Type             X           Y           Z
 ---------------------------------------------------------------------
      1         12           0        4.308394    0.966071   -0.031735
      2          6           0        4.086888   -2.491338    0.420014
      3          6           0        3.942477    0.647631   -3.386462
      4          6           0        4.122149    4.298299   -0.161747
      5          6           0        4.171593    1.266623    3.622398
      6          7           0        4.023332   -0.789348   -1.278001
      7          6           0        4.200050   -2.097641   -0.949590
      8          6           0        4.196185   -2.992874   -2.218959
      9          6           0        4.344082   -1.867749   -3.396993
     10          6           0        4.030992   -0.551887   -2.665011
     11          6           0        5.685373   -1.848890   -4.135939
     12          6           0        2.947691   -3.921279   -2.521519
     13          6           0        1.622819   -3.216824   -2.466784
     14          6           0        0.513495   -3.805044   -1.682264
     15          8           0        0.562776   -4.632583   -0.759324
     16          8           0       -0.598088   -3.138063   -2.040360
     17          7           0        3.967714    2.334776   -1.517823
     18          6           0        3.866072    1.988834   -2.867965
     19          6           0        3.853112    3.213713   -3.687630
     20          6           0        3.835541    4.300086   -2.713290
     21          6           0        3.929865    3.660886   -1.393204
     22          6           0        3.893102    3.355289   -5.221156
     23          6           0        3.649022    5.742664   -3.062277
     24          8           0        3.656969    6.097333   -4.252239
     25          6           0        3.392983    6.875472   -2.112405
     26          7           0        4.107908    2.589881    1.523296
     27          6           0        4.391355    3.808635    1.106166
     28          6           0        4.558629    4.717692    2.394920
     29          6           0        4.303702    3.702708    3.687617
     30          6           0        4.126306    2.435254    2.909630
     31          6           0        5.908583    5.528829    2.404825
     32          6           0        3.256050    4.086195    4.665447
     33          6           0        3.666840    4.544769    6.032555
     34          7           0        4.143864   -0.338621    1.711309
     35          6           0        4.189503   -0.064209    3.109535
     36          6           0        4.146427   -1.341995    3.843983
     37          6           0        4.022576   -2.290226    2.832339
     38          6           0        4.187231   -1.602254    1.592701
     39          6           0        4.120364   -1.452719    5.342837
     40          6           0        3.845490   -3.694514    2.544443
     41          8           0        3.682339   -4.658407    3.293952
     42          6           0        3.906253   -3.886305    0.954735
     43          6           0        5.157777   -4.727486    0.724188
     44          8           0        6.309710   -4.388841    0.892914
     45          8           0        4.740443   -6.040350    0.286574
     46          6           0        5.757991   -6.936052   -0.273586
     47          6           0       -1.795336   -3.604317   -1.377248
     48          6           0       -2.835273   -2.578779   -1.018746
     49          6           0       -3.695411   -2.501275    0.002201
     50          6           0       -3.982314   -3.668090    0.945984
     51          6           0       -4.473141   -1.207192    0.247265
     52          6           0       -5.319220   -0.755910   -0.984129
     53          6           0       -5.255278    0.755321   -1.174660
     54          6           0       -6.634068    1.321648   -1.650158
     55          6           0       -6.536783    1.924317   -3.063421
     56          6           0       -7.369043    2.277426   -0.666298
     57          6           0       -8.862663    1.828276   -0.557449
     58          6           0       -9.109874    0.670931    0.422816
     59          6           0      -10.069768    1.095279    1.602386
     60          6           0       -9.258223    1.836019    2.626240
     61          6           0      -10.692966   -0.190188    2.249737
     62          6           0      -12.275576    0.001674    2.289124
     63          6           0      -12.934345   -0.770579    1.173074
     64          6           0      -13.208215    0.043850   -0.168474
     65          6           0      -12.299048   -0.522197   -1.304152
     66          6           0      -14.655948    0.186017   -0.594438
     67          1           0        4.004839    0.529281   -4.470520
     68          1           0        4.124964    5.389645   -0.199642
     69          1           0        4.359374    1.252120    4.698112
     70          1           0        5.032237   -3.688823   -2.146416
     71          1           0        3.576542   -2.179347   -4.105526
     72          1           0        6.496352   -1.266296   -3.698346
     73          1           0        5.536732   -1.348291   -5.092873
     74          1           0        5.967391   -2.892160   -4.276285
     75          1           0        2.910233   -4.798892   -1.875019
     76          1           0        3.144464   -4.396605   -3.482131
     77          1           0        1.191626   -3.169350   -3.466430
     78          1           0        1.670197   -2.251408   -1.963924
     79          1           0        4.670490    4.059593   -5.518923
     80          1           0        2.893200    3.583152   -5.587980
     81          1           0        4.299973    2.462382   -5.696067
     82          1           0        4.273935    7.215874   -1.567631
     83          1           0        2.523323    6.555285   -1.540067
     84          1           0        2.998260    7.681939   -2.730630
     85          1           0        3.723673    5.414751    2.465187
     86          1           0        5.178372    3.502857    4.305945
     87          1           0        6.250957    5.360171    3.425822
     88          1           0        5.791017    6.600447    2.239822
     89          1           0        6.588626    5.098541    1.669802
     90          1           0        2.523076    3.285194    4.762974
     91          1           0        2.705924    4.923039    4.235988
     92          1           0        3.484296    3.728064    6.731680
     93          1           0        3.070943    5.375622    6.408685
     94          1           0        4.699779    4.887028    5.976040
     95          1           0        3.911546   -2.522481    5.365824
     96          1           0        3.295794   -0.841449    5.710626
     97          1           0        5.072898   -1.167784    5.789537
     98          1           0        3.029079   -4.372640    0.527006
     99          1           0        5.343978   -7.855462   -0.687455
    100          1           0        6.399123   -7.294727    0.531505
    101          1           0        6.379726   -6.490322   -1.049928
    102          1           0       -1.733999   -4.132231   -0.425579
    103          1           0       -2.369250   -4.222107   -2.067735
    104          1           0       -2.519241   -1.697797   -1.578047
    105          1           0       -3.299733   -4.507788    0.821243
    106          1           0       -5.032829   -3.952002    0.869695
    107          1           0       -3.890407   -3.254277    1.950849
    108          1           0       -3.784056   -0.394768    0.481680
    109          1           0       -5.182607   -1.202832    1.075137
    110          1           0       -6.338273   -1.071157   -0.761640
    111          1           0       -5.176833   -1.347508   -1.889270
    112          1           0       -4.603659    0.921307   -2.031891
    113          1           0       -5.014293    1.258558   -0.237772
    114          1           0       -7.303404    0.469056   -1.765869
    115          1           0       -5.980894    1.214307   -3.676940
    116          1           0       -6.093657    2.920488   -3.066319
    117          1           0       -7.519236    1.911223   -3.535030
    118          1           0       -7.444461    3.300856   -1.032895
    119          1           0       -6.911115    2.181882    0.318329
    120          1           0       -9.167144    1.580953   -1.574246
    121          1           0       -9.526894    2.613517   -0.197321
    122          1           0       -8.190615    0.237824    0.818270
    123          1           0       -9.507320   -0.177848   -0.133820
    124          1           0      -10.840695    1.810165    1.313510
    125          1           0       -9.791100    1.895181    3.576803
    126          1           0       -9.190566    2.873082    2.298841
    127          1           0       -8.281541    1.360198    2.708587
    128          1           0      -10.367495   -0.360765    3.276081
    129          1           0      -10.404610   -1.160433    1.845009
    130          1           0      -12.537341    1.058521    2.336974
    131          1           0      -12.514121   -0.443687    3.254140
    132          1           0      -13.870619   -1.064676    1.646868
    133          1           0      -12.370600   -1.656259    0.879103
    134          1           0      -12.786429    1.041645   -0.040578
    135          1           0      -11.816872   -1.475636   -1.088684
    136          1           0      -11.376011    0.040261   -1.441503
    137          1           0      -12.813809   -0.812477   -2.219939
    138          1           0      -15.320738   -0.084967    0.226313
    139          1           0      -14.935651   -0.474155   -1.415298
    140          1           0      -14.944911    1.193868   -0.895869
 ---------------------------------------------------------------------

 SCF Done:  E(RPBE1PBE) =  -3005.32273566     A.U. after   15 cycles

 Excitation energies and oscillator strengths:

 Excited State   1:      Singlet-A      1.8891 eV  656.30 nm  f=0.3567  <S**2>=0.000
     245 -> 248        0.18495
     246 -> 247        0.68705
     246 <- 247       -0.10049
 This state for optimization and/or second-order correction.
 Total Energy, E(TD-HF/TD-DFT) =  -3005.25331118
 Copying the excited state density for this state as the 1-particle RhoCI density.

 Excited State   2:      Singlet-A      2.1772 eV  569.45 nm  f=0.1142  <S**2>=0.000
     245 -> 247        0.65491
     246 -> 248       -0.25457

 Excited State   3:      Singlet-A      2.7746 eV  446.85 nm  f=0.0001  <S**2>=0.000
     243 -> 247        0.67013
     243 -> 249       -0.15599
     243 -> 250        0.11502

 Excited State   4:      Singlet-A      2.8380 eV  436.88 nm  f=0.0002  <S**2>=0.000
     242 -> 247        0.67364
     242 -> 249        0.14032

 Excited State   5:      Singlet-A      3.0733 eV  403.43 nm  f=0.0001  <S**2>=0.000
     244 -> 247        0.70506

 The electronic state is 1-A.
 Alpha  occ. eigenvalues --  -46.93590 -19.26937 -19.24235 -19.20632 -19.20105
 Alpha  occ. eigenvalues --  -19.18965 -19.18055 -14.42454 -14.41555 -14.39996
 Alpha  occ. eigenvalues --  -14.39138 -10.36567 -10.36486 -10.32102 -10.31633
 Alpha  occ. eigenvalues --  -10.29646 -10.29466 -10.28834 -10.28763 -10.28762
 Alpha  occ. eigenvalues --  -10.28408 -10.28329 -10.28173 -10.27685 -10.26954
 Alpha  occ. eigenvalues --  -10.26858 -10.26669 -10.26556 -10.26402 -10.26223
 Alpha  occ. eigenvalues --  -10.26214 -10.25692 -10.25531 -10.25475 -10.25114
 Alpha  occ. eigenvalues --  -10.24926 -10.24907 -10.24864 -10.24651 -10.24601
 Alpha  occ. eigenvalues --  -10.24048 -10.23920 -10.23812 -10.23582 -10.23483
 Alpha  occ. eigenvalues --  -10.23464 -10.23263 -10.23258 -10.23218 -10.23163
 Alpha  occ. eigenvalues --  -10.23134 -10.23131 -10.22761 -10.22526 -10.22306
 Alpha  occ. eigenvalues --  -10.22282 -10.22274 -10.22209 -10.22182 -10.22128
 Alpha  occ. eigenvalues --  -10.22015 -10.21976 -10.21749 -10.21602 -10.21427
 Alpha  occ. eigenvalues --  -10.21419  -3.15500  -1.88337  -1.87842  -1.87748
 Alpha  occ. eigenvalues --   -1.12787  -1.08821  -1.03649  -1.03366  -1.02394
 Alpha  occ. eigenvalues --   -1.01732  -0.99441  -0.98585  -0.97779  -0.97057
 Alpha  occ. eigenvalues --   -0.85945  -0.84753  -0.84703  -0.84122  -0.83626
 Alpha  occ. eigenvalues --   -0.82811  -0.82587  -0.81836  -0.81786  -0.81250
 Alpha  occ. eigenvalues --   -0.80339  -0.79955  -0.78719  -0.78066  -0.77850
 Alpha  occ. eigenvalues --   -0.76785  -0.76192  -0.75701  -0.75130  -0.74312
 Alpha  occ. eigenvalues --   -0.74037  -0.72828  -0.72473  -0.71719  -0.70324
 Alpha  occ. eigenvalues --   -0.69688  -0.69570  -0.69327  -0.68744  -0.68192
 Alpha  occ. eigenvalues --   -0.67986  -0.67225  -0.65915  -0.64812  -0.63764
 Alpha  occ. eigenvalues --   -0.62926  -0.62269  -0.61860  -0.60771  -0.60333
 Alpha  occ. eigenvalues --   -0.59903  -0.59454  -0.59294  -0.58924  -0.58286
 Alpha  occ. eigenvalues --   -0.58197  -0.57225  -0.56614  -0.55912  -0.54722
 Alpha  occ. eigenvalues --   -0.54401  -0.54165  -0.53348  -0.53173  -0.52578
 Alpha  occ. eigenvalues --   -0.52280  -0.51478  -0.51099  -0.50900  -0.49668
 Alpha  occ. eigenvalues --   -0.49538  -0.49123  -0.48603  -0.48381  -0.48330
 Alpha  occ. eigenvalues --   -0.48058  -0.47846  -0.47564  -0.47491  -0.47455
 Alpha  occ. eigenvalues --   -0.46992  -0.46877  -0.46828  -0.46413  -0.46242
 Alpha  occ. eigenvalues --   -0.46075  -0.45889  -0.45716  -0.45504  -0.45114
 Alpha  occ. eigenvalues --   -0.45050  -0.44921  -0.44727  -0.44468  -0.44243
 Alpha  occ. eigenvalues --   -0.44029  -0.43948  -0.43561  -0.43508  -0.43185
 Alpha  occ. eigenvalues --   -0.43112  -0.43039  -0.42960  -0.42813  -0.42619
 Alpha  occ. eigenvalues --   -0.42266  -0.42125  -0.41953  -0.41866  -0.41707
 Alpha  occ. eigenvalues --   -0.41460  -0.41120  -0.40939  -0.40637  -0.40254
 Alpha  occ. eigenvalues --   -0.40182  -0.40030  -0.39915  -0.39851  -0.39653
 Alpha  occ. eigenvalues --   -0.39322  -0.39019  -0.38832  -0.38653  -0.38562
 Alpha  occ. eigenvalues --   -0.38523  -0.38294  -0.38018  -0.37862  -0.37829
 Alpha  occ. eigenvalues --   -0.37631  -0.37486  -0.37361  -0.37242  -0.36898
 Alpha  occ. eigenvalues --   -0.36873  -0.36451  -0.36267  -0.36136  -0.35971
 Alpha  occ. eigenvalues --   -0.35632  -0.35460  -0.35402  -0.35208  -0.34646
 Alpha  occ. eigenvalues --   -0.34539  -0.34325  -0.33892  -0.33627  -0.33529
 Alpha  occ. eigenvalues --   -0.33062  -0.32966  -0.32784  -0.32635  -0.32110
 Alpha  occ. eigenvalues --   -0.31963  -0.31636  -0.31253  -0.31240  -0.30749
 Alpha  occ. eigenvalues --   -0.30546  -0.30506  -0.30095  -0.29259  -0.29163
 Alpha  occ. eigenvalues --   -0.29035  -0.28916  -0.28058  -0.26931  -0.26189
 Alpha  occ. eigenvalues --   -0.25704  -0.25281  -0.24900  -0.24333  -0.21025
 Alpha  occ. eigenvalues --   -0.19330
 Alpha virt. eigenvalues --   -0.11546  -0.05777  -0.04004  -0.02310  -0.01088
 Alpha virt. eigenvalues --    0.00481   0.00541   0.01058   0.01635   0.02381
 Alpha virt. eigenvalues --    0.03922   0.04232   0.05227   0.05274   0.05551

 Mulliken charges:
               1
     1  Mg   0.942195
     2  C   -0.043070
     3  C   -0.058816
     4  C   -0.057807
     5  C   -0.070353
     6  N   -0.424866
     7  C    0.075038
     8  C   -0.094715
     9  C   -0.147867
    10  C    0.100082
    11  C    0.022203
    12  C    0.005588
    13  C   -0.040203
    14  C    0.215887
    15  O   -0.274520
    16  O   -0.342138
    17  N   -0.508944
    18  C    0.159316
    19  C   -0.174039
    20  C   -0.064834
    21  C    0.188415
    22  C    0.089041
    23  C    0.001797
    24  O   -0.267294
    25  C   -0.000468
    26  N   -0.359627
    27  C    0.090297
    28  C   -0.148811
    29  C   -0.123937
    30  C    0.109427
    31  C    0.014666
    32  C   -0.004703
    33  C   -0.062224
    34  N   -0.400835
    35  C    0.074187
    36  C   -0.188626
    37  C   -0.046306
    38  C    0.158784
    39  C    0.059300
    40  C    0.137209
    41  O   -0.221217
    42  C   -0.124122
    43  C    0.312632
    44  O   -0.229886
    45  O   -0.406227
    46  C    0.132027
    47  C    0.241716
    48  C   -0.173723
    49  C   -0.206676
    50  C    0.022498
    51  C    0.024077
    52  C   -0.085742
    53  C    0.041236
    54  C   -0.259662
    55  C   -0.009699
    56  C    0.035733
    57  C   -0.074047
    58  C   -0.020240
    59  C   -0.217298
    60  C    0.011691
    61  C    0.003399
    62  C   -0.079288
    63  C    0.026123
    64  C   -0.223643
    65  C   -0.041284
    66  C    0.000562
    67  H    0.013394
    68  H   -0.006260
    69  H    0.011832
    70  H    0.047898
    71  H    0.048019
    72  H    0.049613
    73  H    0.039912
    74  H    0.047344
    75  H    0.060216
    76  H    0.038962
    77  H    0.067536
    78  H    0.099624
    79  H    0.063942
    80  H    0.073433
    81  H    0.018422
    82  H    0.080425
    83  H    0.051973
    84  H    0.052265
    85  H    0.048688
    86  H    0.043926
    87  H    0.038964
    88  H    0.048786
    89  H    0.051169
    90  H    0.039093
    91  H    0.025907
    92  H    0.045097
    93  H    0.040702
    94  H    0.040590
    95  H    0.075858
    96  H    0.059188
    97  H    0.065293
    98  H    0.096054
    99  H    0.053664
   100  H    0.052103
   101  H    0.044641
   102  H    0.070483
   103  H    0.049196
   104  H    0.025784
   105  H    0.044350
   106  H    0.051098
   107  H    0.046851
   108  H    0.051664
   109  H    0.023023
   110  H    0.021344
   111  H    0.034499
   112  H    0.030075
   113  H    0.032734
   114  H    0.036482
   115  H    0.028274
   116  H    0.047052
   117  H    0.026791
   118  H    0.027657
   119  H    0.022963
   120  H    0.036704
   121  H    0.020938
   122  H    0.021963
   123  H    0.018520
   124  H    0.039994
   125  H    0.032442
   126  H    0.026237
   127  H    0.034383
   128  H    0.010930
   129  H    0.013193
   130  H    0.035665
   131  H    0.023224
   132  H    0.022696
   133  H    0.027337
   134  H    0.039454
   135  H    0.012767
   136  H    0.042649
   137  H    0.030866
   138  H    0.025738
   139  H    0.031229
   140  H    0.037109
 Sum of Mulliken charges =  -0.00000

 Dipole moment (field-independent basis, Debye):
    X=             -0.6109    Y=              2.7795    Z=             -0.5089  Tot=              2.8910
 Quadrupole moment (field-independent basis, Debye-Ang):
   XX=           -387.3745   YY=           -416.8739   ZZ=           -394.0794
   XY=             11.7736   XZ=             -9.5953   YZ=             57.2977

 Normal termination of Gaussian 16 at Thu Apr 28 20:33:20 2022.
