 Gaussian 16, Revision A.03,
 Gaussian 16:  ES64L-G16RevA.03 25-Dec-2016

 --------------------------------
 #p wB97XD/Def2SVP td=(nstates=5)
 --------------------------------

 ----------------------------------------------------
 step_1701_chromophore_8 TDDFT with wB97XD functional
 ----------------------------------------------------
 Symbolic Z-matrix:
 Charge =  0 Multiplicity = 1

                         Standard orientation:
 ---------------------------------------------------------------------
 Center     Atomic      Atomic             Coordinates (Angstroms)
 Number     Number       Type             X           Y           Z
 ---------------------------------------------------------------------
      1         12           0        4.308394    0.966071   -0.031735
      2          6           0        4.086888   -2.491338    0.420014
      3          6           0        3.942477    0.647631   -3.386462
      4          6           0        4.122149    4.298299   -0.161747
      5          6           0        4.171593    1.266623    3.622398
      6          7           0        4.023332   -0.789348   -1.278001
      7          6           0        4.200050   -2.097641   -0.949590
      8          6           0        4.196185   -2.992874   -2.218959
      9          6           0        4.344082   -1.867749   -3.396993
     10          6           0        4.030992   -0.551887   -2.665011
     11          6           0        5.685373   -1.848890   -4.135939
     12          6           0        2.947691   -3.921279   -2.521519
     13          6           0        1.622819   -3.216824   -2.466784
     14          6           0        0.513495   -3.805044   -1.682264
     15          8           0        0.562776   -4.632583   -0.759324
     16          8           0       -0.598088   -3.138063   -2.040360
     17          7           0        3.967714    2.334776   -1.517823
     18          6           0        3.866072    1.988834   -2.867965
     19          6           0        3.853112    3.213713   -3.687630
     20          6           0        3.835541    4.300086   -2.713290
     21          6           0        3.929865    3.660886   -1.393204
     22          6           0        3.893102    3.355289   -5.221156
     23          6           0        3.649022    5.742664   -3.062277
     24          8           0        3.656969    6.097333   -4.252239
     25          6           0        3.392983    6.875472   -2.112405
     26          7           0        4.107908    2.589881    1.523296
     27          6           0        4.391355    3.808635    1.106166
     28          6           0        4.558629    4.717692    2.394920
     29          6           0        4.303702    3.702708    3.687617
     30          6           0        4.126306    2.435254    2.909630
     31          6           0        5.908583    5.528829    2.404825
     32          6           0        3.256050    4.086195    4.665447
     33          6           0        3.666840    4.544769    6.032555
     34          7           0        4.143864   -0.338621    1.711309
     35          6           0        4.189503   -0.064209    3.109535
     36          6           0        4.146427   -1.341995    3.843983
     37          6           0        4.022576   -2.290226    2.832339
     38          6           0        4.187231   -1.602254    1.592701
     39          6           0        4.120364   -1.452719    5.342837
     40          6           0        3.845490   -3.694514    2.544443
     41          8           0        3.682339   -4.658407    3.293952
     42          6           0        3.906253   -3.886305    0.954735
     43          6           0        5.157777   -4.727486    0.724188
     44          8           0        6.309710   -4.388841    0.892914
     45          8           0        4.740443   -6.040350    0.286574
     46          6           0        5.757991   -6.936052   -0.273586
     47          6           0       -1.795336   -3.604317   -1.377248
     48          6           0       -2.835273   -2.578779   -1.018746
     49          6           0       -3.695411   -2.501275    0.002201
     50          6           0       -3.982314   -3.668090    0.945984
     51          6           0       -4.473141   -1.207192    0.247265
     52          6           0       -5.319220   -0.755910   -0.984129
     53          6           0       -5.255278    0.755321   -1.174660
     54          6           0       -6.634068    1.321648   -1.650158
     55          6           0       -6.536783    1.924317   -3.063421
     56          6           0       -7.369043    2.277426   -0.666298
     57          6           0       -8.862663    1.828276   -0.557449
     58          6           0       -9.109874    0.670931    0.422816
     59          6           0      -10.069768    1.095279    1.602386
     60          6           0       -9.258223    1.836019    2.626240
     61          6           0      -10.692966   -0.190188    2.249737
     62          6           0      -12.275576    0.001674    2.289124
     63          6           0      -12.934345   -0.770579    1.173074
     64          6           0      -13.208215    0.043850   -0.168474
     65          6           0      -12.299048   -0.522197   -1.304152
     66          6           0      -14.655948    0.186017   -0.594438
     67          1           0        4.004839    0.529281   -4.470520
     68          1           0        4.124964    5.389645   -0.199642
     69          1           0        4.359374    1.252120    4.698112
     70          1           0        5.032237   -3.688823   -2.146416
     71          1           0        3.576542   -2.179347   -4.105526
     72          1           0        6.496352   -1.266296   -3.698346
     73          1           0        5.536732   -1.348291   -5.092873
     74          1           0        5.967391   -2.892160   -4.276285
     75          1           0        2.910233   -4.798892   -1.875019
     76          1           0        3.144464   -4.396605   -3.482131
     77          1           0        1.191626   -3.169350   -3.466430
     78          1           0        1.670197   -2.251408   -1.963924
     79          1           0        4.670490    4.059593   -5.518923
     80          1           0        2.893200    3.583152   -5.587980
     81          1           0        4.299973    2.462382   -5.696067
     82          1           0        4.273935    7.215874   -1.567631
     83          1           0        2.523323    6.555285   -1.540067
     84          1           0        2.998260    7.681939   -2.730630
     85          1           0        3.723673    5.414751    2.465187
     86          1           0        5.178372    3.502857    4.305945
     87          1           0        6.250957    5.360171    3.425822
     88          1           0        5.791017    6.600447    2.239822
     89          1           0        6.588626    5.098541    1.669802
     90          1           0        2.523076    3.285194    4.762974
     91          1           0        2.705924    4.923039    4.235988
     92          1           0        3.484296    3.728064    6.731680
     93          1           0        3.070943    5.375622    6.408685
     94          1           0        4.699779    4.887028    5.976040
     95          1           0        3.911546   -2.522481    5.365824
     96          1           0        3.295794   -0.841449    5.710626
     97          1           0        5.072898   -1.167784    5.789537
     98          1           0        3.029079   -4.372640    0.527006
     99          1           0        5.343978   -7.855462   -0.687455
    100          1           0        6.399123   -7.294727    0.531505
    101          1           0        6.379726   -6.490322   -1.049928
    102          1           0       -1.733999   -4.132231   -0.425579
    103          1           0       -2.369250   -4.222107   -2.067735
    104          1           0       -2.519241   -1.697797   -1.578047
    105          1           0       -3.299733   -4.507788    0.821243
    106          1           0       -5.032829   -3.952002    0.869695
    107          1           0       -3.890407   -3.254277    1.950849
    108          1           0       -3.784056   -0.394768    0.481680
    109          1           0       -5.182607   -1.202832    1.075137
    110          1           0       -6.338273   -1.071157   -0.761640
    111          1           0       -5.176833   -1.347508   -1.889270
    112          1           0       -4.603659    0.921307   -2.031891
    113          1           0       -5.014293    1.258558   -0.237772
    114          1           0       -7.303404    0.469056   -1.765869
    115          1           0       -5.980894    1.214307   -3.676940
    116          1           0       -6.093657    2.920488   -3.066319
    117          1           0       -7.519236    1.911223   -3.535030
    118          1           0       -7.444461    3.300856   -1.032895
    119          1           0       -6.911115    2.181882    0.318329
    120          1           0       -9.167144    1.580953   -1.574246
    121          1           0       -9.526894    2.613517   -0.197321
    122          1           0       -8.190615    0.237824    0.818270
    123          1           0       -9.507320   -0.177848   -0.133820
    124          1           0      -10.840695    1.810165    1.313510
    125          1           0       -9.791100    1.895181    3.576803
    126          1           0       -9.190566    2.873082    2.298841
    127          1           0       -8.281541    1.360198    2.708587
    128          1           0      -10.367495   -0.360765    3.276081
    129          1           0      -10.404610   -1.160433    1.845009
    130          1           0      -12.537341    1.058521    2.336974
    131          1           0      -12.514121   -0.443687    3.254140
    132          1           0      -13.870619   -1.064676    1.646868
    133          1           0      -12.370600   -1.656259    0.879103
    134          1           0      -12.786429    1.041645   -0.040578
    135          1           0      -11.816872   -1.475636   -1.088684
    136          1           0      -11.376011    0.040261   -1.441503
    137          1           0      -12.813809   -0.812477   -2.219939
    138          1           0      -15.320738   -0.084967    0.226313
    139          1           0      -14.935651   -0.474155   -1.415298
    140          1           0      -14.944911    1.193868   -0.895869
 ---------------------------------------------------------------------

 SCF Done:  E(RwB97XD) =  -3007.83315149     A.U. after   17 cycles

 Excitation energies and oscillator strengths:

 Excited State   1:      Singlet-A      1.6694 eV  742.67 nm  f=0.3658  <S**2>=0.000
     245 -> 248       -0.19498
     246 -> 247        0.67906
     245 <- 248       -0.11776
 This state for optimization and/or second-order correction.
 Total Energy, E(TD-HF/TD-DFT) =  -3007.77180110
 Copying the excited state density for this state as the 1-particle RhoCI density.

 Excited State   2:      Singlet-A      2.1075 eV  588.31 nm  f=0.1170  <S**2>=0.000
     245 -> 247        0.64190
     246 -> 248        0.28410

 Excited State   3:      Singlet-A      3.3375 eV  371.49 nm  f=0.0003  <S**2>=0.000
     242 -> 247        0.43263
     242 -> 248        0.11851
     242 -> 249       -0.26841
     242 -> 250        0.20439
     243 -> 247        0.29013
     243 -> 249       -0.17460
     243 -> 250        0.13015

 Excited State   4:      Singlet-A      3.3840 eV  366.38 nm  f=0.0005  <S**2>=0.000
     240 -> 247        0.12648
     240 -> 249        0.10991
     240 -> 250        0.10990
     241 -> 249       -0.13522
     242 -> 247       -0.33221
     242 -> 249       -0.13356
     243 -> 247        0.48382
     243 -> 249        0.15318
     243 -> 250        0.10061

 Excited State   5:      Singlet-A      3.4677 eV  357.54 nm  f=0.0099  <S**2>=0.000
     240 -> 247       -0.16683
     240 -> 249       -0.11380
     241 -> 247        0.60598
     243 -> 247        0.22775

 The electronic state is 1-A.
 Alpha  occ. eigenvalues --  -46.96570 -19.31485 -19.28781 -19.25364 -19.24736
 Alpha  occ. eigenvalues --  -19.23707 -19.22927 -14.47463 -14.46711 -14.45029
 Alpha  occ. eigenvalues --  -14.44073 -10.43329 -10.43311 -10.38902 -10.38520
 Alpha  occ. eigenvalues --  -10.35897 -10.35845 -10.35229 -10.35212 -10.35201
 Alpha  occ. eigenvalues --  -10.34796 -10.34680 -10.34589 -10.33834 -10.33508
 Alpha  occ. eigenvalues --  -10.33085 -10.32934 -10.32780 -10.32661 -10.32596
 Alpha  occ. eigenvalues --  -10.32442 -10.32105 -10.31915 -10.31656 -10.31583
 Alpha  occ. eigenvalues --  -10.31337 -10.31282 -10.31257 -10.31119 -10.30986
 Alpha  occ. eigenvalues --  -10.30462 -10.30318 -10.30220 -10.30133 -10.29793
 Alpha  occ. eigenvalues --  -10.29765 -10.29751 -10.29694 -10.29624 -10.29505
 Alpha  occ. eigenvalues --  -10.29493 -10.29359 -10.29029 -10.28905 -10.28665
 Alpha  occ. eigenvalues --  -10.28646 -10.28612 -10.28568 -10.28559 -10.28493
 Alpha  occ. eigenvalues --  -10.28368 -10.28307 -10.28188 -10.28037 -10.27879
 Alpha  occ. eigenvalues --  -10.27850  -3.22358  -1.95941  -1.95447  -1.95349
 Alpha  occ. eigenvalues --   -1.20137  -1.16237  -1.11075  -1.10925  -1.09720
 Alpha  occ. eigenvalues --   -1.09095  -1.06731  -1.06005  -1.05200  -1.04453
 Alpha  occ. eigenvalues --   -0.93541  -0.92389  -0.92282  -0.91780  -0.91287
 Alpha  occ. eigenvalues --   -0.90434  -0.90247  -0.89412  -0.89397  -0.88905
 Alpha  occ. eigenvalues --   -0.87976  -0.87698  -0.86373  -0.85674  -0.85507
 Alpha  occ. eigenvalues --   -0.84439  -0.83889  -0.83409  -0.82788  -0.81959
 Alpha  occ. eigenvalues --   -0.81671  -0.80431  -0.80073  -0.79426  -0.77939
 Alpha  occ. eigenvalues --   -0.77387  -0.77236  -0.76920  -0.76434  -0.75771
 Alpha  occ. eigenvalues --   -0.75631  -0.74770  -0.73465  -0.72407  -0.71312
 Alpha  occ. eigenvalues --   -0.70478  -0.69898  -0.69443  -0.68390  -0.67819
 Alpha  occ. eigenvalues --   -0.67404  -0.66955  -0.66914  -0.66350  -0.65885
 Alpha  occ. eigenvalues --   -0.65718  -0.64864  -0.64253  -0.63319  -0.62172
 Alpha  occ. eigenvalues --   -0.61801  -0.61625  -0.60731  -0.60566  -0.60109
 Alpha  occ. eigenvalues --   -0.59651  -0.59005  -0.58516  -0.58306  -0.57068
 Alpha  occ. eigenvalues --   -0.56936  -0.56486  -0.55990  -0.55783  -0.55759
 Alpha  occ. eigenvalues --   -0.55433  -0.55213  -0.54931  -0.54873  -0.54786
 Alpha  occ. eigenvalues --   -0.54624  -0.54262  -0.54224  -0.53808  -0.53618
 Alpha  occ. eigenvalues --   -0.53494  -0.53176  -0.53096  -0.52885  -0.52505
 Alpha  occ. eigenvalues --   -0.52415  -0.52220  -0.52045  -0.51769  -0.51543
 Alpha  occ. eigenvalues --   -0.51361  -0.51229  -0.50850  -0.50837  -0.50475
 Alpha  occ. eigenvalues --   -0.50442  -0.50348  -0.50242  -0.50089  -0.49925
 Alpha  occ. eigenvalues --   -0.49582  -0.49370  -0.49224  -0.49037  -0.48936
 Alpha  occ. eigenvalues --   -0.48702  -0.48314  -0.48071  -0.47894  -0.47551
 Alpha  occ. eigenvalues --   -0.47410  -0.47225  -0.47119  -0.47062  -0.46853
 Alpha  occ. eigenvalues --   -0.46448  -0.46147  -0.45990  -0.45808  -0.45701
 Alpha  occ. eigenvalues --   -0.45690  -0.45429  -0.45143  -0.45030  -0.44902
 Alpha  occ. eigenvalues --   -0.44758  -0.44640  -0.44442  -0.44423  -0.44028
 Alpha  occ. eigenvalues --   -0.43895  -0.43749  -0.43280  -0.43132  -0.42997
 Alpha  occ. eigenvalues --   -0.42769  -0.42528  -0.42495  -0.42307  -0.41739
 Alpha  occ. eigenvalues --   -0.41551  -0.41429  -0.40939  -0.40689  -0.40461
 Alpha  occ. eigenvalues --   -0.40124  -0.39898  -0.39708  -0.39688  -0.39182
 Alpha  occ. eigenvalues --   -0.38996  -0.38669  -0.38264  -0.38041  -0.37754
 Alpha  occ. eigenvalues --   -0.37592  -0.37434  -0.37031  -0.36288  -0.36034
 Alpha  occ. eigenvalues --   -0.35961  -0.35728  -0.34932  -0.33489  -0.32754
 Alpha  occ. eigenvalues --   -0.32420  -0.32208  -0.32143  -0.31085  -0.25960
 Alpha  occ. eigenvalues --   -0.23505
 Alpha virt. eigenvalues --   -0.07473  -0.00390   0.02257   0.04202   0.04835
 Alpha virt. eigenvalues --    0.07248   0.07357   0.07800   0.08382   0.08932
 Alpha virt. eigenvalues --    0.10374   0.11073   0.11889   0.11925   0.12334

 Mulliken charges:
               1
     1  Mg   0.935550
     2  C   -0.042657
     3  C   -0.077866
     4  C   -0.069877
     5  C   -0.084408
     6  N   -0.394559
     7  C    0.037322
     8  C   -0.071333
     9  C   -0.119825
    10  C    0.088978
    11  C    0.031524
    12  C    0.018388
    13  C   -0.021729
    14  C    0.205488
    15  O   -0.271112
    16  O   -0.340986
    17  N   -0.475089
    18  C    0.155595
    19  C   -0.170366
    20  C   -0.058536
    21  C    0.185055
    22  C    0.101764
    23  C   -0.001919
    24  O   -0.263118
    25  C    0.011796
    26  N   -0.325433
    27  C    0.071908
    28  C   -0.121996
    29  C   -0.094147
    30  C    0.094731
    31  C    0.027088
    32  C    0.004533
    33  C   -0.044790
    34  N   -0.364085
    35  C    0.064232
    36  C   -0.184927
    37  C   -0.043059
    38  C    0.137547
    39  C    0.070288
    40  C    0.118639
    41  O   -0.212379
    42  C   -0.079442
    43  C    0.287737
    44  O   -0.224554
    45  O   -0.405354
    46  C    0.147154
    47  C    0.260243
    48  C   -0.187312
    49  C   -0.187250
    50  C    0.036284
    51  C    0.039605
    52  C   -0.067949
    53  C    0.058139
    54  C   -0.228385
    55  C    0.004373
    56  C    0.050228
    57  C   -0.048440
    58  C   -0.003596
    59  C   -0.179350
    60  C    0.021486
    61  C    0.010503
    62  C   -0.057063
    63  C    0.040491
    64  C   -0.194207
    65  C   -0.023057
    66  C    0.012805
    67  H    0.006265
    68  H   -0.018467
    69  H    0.006608
    70  H    0.037991
    71  H    0.037029
    72  H    0.044312
    73  H    0.033827
    74  H    0.041655
    75  H    0.052248
    76  H    0.031609
    77  H    0.062493
    78  H    0.088331
    79  H    0.060153
    80  H    0.070388
    81  H    0.013376
    82  H    0.077917
    83  H    0.046391
    84  H    0.050977
    85  H    0.037332
    86  H    0.029511
    87  H    0.031643
    88  H    0.043894
    89  H    0.044951
    90  H    0.031571
    91  H    0.016788
    92  H    0.039159
    93  H    0.035578
    94  H    0.032995
    95  H    0.071028
    96  H    0.054125
    97  H    0.061148
    98  H    0.086383
    99  H    0.050248
   100  H    0.047876
   101  H    0.040151
   102  H    0.060855
   103  H    0.043712
   104  H    0.021193
   105  H    0.040117
   106  H    0.045237
   107  H    0.040508
   108  H    0.042780
   109  H    0.016506
   110  H    0.010063
   111  H    0.026255
   112  H    0.020686
   113  H    0.023061
   114  H    0.017806
   115  H    0.020831
   116  H    0.041208
   117  H    0.020678
   118  H    0.020838
   119  H    0.010731
   120  H    0.024600
   121  H    0.011075
   122  H    0.007457
   123  H    0.004857
   124  H    0.024098
   125  H    0.026096
   126  H    0.019978
   127  H    0.027727
   128  H    0.003415
   129  H    0.005310
   130  H    0.026496
   131  H    0.016261
   132  H    0.014804
   133  H    0.016431
   134  H    0.024912
   135  H    0.005164
   136  H    0.029434
   137  H    0.025974
   138  H    0.019045
   139  H    0.024816
   140  H    0.032182
 Sum of Mulliken charges =  -0.00000

 Dipole moment (field-independent basis, Debye):
    X=             -0.5799    Y=              2.9648    Z=             -0.7044  Tot=              3.1020
 Quadrupole moment (field-independent basis, Debye-Ang):
   XX=           -386.8997   YY=           -415.5997   ZZ=           -393.9236
   XY=             12.3076   XZ=            -10.3123   YZ=             56.6385

 Normal termination of Gaussian 16 at Thu Apr 28 21:05:09 2022.
