 Gaussian 16, Revision A.03,
 Gaussian 16:  ES64L-G16RevA.03 25-Dec-2016

 --------------------
 #p ZINDO=(nstates=5)
 --------------------

 -----------------------------
 step_1701_chromophore_8 ZINDO
 -----------------------------
 Symbolic Z-matrix:
 Charge =  0 Multiplicity = 1

                         Standard orientation:
 ---------------------------------------------------------------------
 Center     Atomic      Atomic             Coordinates (Angstroms)
 Number     Number       Type             X           Y           Z
 ---------------------------------------------------------------------
      1         12           0        4.308394    0.966071   -0.031735
      2          6           0        4.086888   -2.491338    0.420014
      3          6           0        3.942477    0.647631   -3.386462
      4          6           0        4.122149    4.298299   -0.161747
      5          6           0        4.171593    1.266623    3.622398
      6          7           0        4.023332   -0.789348   -1.278001
      7          6           0        4.200050   -2.097641   -0.949590
      8          6           0        4.196185   -2.992874   -2.218959
      9          6           0        4.344082   -1.867749   -3.396993
     10          6           0        4.030992   -0.551887   -2.665011
     11          6           0        5.685373   -1.848890   -4.135939
     12          6           0        2.947691   -3.921279   -2.521519
     13          6           0        1.622819   -3.216824   -2.466784
     14          6           0        0.513495   -3.805044   -1.682264
     15          8           0        0.562776   -4.632583   -0.759324
     16          8           0       -0.598088   -3.138063   -2.040360
     17          7           0        3.967714    2.334776   -1.517823
     18          6           0        3.866072    1.988834   -2.867965
     19          6           0        3.853112    3.213713   -3.687630
     20          6           0        3.835541    4.300086   -2.713290
     21          6           0        3.929865    3.660886   -1.393204
     22          6           0        3.893102    3.355289   -5.221156
     23          6           0        3.649022    5.742664   -3.062277
     24          8           0        3.656969    6.097333   -4.252239
     25          6           0        3.392983    6.875472   -2.112405
     26          7           0        4.107908    2.589881    1.523296
     27          6           0        4.391355    3.808635    1.106166
     28          6           0        4.558629    4.717692    2.394920
     29          6           0        4.303702    3.702708    3.687617
     30          6           0        4.126306    2.435254    2.909630
     31          6           0        5.908583    5.528829    2.404825
     32          6           0        3.256050    4.086195    4.665447
     33          6           0        3.666840    4.544769    6.032555
     34          7           0        4.143864   -0.338621    1.711309
     35          6           0        4.189503   -0.064209    3.109535
     36          6           0        4.146427   -1.341995    3.843983
     37          6           0        4.022576   -2.290226    2.832339
     38          6           0        4.187231   -1.602254    1.592701
     39          6           0        4.120364   -1.452719    5.342837
     40          6           0        3.845490   -3.694514    2.544443
     41          8           0        3.682339   -4.658407    3.293952
     42          6           0        3.906253   -3.886305    0.954735
     43          6           0        5.157777   -4.727486    0.724188
     44          8           0        6.309710   -4.388841    0.892914
     45          8           0        4.740443   -6.040350    0.286574
     46          6           0        5.757991   -6.936052   -0.273586
     47          6           0       -1.795336   -3.604317   -1.377248
     48          6           0       -2.835273   -2.578779   -1.018746
     49          6           0       -3.695411   -2.501275    0.002201
     50          6           0       -3.982314   -3.668090    0.945984
     51          6           0       -4.473141   -1.207192    0.247265
     52          6           0       -5.319220   -0.755910   -0.984129
     53          6           0       -5.255278    0.755321   -1.174660
     54          6           0       -6.634068    1.321648   -1.650158
     55          6           0       -6.536783    1.924317   -3.063421
     56          6           0       -7.369043    2.277426   -0.666298
     57          6           0       -8.862663    1.828276   -0.557449
     58          6           0       -9.109874    0.670931    0.422816
     59          6           0      -10.069768    1.095279    1.602386
     60          6           0       -9.258223    1.836019    2.626240
     61          6           0      -10.692966   -0.190188    2.249737
     62          6           0      -12.275576    0.001674    2.289124
     63          6           0      -12.934345   -0.770579    1.173074
     64          6           0      -13.208215    0.043850   -0.168474
     65          6           0      -12.299048   -0.522197   -1.304152
     66          6           0      -14.655948    0.186017   -0.594438
     67          1           0        4.004839    0.529281   -4.470520
     68          1           0        4.124964    5.389645   -0.199642
     69          1           0        4.359374    1.252120    4.698112
     70          1           0        5.032237   -3.688823   -2.146416
     71          1           0        3.576542   -2.179347   -4.105526
     72          1           0        6.496352   -1.266296   -3.698346
     73          1           0        5.536732   -1.348291   -5.092873
     74          1           0        5.967391   -2.892160   -4.276285
     75          1           0        2.910233   -4.798892   -1.875019
     76          1           0        3.144464   -4.396605   -3.482131
     77          1           0        1.191626   -3.169350   -3.466430
     78          1           0        1.670197   -2.251408   -1.963924
     79          1           0        4.670490    4.059593   -5.518923
     80          1           0        2.893200    3.583152   -5.587980
     81          1           0        4.299973    2.462382   -5.696067
     82          1           0        4.273935    7.215874   -1.567631
     83          1           0        2.523323    6.555285   -1.540067
     84          1           0        2.998260    7.681939   -2.730630
     85          1           0        3.723673    5.414751    2.465187
     86          1           0        5.178372    3.502857    4.305945
     87          1           0        6.250957    5.360171    3.425822
     88          1           0        5.791017    6.600447    2.239822
     89          1           0        6.588626    5.098541    1.669802
     90          1           0        2.523076    3.285194    4.762974
     91          1           0        2.705924    4.923039    4.235988
     92          1           0        3.484296    3.728064    6.731680
     93          1           0        3.070943    5.375622    6.408685
     94          1           0        4.699779    4.887028    5.976040
     95          1           0        3.911546   -2.522481    5.365824
     96          1           0        3.295794   -0.841449    5.710626
     97          1           0        5.072898   -1.167784    5.789537
     98          1           0        3.029079   -4.372640    0.527006
     99          1           0        5.343978   -7.855462   -0.687455
    100          1           0        6.399123   -7.294727    0.531505
    101          1           0        6.379726   -6.490322   -1.049928
    102          1           0       -1.733999   -4.132231   -0.425579
    103          1           0       -2.369250   -4.222107   -2.067735
    104          1           0       -2.519241   -1.697797   -1.578047
    105          1           0       -3.299733   -4.507788    0.821243
    106          1           0       -5.032829   -3.952002    0.869695
    107          1           0       -3.890407   -3.254277    1.950849
    108          1           0       -3.784056   -0.394768    0.481680
    109          1           0       -5.182607   -1.202832    1.075137
    110          1           0       -6.338273   -1.071157   -0.761640
    111          1           0       -5.176833   -1.347508   -1.889270
    112          1           0       -4.603659    0.921307   -2.031891
    113          1           0       -5.014293    1.258558   -0.237772
    114          1           0       -7.303404    0.469056   -1.765869
    115          1           0       -5.980894    1.214307   -3.676940
    116          1           0       -6.093657    2.920488   -3.066319
    117          1           0       -7.519236    1.911223   -3.535030
    118          1           0       -7.444461    3.300856   -1.032895
    119          1           0       -6.911115    2.181882    0.318329
    120          1           0       -9.167144    1.580953   -1.574246
    121          1           0       -9.526894    2.613517   -0.197321
    122          1           0       -8.190615    0.237824    0.818270
    123          1           0       -9.507320   -0.177848   -0.133820
    124          1           0      -10.840695    1.810165    1.313510
    125          1           0       -9.791100    1.895181    3.576803
    126          1           0       -9.190566    2.873082    2.298841
    127          1           0       -8.281541    1.360198    2.708587
    128          1           0      -10.367495   -0.360765    3.276081
    129          1           0      -10.404610   -1.160433    1.845009
    130          1           0      -12.537341    1.058521    2.336974
    131          1           0      -12.514121   -0.443687    3.254140
    132          1           0      -13.870619   -1.064676    1.646868
    133          1           0      -12.370600   -1.656259    0.879103
    134          1           0      -12.786429    1.041645   -0.040578
    135          1           0      -11.816872   -1.475636   -1.088684
    136          1           0      -11.376011    0.040261   -1.441503
    137          1           0      -12.813809   -0.812477   -2.219939
    138          1           0      -15.320738   -0.084967    0.226313
    139          1           0      -14.935651   -0.474155   -1.415298
    140          1           0      -14.944911    1.193868   -0.895869
 ---------------------------------------------------------------------

 SCF Done:  E(RZINDO/S) =  -474.116027645     A.U. after   20 cycles

 Excitation energies and oscillator strengths:

 Excited State   1:      Singlet-A      1.2643 eV  980.66 nm  f=0.5979  <S**2>=0.000
     175 ->178         0.20200
     176 ->177         0.65858
 This state for optimization and/or second-order correction.
 Total Energy, E(CIS/TDA) =  -474.069565832
 Copying the excited state density for this state as the 1-particle RhoCI density.

 Excited State   2:      Singlet-A      1.8455 eV  671.81 nm  f=0.0717  <S**2>=0.000
     175 ->177         0.56809
     176 ->178        -0.39570

 Excited State   3:      Singlet-A      2.8087 eV  441.42 nm  f=0.0000  <S**2>=0.000
     169 ->177         0.12514
     169 ->179        -0.13615
     169 ->180        -0.13578
     170 ->177         0.29747
     170 ->178        -0.14461
     170 ->179        -0.29525
     170 ->180        -0.31165
     170 ->181         0.13978
     170 ->184        -0.10556
     170 ->185        -0.20447
     170 ->187         0.13419

 Excited State   4:      Singlet-A      2.9334 eV  422.66 nm  f=0.0037  <S**2>=0.000
     169 ->177         0.30040
     169 ->179         0.34604
     169 ->180        -0.25723
     169 ->185         0.17228
     169 ->187         0.10550
     169 ->200        -0.12024
     170 ->177        -0.12241
     170 ->179        -0.14494
     172 ->177        -0.14105

 Excited State   5:      Singlet-A      2.9795 eV  416.12 nm  f=1.0632  <S**2>=0.000
     175 ->177         0.36032
     176 ->178         0.54084
     176 ->179         0.10056
     176 ->180         0.11405

 The electronic state is 1-A.
 Alpha  occ. eigenvalues --   -1.83337  -1.80338  -1.78525  -1.75428  -1.69943
 Alpha  occ. eigenvalues --   -1.67961  -1.66483  -1.61045  -1.59537  -1.56183
 Alpha  occ. eigenvalues --   -1.54070  -1.51074  -1.50384  -1.48018  -1.47535
 Alpha  occ. eigenvalues --   -1.43549  -1.42280  -1.39529  -1.38764  -1.37826
 Alpha  occ. eigenvalues --   -1.35319  -1.34991  -1.33990  -1.30764  -1.28971
 Alpha  occ. eigenvalues --   -1.27430  -1.25896  -1.23076  -1.21931  -1.18585
 Alpha  occ. eigenvalues --   -1.17035  -1.16583  -1.14779  -1.13799  -1.13079
 Alpha  occ. eigenvalues --   -1.12240  -1.10765  -1.10102  -1.05465  -1.03967
 Alpha  occ. eigenvalues --   -1.02585  -1.01037  -0.99394  -0.97715  -0.96416
 Alpha  occ. eigenvalues --   -0.95842  -0.95208  -0.94136  -0.93658  -0.92311
 Alpha  occ. eigenvalues --   -0.90716  -0.90374  -0.88542  -0.87868  -0.86708
 Alpha  occ. eigenvalues --   -0.86130  -0.85254  -0.83602  -0.81149  -0.79802
 Alpha  occ. eigenvalues --   -0.79329  -0.78713  -0.77685  -0.76489  -0.76075
 Alpha  occ. eigenvalues --   -0.75620  -0.75141  -0.74633  -0.73747  -0.73158
 Alpha  occ. eigenvalues --   -0.72563  -0.72096  -0.71677  -0.71154  -0.70565
 Alpha  occ. eigenvalues --   -0.70111  -0.69113  -0.68711  -0.68519  -0.67675
 Alpha  occ. eigenvalues --   -0.67621  -0.66469  -0.66282  -0.66022  -0.65721
 Alpha  occ. eigenvalues --   -0.64996  -0.64849  -0.64437  -0.64105  -0.63798
 Alpha  occ. eigenvalues --   -0.63624  -0.63397  -0.63001  -0.62685  -0.62397
 Alpha  occ. eigenvalues --   -0.62217  -0.61622  -0.61136  -0.61029  -0.60458
 Alpha  occ. eigenvalues --   -0.60076  -0.58888  -0.58363  -0.58059  -0.57879
 Alpha  occ. eigenvalues --   -0.57679  -0.57379  -0.57076  -0.56520  -0.56330
 Alpha  occ. eigenvalues --   -0.56030  -0.55716  -0.55578  -0.55090  -0.54847
 Alpha  occ. eigenvalues --   -0.54733  -0.53914  -0.53738  -0.53553  -0.53161
 Alpha  occ. eigenvalues --   -0.52843  -0.52491  -0.52395  -0.52145  -0.51680
 Alpha  occ. eigenvalues --   -0.51469  -0.50858  -0.50667  -0.50284  -0.50119
 Alpha  occ. eigenvalues --   -0.49682  -0.49565  -0.49482  -0.49147  -0.48799
 Alpha  occ. eigenvalues --   -0.48599  -0.48487  -0.48313  -0.48270  -0.47817
 Alpha  occ. eigenvalues --   -0.47656  -0.47271  -0.46979  -0.46454  -0.46448
 Alpha  occ. eigenvalues --   -0.46150  -0.45758  -0.45639  -0.45156  -0.44874
 Alpha  occ. eigenvalues --   -0.44786  -0.44603  -0.44441  -0.44207  -0.43951
 Alpha  occ. eigenvalues --   -0.43458  -0.42947  -0.42858  -0.42698  -0.42015
 Alpha  occ. eigenvalues --   -0.41800  -0.41620  -0.40660  -0.39213  -0.38696
 Alpha  occ. eigenvalues --   -0.38449  -0.37186  -0.35317  -0.34931  -0.34812
 Alpha  occ. eigenvalues --   -0.33353  -0.32765  -0.32256  -0.31496  -0.26576
 Alpha  occ. eigenvalues --   -0.22314
 Alpha virt. eigenvalues --   -0.08992  -0.02521  -0.00758   0.00917   0.01333
 Alpha virt. eigenvalues --    0.01887   0.02486   0.03027   0.04434   0.04936
 Alpha virt. eigenvalues --    0.05799   0.06907   0.07008   0.07556   0.07795

 Mulliken charges:
               1
     1  Mg   0.435686
     2  C   -0.055599
     3  C   -0.075064
     4  C   -0.068509
     5  C   -0.046357
     6  N   -0.292362
     7  C    0.119716
     8  C   -0.006982
     9  C   -0.000985
    10  C    0.121784
    11  C   -0.044488
    12  C   -0.021886
    13  C    0.012200
    14  C    0.472203
    15  O   -0.538640
    16  O   -0.253671
    17  N   -0.310894
    18  C    0.102280
    19  C    0.028732
    20  C   -0.053861
    21  C    0.134061
    22  C   -0.030608
    23  C    0.322943
    24  O   -0.541418
    25  C   -0.027793
    26  N   -0.266408
    27  C    0.132474
    28  C   -0.012909
    29  C   -0.002299
    30  C    0.108057
    31  C   -0.055484
    32  C   -0.017978
    33  C   -0.054225
    34  N   -0.300865
    35  C    0.050812
    36  C    0.042857
    37  C   -0.048098
    38  C    0.142772
    39  C   -0.042756
    40  C    0.335451
    41  O   -0.516827
    42  C    0.059116
    43  C    0.484913
    44  O   -0.503856
    45  O   -0.286419
    46  C    0.075409
    47  C    0.094062
    48  C   -0.091883
    49  C   -0.003849
    50  C   -0.043368
    51  C   -0.022016
    52  C   -0.036300
    53  C   -0.035147
    54  C   -0.023342
    55  C   -0.056713
    56  C   -0.035956
    57  C   -0.042053
    58  C   -0.036132
    59  C   -0.009637
    60  C   -0.054107
    61  C   -0.048571
    62  C   -0.036907
    63  C   -0.030319
    64  C   -0.006861
    65  C   -0.070894
    66  C   -0.049530
    67  H    0.033930
    68  H    0.018776
    69  H    0.030634
    70  H    0.032339
    71  H    0.026871
    72  H    0.030219
    73  H    0.015591
    74  H    0.021321
    75  H    0.032002
    76  H    0.019748
    77  H    0.040332
    78  H    0.060233
    79  H    0.042847
    80  H    0.047770
    81  H    0.013462
    82  H    0.048657
    83  H    0.031802
    84  H    0.035015
    85  H    0.028131
    86  H    0.031459
    87  H    0.021073
    88  H    0.025864
    89  H    0.028205
    90  H    0.019285
    91  H    0.011791
    92  H    0.021166
    93  H    0.016859
    94  H    0.021901
    95  H    0.042342
    96  H    0.034718
    97  H    0.041082
    98  H    0.071304
    99  H    0.032156
   100  H    0.039985
   101  H    0.038228
   102  H    0.063735
   103  H    0.038750
   104  H    0.017112
   105  H    0.032703
   106  H    0.029166
   107  H    0.024555
   108  H    0.023806
   109  H    0.019445
   110  H    0.008464
   111  H    0.026070
   112  H    0.026957
   113  H    0.030367
   114  H    0.018033
   115  H    0.011707
   116  H    0.025956
   117  H    0.012863
   118  H    0.022070
   119  H    0.022440
   120  H    0.018236
   121  H    0.014020
   122  H    0.020186
   123  H    0.010586
   124  H    0.031240
   125  H    0.013685
   126  H    0.010063
   127  H    0.024724
   128  H    0.008943
   129  H    0.023610
   130  H    0.028748
   131  H    0.008667
   132  H    0.012331
   133  H    0.028039
   134  H    0.018560
   135  H    0.007366
   136  H    0.022776
   137  H    0.022251
   138  H    0.012917
   139  H    0.018525
   140  H    0.018532
 Sum of Mulliken charges =  -0.00000

 Dipole moment (field-independent basis, Debye):
    X=              0.1112    Y=              3.8417    Z=             -1.0188  Tot=              3.9760
 N-N= 4.435386201705D+03 E-N= 0.000000000000D+00  KE=-9.544900915452D+03
 Leave Link  601 at Thu Apr 28 21:20:06 2022, MaxMem=  6710886400 cpu:               0.7 elap:               0.0
 (Enter /sw/apps/gaussian-16.0/g16/l9999.exe)
 1\1\GINC-BP1-COMPUTE137\SP\RZINDO CIS\STO-3G\C55H74Mg1N4O6\OF15641\28-
 Apr-2022\0\\#p ZINDO=(nstates=5)\\step_1701_chromophore_8 ZINDO\\0,1\M
 g,0,43.856,3.573,47.184\C,0,41.97,6.512,47.074\C,0,41.067,1.661,46.949
 \C,0,45.887,0.939,46.88\C,0,46.837,5.694,46.907\N,0,41.761,4.117,47.00
 8\C,0,41.181,5.329,47.221\C,0,39.635,5.198,47.295\C,0,39.464,3.578,47.
 443\C,0,40.853,3.043,47.056\C,0,38.979,3.081,48.808\C,0,38.744,5.721,4
 6.093\C,0,39.171,5.224,44.742\C,0,39.337,6.185,43.628\O,0,39.514,7.412

 Normal termination of Gaussian 16 at Thu Apr 28 21:20:06 2022.
