 Gaussian 16, Revision A.03,
 Gaussian 16:  ES64L-G16RevA.03 25-Dec-2016

 ------------------------------
 #p blyp/Def2SVP td=(nstates=5)
 ------------------------------

 -------------------------------------------------
 step_801_chromophore_7 TDDFT with blyp functional
 -------------------------------------------------
 Symbolic Z-matrix:
 Charge =  0 Multiplicity = 1

                         Standard orientation:
 ---------------------------------------------------------------------
 Center     Atomic      Atomic             Coordinates (Angstroms)
 Number     Number       Type             X           Y           Z
 ---------------------------------------------------------------------
      1         12           0        6.408559    0.415799    0.020811
      2          6           0        3.980102   -2.122575   -0.120995
      3          6           0        4.085300    2.589214   -1.274598
      4          6           0        8.796974    2.596257   -0.200329
      5          6           0        8.678069   -1.943671    1.221567
      6          7           0        4.246724    0.286226   -0.508158
      7          6           0        3.444842   -0.858998   -0.428477
      8          6           0        2.003401   -0.645281   -0.977784
      9          6           0        2.142971    0.913835   -1.455049
     10          6           0        3.585803    1.264830   -1.133038
     11          6           0        1.831244    1.093821   -2.995452
     12          6           0        0.967151   -0.842851    0.197122
     13          6           0       -0.444569   -0.257162    0.163460
     14          6           0       -1.587501   -1.116936    0.671653
     15          8           0       -1.570966   -1.846342    1.656833
     16          8           0       -2.654087   -1.100934   -0.204019
     17          7           0        6.504018    2.386462   -0.618883
     18          6           0        5.377677    3.137561   -0.916920
     19          6           0        5.755916    4.551513   -0.960524
     20          6           0        7.198980    4.612297   -0.772814
     21          6           0        7.569615    3.144210   -0.635887
     22          6           0        4.767162    5.640653   -1.342291
     23          6           0        8.111801    5.836556   -0.554144
     24          8           0        9.264504    5.706693   -0.104139
     25          6           0        7.609578    7.244476   -0.858841
     26          7           0        8.489478    0.275374    0.366078
     27          6           0        9.245017    1.335352    0.237444
     28          6           0       10.670382    1.035401    0.789778
     29          6           0       10.477246   -0.293755    1.605205
     30          6           0        9.118005   -0.661226    1.029108
     31          6           0       11.766538    0.957199   -0.365964
     32          6           0       10.381153    0.009387    3.127184
     33          6           0       11.595351   -0.490657    3.976339
     34          7           0        6.400348   -1.571045    0.495021
     35          6           0        7.385922   -2.431007    0.893291
     36          6           0        6.906229   -3.781101    0.859498
     37          6           0        5.573496   -3.737995    0.446648
     38          6           0        5.294687   -2.363622    0.292156
     39          6           0        7.624057   -5.029984    1.116800
     40          6           0        4.323448   -4.521576    0.268448
     41          8           0        4.092288   -5.728280    0.481313
     42          6           0        3.238787   -3.444222   -0.001695
     43          6           0        2.499314   -3.882992   -1.208581
     44          8           0        2.821457   -3.814527   -2.379244
     45          8           0        1.284203   -4.338084   -0.808974
     46          6           0        0.441560   -4.935069   -1.838171
     47          6           0       -3.868754   -1.629911    0.395695
     48          6           0       -5.151512   -0.932436    0.057071
     49          6           0       -6.339760   -1.386781   -0.202084
     50          6           0       -6.798499   -2.869265   -0.065948
     51          6           0       -7.442345   -0.435863   -0.585645
     52          6           0       -8.455245   -0.884062   -1.714105
     53          6           0       -9.114129    0.329302   -2.386822
     54          6           0      -10.602336    0.052681   -2.712105
     55          6           0      -11.109086    0.886030   -3.879349
     56          6           0      -11.486127    0.423247   -1.413669
     57          6           0      -12.316293   -0.737912   -0.783170
     58          6           0      -13.885817   -0.626569   -1.034197
     59          6           0      -14.574802   -0.241656    0.255292
     60          6           0      -15.619425   -1.179300    0.748737
     61          6           0      -15.098736    1.245309    0.270878
     62          6           0      -15.338625    1.689249    1.786249
     63          6           0      -14.580900    2.915995    2.340354
     64          6           0      -13.295100    2.527932    3.123339
     65          6           0      -13.625886    2.205121    4.579346
     66          6           0      -12.297847    3.717310    3.098627
     67          1           0        3.311709    3.281274   -1.611809
     68          1           0        9.587264    3.342176   -0.093743
     69          1           0        9.473617   -2.538984    1.673708
     70          1           0        1.867232   -1.406548   -1.746469
     71          1           0        1.433737    1.519823   -0.890872
     72          1           0        1.090202    1.874451   -3.168438
     73          1           0        1.451495    0.155496   -3.399466
     74          1           0        2.769013    1.315626   -3.504682
     75          1           0        1.450782   -0.625948    1.149110
     76          1           0        0.808994   -1.918434    0.274128
     77          1           0       -0.733092    0.118650   -0.817240
     78          1           0       -0.519496    0.623245    0.801462
     79          1           0        5.236211    6.096530   -2.214289
     80          1           0        4.691718    6.334841   -0.506298
     81          1           0        3.759399    5.355615   -1.643183
     82          1           0        8.388461    8.002061   -0.778481
     83          1           0        6.830009    7.512597   -0.144820
     84          1           0        7.146658    7.352192   -1.839781
     85          1           0       10.968471    1.916891    1.357729
     86          1           0       11.204126   -1.041513    1.290851
     87          1           0       12.356476    0.040338   -0.345943
     88          1           0       12.352495    1.869734   -0.266913
     89          1           0       11.303035    0.886410   -1.350440
     90          1           0        9.576637   -0.580788    3.566360
     91          1           0       10.194701    1.061870    3.342305
     92          1           0       11.255781   -1.427121    4.419591
     93          1           0       11.865298    0.270106    4.709075
     94          1           0       12.508191   -0.660211    3.405829
     95          1           0        8.679306   -4.927863    1.371306
     96          1           0        7.508268   -5.589446    0.188912
     97          1           0        7.054142   -5.548390    1.887146
     98          1           0        2.517853   -3.366794    0.812861
     99          1           0        0.835720   -5.268006   -2.798359
    100          1           0       -0.292360   -4.169637   -2.090449
    101          1           0       -0.090330   -5.720845   -1.301478
    102          1           0       -3.867138   -1.872636    1.458494
    103          1           0       -3.752622   -2.585921   -0.113198
    104          1           0       -5.103354    0.155191   -0.000671
    105          1           0       -6.985231   -3.327205   -1.037360
    106          1           0       -7.648627   -3.014191    0.600080
    107          1           0       -5.943520   -3.378292    0.379661
    108          1           0       -7.001122    0.522735   -0.858772
    109          1           0       -8.007950   -0.245294    0.325955
    110          1           0       -9.263335   -1.400940   -1.196541
    111          1           0       -7.970092   -1.445857   -2.511314
    112          1           0       -8.616525    0.647429   -3.303038
    113          1           0       -9.059261    1.131549   -1.650875
    114          1           0      -10.751984   -0.988356   -2.996613
    115          1           0      -10.486849    1.624333   -4.386771
    116          1           0      -11.974105    1.480180   -3.585824
    117          1           0      -11.379667    0.218249   -4.697308
    118          1           0      -12.049792    1.329209   -1.638364
    119          1           0      -10.913030    0.773530   -0.554776
    120          1           0      -12.001904   -0.893598    0.248506
    121          1           0      -12.108290   -1.653853   -1.336236
    122          1           0      -14.321381   -1.505867   -1.508628
    123          1           0      -14.070965    0.202593   -1.716776
    124          1           0      -13.797852   -0.208594    1.018902
    125          1           0      -16.614115   -0.772400    0.567148
    126          1           0      -15.393501   -1.253006    1.812573
    127          1           0      -15.733884   -2.166785    0.302875
    128          1           0      -16.095652    1.243033   -0.170719
    129          1           0      -14.458752    1.978385   -0.218524
    130          1           0      -15.229580    0.837265    2.457803
    131          1           0      -16.424487    1.765997    1.847796
    132          1           0      -15.295697    3.428763    2.984413
    133          1           0      -14.285869    3.530083    1.488740
    134          1           0      -12.864407    1.681705    2.588659
    135          1           0      -14.543814    2.752542    4.793498
    136          1           0      -12.785573    2.469122    5.220572
    137          1           0      -13.912944    1.153054    4.587512
    138          1           0      -11.327635    3.340413    2.775953
    139          1           0      -12.050681    4.187130    4.050868
    140          1           0      -12.523314    4.442178    2.316956
 ---------------------------------------------------------------------

 SCF Done:  E(RB-LYP) =  -3007.36483813     A.U. after   20 cycles

 Excitation energies and oscillator strengths:

 Excited State   1:      Singlet-A      1.8110 eV  684.62 nm  f=0.2902  <S**2>=0.000
     245 -> 248        0.20132
     246 -> 247        0.68436
     246 <- 247       -0.14328
 This state for optimization and/or second-order correction.
 Total Energy, E(TD-HF/TD-DFT) =  -3007.29828501
 Copying the excited state density for this state as the 1-particle RhoCI density.

 Excited State   2:      Singlet-A      2.0036 eV  618.80 nm  f=0.1029  <S**2>=0.000
     245 -> 247        0.65182
     246 -> 248       -0.23251

 Excited State   3:      Singlet-A      2.0864 eV  594.24 nm  f=0.0022  <S**2>=0.000
     244 -> 247        0.70168

 Excited State   4:      Singlet-A      2.1298 eV  582.14 nm  f=0.0030  <S**2>=0.000
     243 -> 247        0.70245

 Excited State   5:      Singlet-A      2.5043 eV  495.09 nm  f=0.0000  <S**2>=0.000
     241 -> 247        0.70441

 The electronic state is 1-A.
 Alpha  occ. eigenvalues --  -46.27084 -18.82446 -18.82230 -18.76974 -18.76522
 Alpha  occ. eigenvalues --  -18.76168 -18.75843 -14.03531 -14.02496 -14.01282
 Alpha  occ. eigenvalues --  -14.00821 -10.04313 -10.03676 -10.00696 -10.00360
 Alpha  occ. eigenvalues --   -9.97567  -9.97449  -9.96605  -9.96593  -9.96143
 Alpha  occ. eigenvalues --   -9.96083  -9.96039  -9.95239  -9.95197  -9.94834
 Alpha  occ. eigenvalues --   -9.94668  -9.94665  -9.94319  -9.94098  -9.93947
 Alpha  occ. eigenvalues --   -9.93763  -9.93668  -9.93643  -9.93533  -9.93431
 Alpha  occ. eigenvalues --   -9.93329  -9.93288  -9.92884  -9.92764  -9.92536
 Alpha  occ. eigenvalues --   -9.92493  -9.92436  -9.92434  -9.92303  -9.92086
 Alpha  occ. eigenvalues --   -9.92024  -9.91981  -9.91959  -9.91940  -9.91905
 Alpha  occ. eigenvalues --   -9.91675  -9.91607  -9.91536  -9.91448  -9.91403
 Alpha  occ. eigenvalues --   -9.91344  -9.91201  -9.91161  -9.91028  -9.90882
 Alpha  occ. eigenvalues --   -9.90870  -9.90867  -9.90747  -9.90623  -9.90597
 Alpha  occ. eigenvalues --   -9.90462  -2.91775  -1.72209  -1.71648  -1.71491
 Alpha  occ. eigenvalues --   -0.98451  -0.98299  -0.90591  -0.90353  -0.89945
 Alpha  occ. eigenvalues --   -0.89874  -0.88481  -0.86291  -0.85980  -0.85165
 Alpha  occ. eigenvalues --   -0.75872  -0.73801  -0.73074  -0.72465  -0.72401
 Alpha  occ. eigenvalues --   -0.72003  -0.71407  -0.71295  -0.70786  -0.70384
 Alpha  occ. eigenvalues --   -0.69677  -0.69007  -0.67913  -0.67603  -0.66891
 Alpha  occ. eigenvalues --   -0.66426  -0.66030  -0.65283  -0.64848  -0.64383
 Alpha  occ. eigenvalues --   -0.64070  -0.62346  -0.62294  -0.62039  -0.60969
 Alpha  occ. eigenvalues --   -0.60787  -0.60171  -0.59988  -0.59642  -0.58981
 Alpha  occ. eigenvalues --   -0.58532  -0.57456  -0.56720  -0.55823  -0.54191
 Alpha  occ. eigenvalues --   -0.53956  -0.53756  -0.52875  -0.52356  -0.52101
 Alpha  occ. eigenvalues --   -0.51391  -0.50993  -0.50779  -0.50072  -0.50032
 Alpha  occ. eigenvalues --   -0.49335  -0.49226  -0.48692  -0.48529  -0.46767
 Alpha  occ. eigenvalues --   -0.46407  -0.45984  -0.45684  -0.45320  -0.44515
 Alpha  occ. eigenvalues --   -0.44384  -0.44084  -0.42913  -0.42630  -0.42488
 Alpha  occ. eigenvalues --   -0.42043  -0.41824  -0.41527  -0.41524  -0.41376
 Alpha  occ. eigenvalues --   -0.40886  -0.40854  -0.40554  -0.40319  -0.39984
 Alpha  occ. eigenvalues --   -0.39765  -0.39610  -0.39559  -0.39333  -0.39288
 Alpha  occ. eigenvalues --   -0.38882  -0.38639  -0.38596  -0.38346  -0.38054
 Alpha  occ. eigenvalues --   -0.37750  -0.37688  -0.37457  -0.37448  -0.37374
 Alpha  occ. eigenvalues --   -0.37133  -0.37061  -0.36779  -0.36605  -0.36337
 Alpha  occ. eigenvalues --   -0.36223  -0.36167  -0.36135  -0.36000  -0.35674
 Alpha  occ. eigenvalues --   -0.35610  -0.35358  -0.34914  -0.34845  -0.34487
 Alpha  occ. eigenvalues --   -0.34252  -0.34171  -0.34131  -0.34021  -0.33733
 Alpha  occ. eigenvalues --   -0.33614  -0.33488  -0.33390  -0.33263  -0.33140
 Alpha  occ. eigenvalues --   -0.32983  -0.32646  -0.32576  -0.32545  -0.32289
 Alpha  occ. eigenvalues --   -0.32143  -0.31957  -0.31874  -0.31678  -0.31373
 Alpha  occ. eigenvalues --   -0.31256  -0.31042  -0.30880  -0.30804  -0.30690
 Alpha  occ. eigenvalues --   -0.30640  -0.30558  -0.30344  -0.30212  -0.30080
 Alpha  occ. eigenvalues --   -0.29898  -0.29597  -0.29539  -0.29224  -0.29087
 Alpha  occ. eigenvalues --   -0.28708  -0.28377  -0.28213  -0.27911  -0.27789
 Alpha  occ. eigenvalues --   -0.27514  -0.27432  -0.27228  -0.26752  -0.26593
 Alpha  occ. eigenvalues --   -0.26431  -0.26289  -0.25784  -0.25754  -0.25568
 Alpha  occ. eigenvalues --   -0.24821  -0.24681  -0.24426  -0.23828  -0.23684
 Alpha  occ. eigenvalues --   -0.23039  -0.22432  -0.22192  -0.21701  -0.20669
 Alpha  occ. eigenvalues --   -0.20628  -0.20438  -0.19133  -0.18980  -0.17012
 Alpha  occ. eigenvalues --   -0.15777
 Alpha virt. eigenvalues --   -0.11426  -0.06684  -0.06591  -0.04868  -0.03111
 Alpha virt. eigenvalues --   -0.02161  -0.01685  -0.01043  -0.00801  -0.00238
 Alpha virt. eigenvalues --    0.00872   0.01391   0.01477   0.02383   0.03005

 Mulliken charges:
               1
     1  Mg   0.696221
     2  C    0.023594
     3  C   -0.043847
     4  C   -0.052620
     5  C   -0.092480
     6  N   -0.205085
     7  C   -0.094288
     8  C    0.002225
     9  C   -0.003281
    10  C    0.018070
    11  C    0.115253
    12  C    0.075666
    13  C    0.163438
    14  C    0.044760
    15  O   -0.189582
    16  O   -0.268348
    17  N   -0.270679
    18  C    0.140436
    19  C   -0.147967
    20  C    0.003977
    21  C    0.088606
    22  C    0.160223
    23  C   -0.036985
    24  O   -0.178936
    25  C    0.118310
    26  N   -0.150855
    27  C    0.021312
    28  C   -0.030545
    29  C    0.066688
    30  C   -0.050548
    31  C    0.120525
    32  C    0.093903
    33  C    0.051613
    34  N   -0.270581
    35  C    0.176287
    36  C   -0.194717
    37  C    0.061810
    38  C    0.082122
    39  C    0.187128
    40  C   -0.008262
    41  O   -0.153588
    42  C    0.068039
    43  C    0.090977
    44  O   -0.178747
    45  O   -0.257841
    46  C    0.212279
    47  C    0.290745
    48  C   -0.063128
    49  C   -0.150373
    50  C    0.141759
    51  C    0.100526
    52  C    0.075650
    53  C    0.115933
    54  C   -0.071228
    55  C    0.104330
    56  C    0.082665
    57  C    0.046055
    58  C    0.140638
    59  C   -0.113116
    60  C    0.130459
    61  C    0.103685
    62  C    0.025761
    63  C    0.130463
    64  C   -0.112826
    65  C    0.134449
    66  C    0.103752
    67  H   -0.071059
    68  H   -0.049396
    69  H   -0.071302
    70  H    0.009611
    71  H   -0.012531
    72  H   -0.005741
    73  H   -0.004062
    74  H   -0.000151
    75  H   -0.018440
    76  H    0.001215
    77  H   -0.016771
    78  H    0.001843
    79  H    0.012768
    80  H    0.007122
    81  H   -0.007213
    82  H   -0.003127
    83  H    0.004283
    84  H    0.002382
    85  H   -0.021132
    86  H   -0.027356
    87  H   -0.013993
    88  H    0.008473
    89  H   -0.009013
    90  H   -0.021320
    91  H   -0.008230
    92  H    0.000913
    93  H   -0.005784
    94  H   -0.009947
    95  H   -0.017766
    96  H    0.011156
    97  H    0.008932
    98  H    0.023167
    99  H    0.031932
   100  H   -0.001047
   101  H    0.019136
   102  H    0.022818
   103  H   -0.008857
   104  H   -0.052950
   105  H    0.003703
   106  H    0.001044
   107  H   -0.023543
   108  H   -0.030322
   109  H   -0.018887
   110  H   -0.021587
   111  H   -0.016166
   112  H   -0.034650
   113  H   -0.034892
   114  H   -0.026595
   115  H   -0.024926
   116  H   -0.023019
   117  H   -0.022127
   118  H   -0.031671
   119  H   -0.038428
   120  H   -0.018376
   121  H   -0.029071
   122  H   -0.040537
   123  H   -0.040401
   124  H   -0.032380
   125  H   -0.029163
   126  H   -0.007349
   127  H   -0.021966
   128  H   -0.032602
   129  H   -0.030850
   130  H   -0.048001
   131  H   -0.050289
   132  H   -0.029064
   133  H   -0.035316
   134  H   -0.026168
   135  H   -0.020374
   136  H   -0.004456
   137  H   -0.018758
   138  H   -0.033143
   139  H   -0.014020
   140  H   -0.024092
 Sum of Mulliken charges =  -0.00000

 Dipole moment (field-independent basis, Debye):
    X=             -3.2187    Y=              3.5370    Z=             -0.3972  Tot=              4.7988
 Quadrupole moment (field-independent basis, Debye-Ang):
   XX=           -386.7581   YY=           -422.9926   ZZ=           -408.3327
   XY=              1.6615   XZ=             17.3044   YZ=             -0.2904

 Normal termination of Gaussian 16 at Thu May  5 11:58:50 2022.
