 Gaussian 16, Revision A.03,
 Gaussian 16:  ES64L-G16RevA.03 25-Dec-2016

 -----------------------------------
 #p cam-b3lyp/Def2SVP td=(nstates=5)
 -----------------------------------

 ------------------------------------------------------
 step_801_chromophore_7 TDDFT with cam-b3lyp functional
 ------------------------------------------------------
 Symbolic Z-matrix:
 Charge =  0 Multiplicity = 1

                         Standard orientation:
 ---------------------------------------------------------------------
 Center     Atomic      Atomic             Coordinates (Angstroms)
 Number     Number       Type             X           Y           Z
 ---------------------------------------------------------------------
      1         12           0        6.408559    0.415799    0.020811
      2          6           0        3.980102   -2.122575   -0.120995
      3          6           0        4.085300    2.589214   -1.274598
      4          6           0        8.796974    2.596257   -0.200329
      5          6           0        8.678069   -1.943671    1.221567
      6          7           0        4.246724    0.286226   -0.508158
      7          6           0        3.444842   -0.858998   -0.428477
      8          6           0        2.003401   -0.645281   -0.977784
      9          6           0        2.142971    0.913835   -1.455049
     10          6           0        3.585803    1.264830   -1.133038
     11          6           0        1.831244    1.093821   -2.995452
     12          6           0        0.967151   -0.842851    0.197122
     13          6           0       -0.444569   -0.257162    0.163460
     14          6           0       -1.587501   -1.116936    0.671653
     15          8           0       -1.570966   -1.846342    1.656833
     16          8           0       -2.654087   -1.100934   -0.204019
     17          7           0        6.504018    2.386462   -0.618883
     18          6           0        5.377677    3.137561   -0.916920
     19          6           0        5.755916    4.551513   -0.960524
     20          6           0        7.198980    4.612297   -0.772814
     21          6           0        7.569615    3.144210   -0.635887
     22          6           0        4.767162    5.640653   -1.342291
     23          6           0        8.111801    5.836556   -0.554144
     24          8           0        9.264504    5.706693   -0.104139
     25          6           0        7.609578    7.244476   -0.858841
     26          7           0        8.489478    0.275374    0.366078
     27          6           0        9.245017    1.335352    0.237444
     28          6           0       10.670382    1.035401    0.789778
     29          6           0       10.477246   -0.293755    1.605205
     30          6           0        9.118005   -0.661226    1.029108
     31          6           0       11.766538    0.957199   -0.365964
     32          6           0       10.381153    0.009387    3.127184
     33          6           0       11.595351   -0.490657    3.976339
     34          7           0        6.400348   -1.571045    0.495021
     35          6           0        7.385922   -2.431007    0.893291
     36          6           0        6.906229   -3.781101    0.859498
     37          6           0        5.573496   -3.737995    0.446648
     38          6           0        5.294687   -2.363622    0.292156
     39          6           0        7.624057   -5.029984    1.116800
     40          6           0        4.323448   -4.521576    0.268448
     41          8           0        4.092288   -5.728280    0.481313
     42          6           0        3.238787   -3.444222   -0.001695
     43          6           0        2.499314   -3.882992   -1.208581
     44          8           0        2.821457   -3.814527   -2.379244
     45          8           0        1.284203   -4.338084   -0.808974
     46          6           0        0.441560   -4.935069   -1.838171
     47          6           0       -3.868754   -1.629911    0.395695
     48          6           0       -5.151512   -0.932436    0.057071
     49          6           0       -6.339760   -1.386781   -0.202084
     50          6           0       -6.798499   -2.869265   -0.065948
     51          6           0       -7.442345   -0.435863   -0.585645
     52          6           0       -8.455245   -0.884062   -1.714105
     53          6           0       -9.114129    0.329302   -2.386822
     54          6           0      -10.602336    0.052681   -2.712105
     55          6           0      -11.109086    0.886030   -3.879349
     56          6           0      -11.486127    0.423247   -1.413669
     57          6           0      -12.316293   -0.737912   -0.783170
     58          6           0      -13.885817   -0.626569   -1.034197
     59          6           0      -14.574802   -0.241656    0.255292
     60          6           0      -15.619425   -1.179300    0.748737
     61          6           0      -15.098736    1.245309    0.270878
     62          6           0      -15.338625    1.689249    1.786249
     63          6           0      -14.580900    2.915995    2.340354
     64          6           0      -13.295100    2.527932    3.123339
     65          6           0      -13.625886    2.205121    4.579346
     66          6           0      -12.297847    3.717310    3.098627
     67          1           0        3.311709    3.281274   -1.611809
     68          1           0        9.587264    3.342176   -0.093743
     69          1           0        9.473617   -2.538984    1.673708
     70          1           0        1.867232   -1.406548   -1.746469
     71          1           0        1.433737    1.519823   -0.890872
     72          1           0        1.090202    1.874451   -3.168438
     73          1           0        1.451495    0.155496   -3.399466
     74          1           0        2.769013    1.315626   -3.504682
     75          1           0        1.450782   -0.625948    1.149110
     76          1           0        0.808994   -1.918434    0.274128
     77          1           0       -0.733092    0.118650   -0.817240
     78          1           0       -0.519496    0.623245    0.801462
     79          1           0        5.236211    6.096530   -2.214289
     80          1           0        4.691718    6.334841   -0.506298
     81          1           0        3.759399    5.355615   -1.643183
     82          1           0        8.388461    8.002061   -0.778481
     83          1           0        6.830009    7.512597   -0.144820
     84          1           0        7.146658    7.352192   -1.839781
     85          1           0       10.968471    1.916891    1.357729
     86          1           0       11.204126   -1.041513    1.290851
     87          1           0       12.356476    0.040338   -0.345943
     88          1           0       12.352495    1.869734   -0.266913
     89          1           0       11.303035    0.886410   -1.350440
     90          1           0        9.576637   -0.580788    3.566360
     91          1           0       10.194701    1.061870    3.342305
     92          1           0       11.255781   -1.427121    4.419591
     93          1           0       11.865298    0.270106    4.709075
     94          1           0       12.508191   -0.660211    3.405829
     95          1           0        8.679306   -4.927863    1.371306
     96          1           0        7.508268   -5.589446    0.188912
     97          1           0        7.054142   -5.548390    1.887146
     98          1           0        2.517853   -3.366794    0.812861
     99          1           0        0.835720   -5.268006   -2.798359
    100          1           0       -0.292360   -4.169637   -2.090449
    101          1           0       -0.090330   -5.720845   -1.301478
    102          1           0       -3.867138   -1.872636    1.458494
    103          1           0       -3.752622   -2.585921   -0.113198
    104          1           0       -5.103354    0.155191   -0.000671
    105          1           0       -6.985231   -3.327205   -1.037360
    106          1           0       -7.648627   -3.014191    0.600080
    107          1           0       -5.943520   -3.378292    0.379661
    108          1           0       -7.001122    0.522735   -0.858772
    109          1           0       -8.007950   -0.245294    0.325955
    110          1           0       -9.263335   -1.400940   -1.196541
    111          1           0       -7.970092   -1.445857   -2.511314
    112          1           0       -8.616525    0.647429   -3.303038
    113          1           0       -9.059261    1.131549   -1.650875
    114          1           0      -10.751984   -0.988356   -2.996613
    115          1           0      -10.486849    1.624333   -4.386771
    116          1           0      -11.974105    1.480180   -3.585824
    117          1           0      -11.379667    0.218249   -4.697308
    118          1           0      -12.049792    1.329209   -1.638364
    119          1           0      -10.913030    0.773530   -0.554776
    120          1           0      -12.001904   -0.893598    0.248506
    121          1           0      -12.108290   -1.653853   -1.336236
    122          1           0      -14.321381   -1.505867   -1.508628
    123          1           0      -14.070965    0.202593   -1.716776
    124          1           0      -13.797852   -0.208594    1.018902
    125          1           0      -16.614115   -0.772400    0.567148
    126          1           0      -15.393501   -1.253006    1.812573
    127          1           0      -15.733884   -2.166785    0.302875
    128          1           0      -16.095652    1.243033   -0.170719
    129          1           0      -14.458752    1.978385   -0.218524
    130          1           0      -15.229580    0.837265    2.457803
    131          1           0      -16.424487    1.765997    1.847796
    132          1           0      -15.295697    3.428763    2.984413
    133          1           0      -14.285869    3.530083    1.488740
    134          1           0      -12.864407    1.681705    2.588659
    135          1           0      -14.543814    2.752542    4.793498
    136          1           0      -12.785573    2.469122    5.220572
    137          1           0      -13.912944    1.153054    4.587512
    138          1           0      -11.327635    3.340413    2.775953
    139          1           0      -12.050681    4.187130    4.050868
    140          1           0      -12.523314    4.442178    2.316956
 ---------------------------------------------------------------------

 SCF Done:  E(RCAM-B3LYP) =  -3007.15865695     A.U. after   17 cycles

 Excitation energies and oscillator strengths:

 Excited State   1:      Singlet-A      1.7289 eV  717.13 nm  f=0.3788  <S**2>=0.000
     245 -> 248        0.18736
     246 -> 247        0.68355
     245 <- 248        0.10827
 This state for optimization and/or second-order correction.
 Total Energy, E(TD-HF/TD-DFT) =  -3007.09512118
 Copying the excited state density for this state as the 1-particle RhoCI density.

 Excited State   2:      Singlet-A      2.2156 eV  559.59 nm  f=0.1329  <S**2>=0.000
     245 -> 247        0.64598
     246 -> 248       -0.27776

 Excited State   3:      Singlet-A      3.4845 eV  355.82 nm  f=0.0571  <S**2>=0.000
     243 -> 247       -0.41291
     244 -> 247        0.51192
     246 -> 248       -0.20285

 Excited State   4:      Singlet-A      3.5257 eV  351.66 nm  f=0.2553  <S**2>=0.000
     243 -> 247        0.23174
     244 -> 247        0.39084
     245 -> 247        0.17229
     246 -> 248        0.48578

 Excited State   5:      Singlet-A      3.6549 eV  339.23 nm  f=0.1630  <S**2>=0.000
     240 -> 247        0.41352
     240 -> 249       -0.25779
     240 -> 250        0.21217
     241 -> 247        0.15823
     241 -> 249       -0.14525
     243 -> 247       -0.22098
     245 -> 247        0.11755
     246 -> 248        0.21880

 The electronic state is 1-A.
 Alpha  occ. eigenvalues --  -46.88574 -19.25287 -19.25158 -19.19988 -19.19649
 Alpha  occ. eigenvalues --  -19.19342 -19.19275 -14.42503 -14.41188 -14.39835
 Alpha  occ. eigenvalues --  -14.39126 -10.39666 -10.39115 -10.36189 -10.35727
 Alpha  occ. eigenvalues --  -10.31531 -10.31370 -10.31210 -10.31009 -10.30771
 Alpha  occ. eigenvalues --  -10.30685 -10.30541 -10.29663 -10.29277 -10.29173
 Alpha  occ. eigenvalues --  -10.29006 -10.28808 -10.28485 -10.28436 -10.28273
 Alpha  occ. eigenvalues --  -10.28088 -10.27711 -10.27661 -10.27635 -10.27588
 Alpha  occ. eigenvalues --  -10.27485 -10.27232 -10.26973 -10.26699 -10.26639
 Alpha  occ. eigenvalues --  -10.26372 -10.26287 -10.26181 -10.25983 -10.25910
 Alpha  occ. eigenvalues --  -10.25740 -10.25682 -10.25659 -10.25654 -10.25628
 Alpha  occ. eigenvalues --  -10.25441 -10.25313 -10.25228 -10.25170 -10.25133
 Alpha  occ. eigenvalues --  -10.25091 -10.24864 -10.24849 -10.24805 -10.24707
 Alpha  occ. eigenvalues --  -10.24595 -10.24448 -10.24412 -10.24224 -10.24182
 Alpha  occ. eigenvalues --  -10.24030  -3.17175  -1.92085  -1.91621  -1.91492
 Alpha  occ. eigenvalues --   -1.17029  -1.16756  -1.09150  -1.08656  -1.07860
 Alpha  occ. eigenvalues --   -1.07821  -1.06207  -1.04061  -1.03560  -1.02672
 Alpha  occ. eigenvalues --   -0.92997  -0.90700  -0.89901  -0.89195  -0.89087
 Alpha  occ. eigenvalues --   -0.88716  -0.88134  -0.87913  -0.87298  -0.86982
 Alpha  occ. eigenvalues --   -0.86194  -0.85409  -0.84145  -0.83754  -0.83021
 Alpha  occ. eigenvalues --   -0.82423  -0.82086  -0.81481  -0.80680  -0.80263
 Alpha  occ. eigenvalues --   -0.79823  -0.78217  -0.77928  -0.77514  -0.76354
 Alpha  occ. eigenvalues --   -0.76147  -0.75528  -0.75248  -0.74944  -0.74232
 Alpha  occ. eigenvalues --   -0.73609  -0.72399  -0.71644  -0.70641  -0.68659
 Alpha  occ. eigenvalues --   -0.68547  -0.68309  -0.67421  -0.66742  -0.66207
 Alpha  occ. eigenvalues --   -0.65575  -0.65147  -0.64905  -0.64097  -0.63988
 Alpha  occ. eigenvalues --   -0.63313  -0.62975  -0.62599  -0.62221  -0.60529
 Alpha  occ. eigenvalues --   -0.59942  -0.59549  -0.59289  -0.58777  -0.58016
 Alpha  occ. eigenvalues --   -0.57866  -0.57433  -0.56267  -0.55906  -0.55768
 Alpha  occ. eigenvalues --   -0.54961  -0.54869  -0.54673  -0.54316  -0.54241
 Alpha  occ. eigenvalues --   -0.54021  -0.53435  -0.53342  -0.52933  -0.52795
 Alpha  occ. eigenvalues --   -0.52545  -0.52362  -0.52170  -0.52063  -0.51728
 Alpha  occ. eigenvalues --   -0.51550  -0.51268  -0.50906  -0.50874  -0.50665
 Alpha  occ. eigenvalues --   -0.50172  -0.49948  -0.49866  -0.49740  -0.49648
 Alpha  occ. eigenvalues --   -0.49590  -0.49540  -0.49210  -0.48945  -0.48743
 Alpha  occ. eigenvalues --   -0.48486  -0.48356  -0.48305  -0.48175  -0.48097
 Alpha  occ. eigenvalues --   -0.47663  -0.47519  -0.46746  -0.46660  -0.46324
 Alpha  occ. eigenvalues --   -0.46268  -0.46102  -0.46044  -0.45906  -0.45556
 Alpha  occ. eigenvalues --   -0.45464  -0.45196  -0.45058  -0.44983  -0.44878
 Alpha  occ. eigenvalues --   -0.44719  -0.44372  -0.44280  -0.44113  -0.43928
 Alpha  occ. eigenvalues --   -0.43887  -0.43688  -0.43449  -0.43343  -0.43091
 Alpha  occ. eigenvalues --   -0.43023  -0.42657  -0.42460  -0.42327  -0.42170
 Alpha  occ. eigenvalues --   -0.41982  -0.41928  -0.41621  -0.41465  -0.41381
 Alpha  occ. eigenvalues --   -0.41092  -0.41023  -0.40792  -0.40417  -0.40263
 Alpha  occ. eigenvalues --   -0.39758  -0.39375  -0.39129  -0.38936  -0.38842
 Alpha  occ. eigenvalues --   -0.38362  -0.38259  -0.38040  -0.37922  -0.37506
 Alpha  occ. eigenvalues --   -0.37228  -0.37029  -0.36471  -0.36429  -0.36304
 Alpha  occ. eigenvalues --   -0.36179  -0.35806  -0.35125  -0.34687  -0.34499
 Alpha  occ. eigenvalues --   -0.34405  -0.33357  -0.33088  -0.31502  -0.31234
 Alpha  occ. eigenvalues --   -0.31112  -0.30518  -0.30155  -0.29539  -0.23673
 Alpha  occ. eigenvalues --   -0.21123
 Alpha virt. eigenvalues --   -0.08503  -0.01466  -0.00071   0.01914   0.03409
 Alpha virt. eigenvalues --    0.04791   0.05553   0.05667   0.06374   0.06516
 Alpha virt. eigenvalues --    0.07520   0.07724   0.08640   0.08884   0.09201

 Mulliken charges:
               1
     1  Mg   0.833104
     2  C    0.004099
     3  C   -0.057256
     4  C   -0.076228
     5  C   -0.088903
     6  N   -0.274148
     7  C   -0.048464
     8  C   -0.047515
     9  C   -0.059494
    10  C    0.037582
    11  C    0.058736
    12  C    0.029916
    13  C    0.088405
    14  C    0.130721
    15  O   -0.231113
    16  O   -0.331461
    17  N   -0.358464
    18  C    0.147468
    19  C   -0.152385
    20  C   -0.056948
    21  C    0.119793
    22  C    0.102628
    23  C    0.038712
    24  O   -0.218346
    25  C    0.039654
    26  N   -0.226818
    27  C    0.040746
    28  C   -0.080962
    29  C    0.005103
    30  C   -0.036219
    31  C    0.066141
    32  C    0.039771
    33  C   -0.006642
    34  N   -0.360024
    35  C    0.173026
    36  C   -0.196177
    37  C   -0.009545
    38  C    0.110111
    39  C    0.133290
    40  C    0.090256
    41  O   -0.191065
    42  C   -0.016829
    43  C    0.177803
    44  O   -0.215799
    45  O   -0.320153
    46  C    0.172900
    47  C    0.252917
    48  C   -0.095119
    49  C   -0.165998
    50  C    0.084306
    51  C    0.044862
    52  C    0.018567
    53  C    0.063305
    54  C   -0.129393
    55  C    0.046245
    56  C    0.034603
    57  C   -0.010242
    58  C    0.087484
    59  C   -0.163279
    60  C    0.066462
    61  C    0.054382
    62  C   -0.025972
    63  C    0.073659
    64  C   -0.168559
    65  C    0.074015
    66  C    0.042184
    67  H   -0.036389
    68  H   -0.010863
    69  H   -0.035626
    70  H    0.040626
    71  H    0.020322
    72  H    0.017771
    73  H    0.021120
    74  H    0.026196
    75  H    0.014630
    76  H    0.028056
    77  H    0.018793
    78  H    0.032779
    79  H    0.037222
    80  H    0.032732
    81  H    0.022269
    82  H    0.032409
    83  H    0.031378
    84  H    0.029890
    85  H    0.013357
    86  H    0.008152
    87  H    0.009970
    88  H    0.030824
    89  H    0.016691
    90  H    0.009080
    91  H    0.018803
    92  H    0.022396
    93  H    0.017562
    94  H    0.012139
    95  H    0.007031
    96  H    0.036063
    97  H    0.034464
    98  H    0.067413
    99  H    0.057254
   100  H    0.019808
   101  H    0.042333
   102  H    0.054739
   103  H    0.020888
   104  H   -0.017103
   105  H    0.027892
   106  H    0.025651
   107  H    0.000857
   108  H   -0.001114
   109  H    0.009048
   110  H    0.004284
   111  H    0.011788
   112  H   -0.004916
   113  H   -0.006367
   114  H    0.005070
   115  H    0.000722
   116  H    0.000405
   117  H    0.002667
   118  H   -0.006150
   119  H   -0.011637
   120  H    0.008936
   121  H   -0.001225
   122  H   -0.009913
   123  H   -0.012075
   124  H   -0.004193
   125  H   -0.004415
   126  H    0.015462
   127  H    0.005051
   128  H   -0.003770
   129  H   -0.004712
   130  H   -0.022664
   131  H   -0.018564
   132  H   -0.000057
   133  H   -0.007362
   134  H    0.001891
   135  H    0.003170
   136  H    0.019452
   137  H    0.004915
   138  H   -0.008022
   139  H    0.010332
   140  H    0.000942
 Sum of Mulliken charges =  -0.00000

 Dipole moment (field-independent basis, Debye):
    X=             -3.4100    Y=              4.5922    Z=             -0.6516  Tot=              5.7568
 Quadrupole moment (field-independent basis, Debye-Ang):
   XX=           -386.1237   YY=           -417.8553   ZZ=           -408.5868
   XY=              7.0100   XZ=             17.0738   YZ=             -1.1524

 Normal termination of Gaussian 16 at Thu May  5 10:26:23 2022.
