 Gaussian 16, Revision A.03,
 Gaussian 16:  ES64L-G16RevA.03 25-Dec-2016

 ---------------------------------
 #p PBE1PBE/Def2SVP td=(nstates=5)
 ---------------------------------

 ----------------------------------------------------
 step_801_chromophore_7 TDDFT with PBE1PBE functional
 ----------------------------------------------------
 Symbolic Z-matrix:
 Charge =  0 Multiplicity = 1

                         Standard orientation:
 ---------------------------------------------------------------------
 Center     Atomic      Atomic             Coordinates (Angstroms)
 Number     Number       Type             X           Y           Z
 ---------------------------------------------------------------------
      1         12           0        6.408559    0.415799    0.020811
      2          6           0        3.980102   -2.122575   -0.120995
      3          6           0        4.085300    2.589214   -1.274598
      4          6           0        8.796974    2.596257   -0.200329
      5          6           0        8.678069   -1.943671    1.221567
      6          7           0        4.246724    0.286226   -0.508158
      7          6           0        3.444842   -0.858998   -0.428477
      8          6           0        2.003401   -0.645281   -0.977784
      9          6           0        2.142971    0.913835   -1.455049
     10          6           0        3.585803    1.264830   -1.133038
     11          6           0        1.831244    1.093821   -2.995452
     12          6           0        0.967151   -0.842851    0.197122
     13          6           0       -0.444569   -0.257162    0.163460
     14          6           0       -1.587501   -1.116936    0.671653
     15          8           0       -1.570966   -1.846342    1.656833
     16          8           0       -2.654087   -1.100934   -0.204019
     17          7           0        6.504018    2.386462   -0.618883
     18          6           0        5.377677    3.137561   -0.916920
     19          6           0        5.755916    4.551513   -0.960524
     20          6           0        7.198980    4.612297   -0.772814
     21          6           0        7.569615    3.144210   -0.635887
     22          6           0        4.767162    5.640653   -1.342291
     23          6           0        8.111801    5.836556   -0.554144
     24          8           0        9.264504    5.706693   -0.104139
     25          6           0        7.609578    7.244476   -0.858841
     26          7           0        8.489478    0.275374    0.366078
     27          6           0        9.245017    1.335352    0.237444
     28          6           0       10.670382    1.035401    0.789778
     29          6           0       10.477246   -0.293755    1.605205
     30          6           0        9.118005   -0.661226    1.029108
     31          6           0       11.766538    0.957199   -0.365964
     32          6           0       10.381153    0.009387    3.127184
     33          6           0       11.595351   -0.490657    3.976339
     34          7           0        6.400348   -1.571045    0.495021
     35          6           0        7.385922   -2.431007    0.893291
     36          6           0        6.906229   -3.781101    0.859498
     37          6           0        5.573496   -3.737995    0.446648
     38          6           0        5.294687   -2.363622    0.292156
     39          6           0        7.624057   -5.029984    1.116800
     40          6           0        4.323448   -4.521576    0.268448
     41          8           0        4.092288   -5.728280    0.481313
     42          6           0        3.238787   -3.444222   -0.001695
     43          6           0        2.499314   -3.882992   -1.208581
     44          8           0        2.821457   -3.814527   -2.379244
     45          8           0        1.284203   -4.338084   -0.808974
     46          6           0        0.441560   -4.935069   -1.838171
     47          6           0       -3.868754   -1.629911    0.395695
     48          6           0       -5.151512   -0.932436    0.057071
     49          6           0       -6.339760   -1.386781   -0.202084
     50          6           0       -6.798499   -2.869265   -0.065948
     51          6           0       -7.442345   -0.435863   -0.585645
     52          6           0       -8.455245   -0.884062   -1.714105
     53          6           0       -9.114129    0.329302   -2.386822
     54          6           0      -10.602336    0.052681   -2.712105
     55          6           0      -11.109086    0.886030   -3.879349
     56          6           0      -11.486127    0.423247   -1.413669
     57          6           0      -12.316293   -0.737912   -0.783170
     58          6           0      -13.885817   -0.626569   -1.034197
     59          6           0      -14.574802   -0.241656    0.255292
     60          6           0      -15.619425   -1.179300    0.748737
     61          6           0      -15.098736    1.245309    0.270878
     62          6           0      -15.338625    1.689249    1.786249
     63          6           0      -14.580900    2.915995    2.340354
     64          6           0      -13.295100    2.527932    3.123339
     65          6           0      -13.625886    2.205121    4.579346
     66          6           0      -12.297847    3.717310    3.098627
     67          1           0        3.311709    3.281274   -1.611809
     68          1           0        9.587264    3.342176   -0.093743
     69          1           0        9.473617   -2.538984    1.673708
     70          1           0        1.867232   -1.406548   -1.746469
     71          1           0        1.433737    1.519823   -0.890872
     72          1           0        1.090202    1.874451   -3.168438
     73          1           0        1.451495    0.155496   -3.399466
     74          1           0        2.769013    1.315626   -3.504682
     75          1           0        1.450782   -0.625948    1.149110
     76          1           0        0.808994   -1.918434    0.274128
     77          1           0       -0.733092    0.118650   -0.817240
     78          1           0       -0.519496    0.623245    0.801462
     79          1           0        5.236211    6.096530   -2.214289
     80          1           0        4.691718    6.334841   -0.506298
     81          1           0        3.759399    5.355615   -1.643183
     82          1           0        8.388461    8.002061   -0.778481
     83          1           0        6.830009    7.512597   -0.144820
     84          1           0        7.146658    7.352192   -1.839781
     85          1           0       10.968471    1.916891    1.357729
     86          1           0       11.204126   -1.041513    1.290851
     87          1           0       12.356476    0.040338   -0.345943
     88          1           0       12.352495    1.869734   -0.266913
     89          1           0       11.303035    0.886410   -1.350440
     90          1           0        9.576637   -0.580788    3.566360
     91          1           0       10.194701    1.061870    3.342305
     92          1           0       11.255781   -1.427121    4.419591
     93          1           0       11.865298    0.270106    4.709075
     94          1           0       12.508191   -0.660211    3.405829
     95          1           0        8.679306   -4.927863    1.371306
     96          1           0        7.508268   -5.589446    0.188912
     97          1           0        7.054142   -5.548390    1.887146
     98          1           0        2.517853   -3.366794    0.812861
     99          1           0        0.835720   -5.268006   -2.798359
    100          1           0       -0.292360   -4.169637   -2.090449
    101          1           0       -0.090330   -5.720845   -1.301478
    102          1           0       -3.867138   -1.872636    1.458494
    103          1           0       -3.752622   -2.585921   -0.113198
    104          1           0       -5.103354    0.155191   -0.000671
    105          1           0       -6.985231   -3.327205   -1.037360
    106          1           0       -7.648627   -3.014191    0.600080
    107          1           0       -5.943520   -3.378292    0.379661
    108          1           0       -7.001122    0.522735   -0.858772
    109          1           0       -8.007950   -0.245294    0.325955
    110          1           0       -9.263335   -1.400940   -1.196541
    111          1           0       -7.970092   -1.445857   -2.511314
    112          1           0       -8.616525    0.647429   -3.303038
    113          1           0       -9.059261    1.131549   -1.650875
    114          1           0      -10.751984   -0.988356   -2.996613
    115          1           0      -10.486849    1.624333   -4.386771
    116          1           0      -11.974105    1.480180   -3.585824
    117          1           0      -11.379667    0.218249   -4.697308
    118          1           0      -12.049792    1.329209   -1.638364
    119          1           0      -10.913030    0.773530   -0.554776
    120          1           0      -12.001904   -0.893598    0.248506
    121          1           0      -12.108290   -1.653853   -1.336236
    122          1           0      -14.321381   -1.505867   -1.508628
    123          1           0      -14.070965    0.202593   -1.716776
    124          1           0      -13.797852   -0.208594    1.018902
    125          1           0      -16.614115   -0.772400    0.567148
    126          1           0      -15.393501   -1.253006    1.812573
    127          1           0      -15.733884   -2.166785    0.302875
    128          1           0      -16.095652    1.243033   -0.170719
    129          1           0      -14.458752    1.978385   -0.218524
    130          1           0      -15.229580    0.837265    2.457803
    131          1           0      -16.424487    1.765997    1.847796
    132          1           0      -15.295697    3.428763    2.984413
    133          1           0      -14.285869    3.530083    1.488740
    134          1           0      -12.864407    1.681705    2.588659
    135          1           0      -14.543814    2.752542    4.793498
    136          1           0      -12.785573    2.469122    5.220572
    137          1           0      -13.912944    1.153054    4.587512
    138          1           0      -11.327635    3.340413    2.775953
    139          1           0      -12.050681    4.187130    4.050868
    140          1           0      -12.523314    4.442178    2.316956
 ---------------------------------------------------------------------

 SCF Done:  E(RPBE1PBE) =  -3005.34766875     A.U. after   15 cycles

 Excitation energies and oscillator strengths:

 Excited State   1:      Singlet-A      1.8747 eV  661.35 nm  f=0.3663  <S**2>=0.000
     245 -> 248        0.18147
     246 -> 247        0.69052
     246 <- 247       -0.10254
 This state for optimization and/or second-order correction.
 Total Energy, E(TD-HF/TD-DFT) =  -3005.27877472
 Copying the excited state density for this state as the 1-particle RhoCI density.

 Excited State   2:      Singlet-A      2.2206 eV  558.34 nm  f=0.1315  <S**2>=0.000
     245 -> 247        0.65763
     246 -> 248       -0.25089

 Excited State   3:      Singlet-A      3.1209 eV  397.27 nm  f=0.0014  <S**2>=0.000
     240 -> 247       -0.16076
     243 -> 247       -0.13435
     244 -> 247        0.66107

 Excited State   4:      Singlet-A      3.1953 eV  388.02 nm  f=0.0003  <S**2>=0.000
     240 -> 247       -0.10592
     241 -> 247        0.63617
     241 -> 249        0.18846
     241 -> 250       -0.11746
     243 -> 247        0.14401

 Excited State   5:      Singlet-A      3.2185 eV  385.23 nm  f=0.0015  <S**2>=0.000
     240 -> 247        0.54298
     240 -> 249       -0.16732
     241 -> 247        0.16469
     243 -> 247       -0.31811
     244 -> 247        0.10691

 The electronic state is 1-A.
 Alpha  occ. eigenvalues --  -46.91988 -19.26038 -19.25835 -19.20309 -19.19879
 Alpha  occ. eigenvalues --  -19.19667 -19.19380 -14.41977 -14.40679 -14.39403
 Alpha  occ. eigenvalues --  -14.38889 -10.36734 -10.36131 -10.33220 -10.32982
 Alpha  occ. eigenvalues --  -10.28967 -10.28899 -10.28810 -10.28617 -10.28325
 Alpha  occ. eigenvalues --  -10.28216 -10.28166 -10.27149 -10.27098 -10.27071
 Alpha  occ. eigenvalues --  -10.26876 -10.26591 -10.26286 -10.26102 -10.25935
 Alpha  occ. eigenvalues --  -10.25598 -10.25520 -10.25437 -10.25383 -10.25227
 Alpha  occ. eigenvalues --  -10.24952 -10.24879 -10.24835 -10.24278 -10.24068
 Alpha  occ. eigenvalues --  -10.23918 -10.23869 -10.23732 -10.23633 -10.23366
 Alpha  occ. eigenvalues --  -10.23344 -10.23305 -10.23236 -10.23228 -10.23208
 Alpha  occ. eigenvalues --  -10.22914 -10.22833 -10.22826 -10.22801 -10.22706
 Alpha  occ. eigenvalues --  -10.22690 -10.22671 -10.22437 -10.22421 -10.22396
 Alpha  occ. eigenvalues --  -10.22177 -10.21980 -10.21832 -10.21634 -10.21597
 Alpha  occ. eigenvalues --  -10.21418  -3.14167  -1.87020  -1.86533  -1.86408
 Alpha  occ. eigenvalues --   -1.11818  -1.11617  -1.03757  -1.03463  -1.02723
 Alpha  occ. eigenvalues --   -1.02690  -1.00886  -0.98649  -0.98271  -0.97377
 Alpha  occ. eigenvalues --   -0.87417  -0.84849  -0.83997  -0.83436  -0.83366
 Alpha  occ. eigenvalues --   -0.82846  -0.82378  -0.82042  -0.81700  -0.81272
 Alpha  occ. eigenvalues --   -0.80495  -0.79654  -0.78395  -0.78014  -0.77260
 Alpha  occ. eigenvalues --   -0.76641  -0.76303  -0.75622  -0.74911  -0.74540
 Alpha  occ. eigenvalues --   -0.74064  -0.72396  -0.72218  -0.71863  -0.70605
 Alpha  occ. eigenvalues --   -0.70419  -0.69619  -0.69615  -0.69099  -0.68411
 Alpha  occ. eigenvalues --   -0.67940  -0.66900  -0.66016  -0.65037  -0.63075
 Alpha  occ. eigenvalues --   -0.62970  -0.62580  -0.61812  -0.61038  -0.60658
 Alpha  occ. eigenvalues --   -0.59983  -0.59509  -0.59345  -0.58573  -0.58245
 Alpha  occ. eigenvalues --   -0.57530  -0.57455  -0.56818  -0.56787  -0.55011
 Alpha  occ. eigenvalues --   -0.54328  -0.54092  -0.53816  -0.53311  -0.52582
 Alpha  occ. eigenvalues --   -0.52428  -0.51891  -0.50796  -0.50430  -0.50349
 Alpha  occ. eigenvalues --   -0.49558  -0.49313  -0.49203  -0.48780  -0.48706
 Alpha  occ. eigenvalues --   -0.48544  -0.48031  -0.47993  -0.47458  -0.47355
 Alpha  occ. eigenvalues --   -0.46992  -0.46765  -0.46707  -0.46526  -0.46192
 Alpha  occ. eigenvalues --   -0.46123  -0.45958  -0.45503  -0.45425  -0.45274
 Alpha  occ. eigenvalues --   -0.44753  -0.44479  -0.44408  -0.44284  -0.44247
 Alpha  occ. eigenvalues --   -0.44122  -0.44094  -0.43773  -0.43586  -0.43346
 Alpha  occ. eigenvalues --   -0.43060  -0.43029  -0.42877  -0.42787  -0.42711
 Alpha  occ. eigenvalues --   -0.42402  -0.42135  -0.41404  -0.41284  -0.41057
 Alpha  occ. eigenvalues --   -0.40932  -0.40861  -0.40787  -0.40631  -0.40275
 Alpha  occ. eigenvalues --   -0.40242  -0.39923  -0.39854  -0.39683  -0.39574
 Alpha  occ. eigenvalues --   -0.39378  -0.39154  -0.39079  -0.38771  -0.38691
 Alpha  occ. eigenvalues --   -0.38622  -0.38469  -0.38204  -0.38085  -0.37932
 Alpha  occ. eigenvalues --   -0.37839  -0.37505  -0.37310  -0.37040  -0.36999
 Alpha  occ. eigenvalues --   -0.36714  -0.36681  -0.36507  -0.36366  -0.36300
 Alpha  occ. eigenvalues --   -0.35858  -0.35833  -0.35575  -0.35263  -0.35088
 Alpha  occ. eigenvalues --   -0.34535  -0.34331  -0.33930  -0.33875  -0.33593
 Alpha  occ. eigenvalues --   -0.33280  -0.33146  -0.32925  -0.32864  -0.32356
 Alpha  occ. eigenvalues --   -0.32182  -0.32083  -0.31588  -0.31301  -0.31251
 Alpha  occ. eigenvalues --   -0.31042  -0.30766  -0.30016  -0.29844  -0.29359
 Alpha  occ. eigenvalues --   -0.29318  -0.28623  -0.28332  -0.26805  -0.26168
 Alpha  occ. eigenvalues --   -0.26137  -0.25773  -0.25683  -0.25282  -0.20643
 Alpha  occ. eigenvalues --   -0.18737
 Alpha virt. eigenvalues --   -0.10994  -0.05001  -0.04305  -0.02395   0.00109
 Alpha virt. eigenvalues --    0.00572   0.01016   0.01646   0.02253   0.02635
 Alpha virt. eigenvalues --    0.03451   0.04286   0.04528   0.05262   0.05926

 Mulliken charges:
               1
     1  Mg   0.986583
     2  C    0.007712
     3  C   -0.048508
     4  C   -0.077403
     5  C   -0.068779
     6  N   -0.379780
     7  C    0.031452
     8  C   -0.126444
     9  C   -0.135625
    10  C    0.073540
    11  C    0.003551
    12  C   -0.015286
    13  C    0.011199
    14  C    0.197454
    15  O   -0.264047
    16  O   -0.361856
    17  N   -0.472088
    18  C    0.166206
    19  C   -0.181881
    20  C   -0.096963
    21  C    0.159547
    22  C    0.041359
    23  C    0.082530
    24  O   -0.254754
    25  C   -0.030763
    26  N   -0.338478
    27  C    0.074948
    28  C   -0.154529
    29  C   -0.076869
    30  C    0.001682
    31  C    0.012892
    32  C   -0.014626
    33  C   -0.076609
    34  N   -0.487487
    35  C    0.193529
    36  C   -0.225271
    37  C   -0.038582
    38  C    0.145426
    39  C    0.079206
    40  C    0.180867
    41  O   -0.235773
    42  C   -0.133609
    43  C    0.269689
    44  O   -0.253273
    45  O   -0.353770
    46  C    0.117737
    47  C    0.213226
    48  C   -0.113599
    49  C   -0.204234
    50  C    0.023103
    51  C   -0.018889
    52  C   -0.048642
    53  C    0.008757
    54  C   -0.220016
    55  C   -0.007363
    56  C   -0.012347
    57  C   -0.077704
    58  C    0.036749
    59  C   -0.256089
    60  C    0.011417
    61  C   -0.001864
    62  C   -0.082709
    63  C    0.014262
    64  C   -0.265274
    65  C    0.012481
    66  C   -0.016117
    67  H   -0.003185
    68  H    0.022589
    69  H   -0.003536
    70  H    0.078674
    71  H    0.056680
    72  H    0.044353
    73  H    0.048219
    74  H    0.054021
    75  H    0.046323
    76  H    0.065824
    77  H    0.051559
    78  H    0.065849
    79  H    0.064308
    80  H    0.060000
    81  H    0.047796
    82  H    0.058901
    83  H    0.058057
    84  H    0.055595
    85  H    0.049266
    86  H    0.042535
    87  H    0.036733
    88  H    0.057142
    89  H    0.044373
    90  H    0.043098
    91  H    0.050183
    92  H    0.049341
    93  H    0.045665
    94  H    0.039723
    95  H    0.035015
    96  H    0.064773
    97  H    0.063138
    98  H    0.103091
    99  H    0.077930
   100  H    0.042454
   101  H    0.064326
   102  H    0.080551
   103  H    0.048193
   104  H    0.013760
   105  H    0.054932
   106  H    0.052514
   107  H    0.029513
   108  H    0.030683
   109  H    0.043017
   110  H    0.040219
   111  H    0.044360
   112  H    0.027941
   113  H    0.027044
   114  H    0.041264
   115  H    0.027103
   116  H    0.026686
   117  H    0.030337
   118  H    0.024674
   119  H    0.020097
   120  H    0.038419
   121  H    0.031579
   122  H    0.021366
   123  H    0.022398
   124  H    0.039190
   125  H    0.022838
   126  H    0.041205
   127  H    0.032558
   128  H    0.030042
   129  H    0.027372
   130  H    0.010983
   131  H    0.014544
   132  H    0.032083
   133  H    0.025203
   134  H    0.042081
   135  H    0.030805
   136  H    0.046717
   137  H    0.032872
   138  H    0.020316
   139  H    0.036774
   140  H    0.027750
 Sum of Mulliken charges =  -0.00000

 Dipole moment (field-independent basis, Debye):
    X=             -3.3861    Y=              4.2350    Z=             -0.5407  Tot=              5.4491
 Quadrupole moment (field-independent basis, Debye-Ang):
   XX=           -379.6318   YY=           -415.5739   ZZ=           -405.9712
   XY=              4.2497   XZ=             18.9793   YZ=             -1.3324

 Normal termination of Gaussian 16 at Thu May  5 10:57:19 2022.
