 Gaussian 16, Revision A.03,
 Gaussian 16:  ES64L-G16RevA.03 25-Dec-2016

 --------------------------------
 #p wB97XD/Def2SVP td=(nstates=5)
 --------------------------------

 ---------------------------------------------------
 step_801_chromophore_7 TDDFT with wB97XD functional
 ---------------------------------------------------
 Symbolic Z-matrix:
 Charge =  0 Multiplicity = 1

                         Standard orientation:
 ---------------------------------------------------------------------
 Center     Atomic      Atomic             Coordinates (Angstroms)
 Number     Number       Type             X           Y           Z
 ---------------------------------------------------------------------
      1         12           0        6.408559    0.415799    0.020811
      2          6           0        3.980102   -2.122575   -0.120995
      3          6           0        4.085300    2.589214   -1.274598
      4          6           0        8.796974    2.596257   -0.200329
      5          6           0        8.678069   -1.943671    1.221567
      6          7           0        4.246724    0.286226   -0.508158
      7          6           0        3.444842   -0.858998   -0.428477
      8          6           0        2.003401   -0.645281   -0.977784
      9          6           0        2.142971    0.913835   -1.455049
     10          6           0        3.585803    1.264830   -1.133038
     11          6           0        1.831244    1.093821   -2.995452
     12          6           0        0.967151   -0.842851    0.197122
     13          6           0       -0.444569   -0.257162    0.163460
     14          6           0       -1.587501   -1.116936    0.671653
     15          8           0       -1.570966   -1.846342    1.656833
     16          8           0       -2.654087   -1.100934   -0.204019
     17          7           0        6.504018    2.386462   -0.618883
     18          6           0        5.377677    3.137561   -0.916920
     19          6           0        5.755916    4.551513   -0.960524
     20          6           0        7.198980    4.612297   -0.772814
     21          6           0        7.569615    3.144210   -0.635887
     22          6           0        4.767162    5.640653   -1.342291
     23          6           0        8.111801    5.836556   -0.554144
     24          8           0        9.264504    5.706693   -0.104139
     25          6           0        7.609578    7.244476   -0.858841
     26          7           0        8.489478    0.275374    0.366078
     27          6           0        9.245017    1.335352    0.237444
     28          6           0       10.670382    1.035401    0.789778
     29          6           0       10.477246   -0.293755    1.605205
     30          6           0        9.118005   -0.661226    1.029108
     31          6           0       11.766538    0.957199   -0.365964
     32          6           0       10.381153    0.009387    3.127184
     33          6           0       11.595351   -0.490657    3.976339
     34          7           0        6.400348   -1.571045    0.495021
     35          6           0        7.385922   -2.431007    0.893291
     36          6           0        6.906229   -3.781101    0.859498
     37          6           0        5.573496   -3.737995    0.446648
     38          6           0        5.294687   -2.363622    0.292156
     39          6           0        7.624057   -5.029984    1.116800
     40          6           0        4.323448   -4.521576    0.268448
     41          8           0        4.092288   -5.728280    0.481313
     42          6           0        3.238787   -3.444222   -0.001695
     43          6           0        2.499314   -3.882992   -1.208581
     44          8           0        2.821457   -3.814527   -2.379244
     45          8           0        1.284203   -4.338084   -0.808974
     46          6           0        0.441560   -4.935069   -1.838171
     47          6           0       -3.868754   -1.629911    0.395695
     48          6           0       -5.151512   -0.932436    0.057071
     49          6           0       -6.339760   -1.386781   -0.202084
     50          6           0       -6.798499   -2.869265   -0.065948
     51          6           0       -7.442345   -0.435863   -0.585645
     52          6           0       -8.455245   -0.884062   -1.714105
     53          6           0       -9.114129    0.329302   -2.386822
     54          6           0      -10.602336    0.052681   -2.712105
     55          6           0      -11.109086    0.886030   -3.879349
     56          6           0      -11.486127    0.423247   -1.413669
     57          6           0      -12.316293   -0.737912   -0.783170
     58          6           0      -13.885817   -0.626569   -1.034197
     59          6           0      -14.574802   -0.241656    0.255292
     60          6           0      -15.619425   -1.179300    0.748737
     61          6           0      -15.098736    1.245309    0.270878
     62          6           0      -15.338625    1.689249    1.786249
     63          6           0      -14.580900    2.915995    2.340354
     64          6           0      -13.295100    2.527932    3.123339
     65          6           0      -13.625886    2.205121    4.579346
     66          6           0      -12.297847    3.717310    3.098627
     67          1           0        3.311709    3.281274   -1.611809
     68          1           0        9.587264    3.342176   -0.093743
     69          1           0        9.473617   -2.538984    1.673708
     70          1           0        1.867232   -1.406548   -1.746469
     71          1           0        1.433737    1.519823   -0.890872
     72          1           0        1.090202    1.874451   -3.168438
     73          1           0        1.451495    0.155496   -3.399466
     74          1           0        2.769013    1.315626   -3.504682
     75          1           0        1.450782   -0.625948    1.149110
     76          1           0        0.808994   -1.918434    0.274128
     77          1           0       -0.733092    0.118650   -0.817240
     78          1           0       -0.519496    0.623245    0.801462
     79          1           0        5.236211    6.096530   -2.214289
     80          1           0        4.691718    6.334841   -0.506298
     81          1           0        3.759399    5.355615   -1.643183
     82          1           0        8.388461    8.002061   -0.778481
     83          1           0        6.830009    7.512597   -0.144820
     84          1           0        7.146658    7.352192   -1.839781
     85          1           0       10.968471    1.916891    1.357729
     86          1           0       11.204126   -1.041513    1.290851
     87          1           0       12.356476    0.040338   -0.345943
     88          1           0       12.352495    1.869734   -0.266913
     89          1           0       11.303035    0.886410   -1.350440
     90          1           0        9.576637   -0.580788    3.566360
     91          1           0       10.194701    1.061870    3.342305
     92          1           0       11.255781   -1.427121    4.419591
     93          1           0       11.865298    0.270106    4.709075
     94          1           0       12.508191   -0.660211    3.405829
     95          1           0        8.679306   -4.927863    1.371306
     96          1           0        7.508268   -5.589446    0.188912
     97          1           0        7.054142   -5.548390    1.887146
     98          1           0        2.517853   -3.366794    0.812861
     99          1           0        0.835720   -5.268006   -2.798359
    100          1           0       -0.292360   -4.169637   -2.090449
    101          1           0       -0.090330   -5.720845   -1.301478
    102          1           0       -3.867138   -1.872636    1.458494
    103          1           0       -3.752622   -2.585921   -0.113198
    104          1           0       -5.103354    0.155191   -0.000671
    105          1           0       -6.985231   -3.327205   -1.037360
    106          1           0       -7.648627   -3.014191    0.600080
    107          1           0       -5.943520   -3.378292    0.379661
    108          1           0       -7.001122    0.522735   -0.858772
    109          1           0       -8.007950   -0.245294    0.325955
    110          1           0       -9.263335   -1.400940   -1.196541
    111          1           0       -7.970092   -1.445857   -2.511314
    112          1           0       -8.616525    0.647429   -3.303038
    113          1           0       -9.059261    1.131549   -1.650875
    114          1           0      -10.751984   -0.988356   -2.996613
    115          1           0      -10.486849    1.624333   -4.386771
    116          1           0      -11.974105    1.480180   -3.585824
    117          1           0      -11.379667    0.218249   -4.697308
    118          1           0      -12.049792    1.329209   -1.638364
    119          1           0      -10.913030    0.773530   -0.554776
    120          1           0      -12.001904   -0.893598    0.248506
    121          1           0      -12.108290   -1.653853   -1.336236
    122          1           0      -14.321381   -1.505867   -1.508628
    123          1           0      -14.070965    0.202593   -1.716776
    124          1           0      -13.797852   -0.208594    1.018902
    125          1           0      -16.614115   -0.772400    0.567148
    126          1           0      -15.393501   -1.253006    1.812573
    127          1           0      -15.733884   -2.166785    0.302875
    128          1           0      -16.095652    1.243033   -0.170719
    129          1           0      -14.458752    1.978385   -0.218524
    130          1           0      -15.229580    0.837265    2.457803
    131          1           0      -16.424487    1.765997    1.847796
    132          1           0      -15.295697    3.428763    2.984413
    133          1           0      -14.285869    3.530083    1.488740
    134          1           0      -12.864407    1.681705    2.588659
    135          1           0      -14.543814    2.752542    4.793498
    136          1           0      -12.785573    2.469122    5.220572
    137          1           0      -13.912944    1.153054    4.587512
    138          1           0      -11.327635    3.340413    2.775953
    139          1           0      -12.050681    4.187130    4.050868
    140          1           0      -12.523314    4.442178    2.316956
 ---------------------------------------------------------------------

 SCF Done:  E(RwB97XD) =  -3007.85502213     A.U. after   20 cycles

 Excitation energies and oscillator strengths:

 Excited State   1:      Singlet-A      1.6762 eV  739.68 nm  f=0.3769  <S**2>=0.000
     245 -> 248        0.19267
     246 -> 247        0.68131
     245 <- 248        0.11712
 This state for optimization and/or second-order correction.
 Total Energy, E(TD-HF/TD-DFT) =  -3007.79342354
 Copying the excited state density for this state as the 1-particle RhoCI density.

 Excited State   2:      Singlet-A      2.1617 eV  573.54 nm  f=0.1286  <S**2>=0.000
     245 -> 247        0.64361
     246 -> 248       -0.28093

 Excited State   3:      Singlet-A      3.5068 eV  353.55 nm  f=0.1314  <S**2>=0.000
     243 -> 247        0.47077
     244 -> 247       -0.37415
     245 -> 247        0.12189
     246 -> 248        0.31972

 Excited State   4:      Singlet-A      3.5468 eV  349.57 nm  f=0.2246  <S**2>=0.000
     244 -> 247        0.49634
     245 -> 247        0.15630
     246 -> 248        0.43701

 Excited State   5:      Singlet-A      3.6777 eV  337.13 nm  f=0.0003  <S**2>=0.000
     239 -> 247        0.45277
     239 -> 248       -0.11110
     239 -> 249        0.33521
     239 -> 250       -0.22434
     240 -> 247        0.23226
     240 -> 249        0.13838
     240 -> 250       -0.10223

 The electronic state is 1-A.
 Alpha  occ. eigenvalues --  -46.94927 -19.30563 -19.30374 -19.24958 -19.24584
 Alpha  occ. eigenvalues --  -19.24392 -19.24356 -14.47115 -14.45738 -14.44439
 Alpha  occ. eigenvalues --  -14.43723 -10.43499 -10.42951 -10.40224 -10.39755
 Alpha  occ. eigenvalues --  -10.35437 -10.35257 -10.35092 -10.35037 -10.34897
 Alpha  occ. eigenvalues --  -10.34764 -10.34579 -10.33888 -10.33218 -10.33140
 Alpha  occ. eigenvalues --  -10.33109 -10.32877 -10.32682 -10.32408 -10.32307
 Alpha  occ. eigenvalues --  -10.32017 -10.31821 -10.31744 -10.31644 -10.31637
 Alpha  occ. eigenvalues --  -10.31537 -10.31231 -10.31024 -10.30632 -10.30596
 Alpha  occ. eigenvalues --  -10.30300 -10.30184 -10.30160 -10.29905 -10.29827
 Alpha  occ. eigenvalues --  -10.29696 -10.29618 -10.29611 -10.29598 -10.29598
 Alpha  occ. eigenvalues --  -10.29244 -10.29238 -10.29167 -10.29130 -10.29039
 Alpha  occ. eigenvalues --  -10.28954 -10.28829 -10.28805 -10.28780 -10.28667
 Alpha  occ. eigenvalues --  -10.28532 -10.28335 -10.28260 -10.28044 -10.28013
 Alpha  occ. eigenvalues --  -10.27854  -3.20951  -1.94555  -1.94069  -1.93943
 Alpha  occ. eigenvalues --   -1.19191  -1.18966  -1.11410  -1.10877  -1.10047
 Alpha  occ. eigenvalues --   -1.10042  -1.08204  -1.06120  -1.05582  -1.04701
 Alpha  occ. eigenvalues --   -0.94962  -0.92521  -0.91661  -0.91037  -0.90984
 Alpha  occ. eigenvalues --   -0.90507  -0.90058  -0.89694  -0.89212  -0.88925
 Alpha  occ. eigenvalues --   -0.88131  -0.87320  -0.86033  -0.85642  -0.84902
 Alpha  occ. eigenvalues --   -0.84267  -0.83976  -0.83423  -0.82560  -0.82189
 Alpha  occ. eigenvalues --   -0.81702  -0.80216  -0.79829  -0.79434  -0.78216
 Alpha  occ. eigenvalues --   -0.78049  -0.77310  -0.77193  -0.76768  -0.76074
 Alpha  occ. eigenvalues --   -0.75536  -0.74377  -0.73595  -0.72604  -0.70560
 Alpha  occ. eigenvalues --   -0.70527  -0.70200  -0.69435  -0.68652  -0.68124
 Alpha  occ. eigenvalues --   -0.67518  -0.67045  -0.66895  -0.65989  -0.65918
 Alpha  occ. eigenvalues --   -0.65120  -0.64967  -0.64428  -0.64190  -0.62565
 Alpha  occ. eigenvalues --   -0.61842  -0.61513  -0.61269  -0.60722  -0.59972
 Alpha  occ. eigenvalues --   -0.59856  -0.59352  -0.58293  -0.57820  -0.57746
 Alpha  occ. eigenvalues --   -0.56948  -0.56752  -0.56578  -0.56177  -0.56145
 Alpha  occ. eigenvalues --   -0.55947  -0.55380  -0.55281  -0.54831  -0.54691
 Alpha  occ. eigenvalues --   -0.54506  -0.54280  -0.54076  -0.53938  -0.53582
 Alpha  occ. eigenvalues --   -0.53511  -0.53208  -0.52803  -0.52769  -0.52572
 Alpha  occ. eigenvalues --   -0.52112  -0.51863  -0.51781  -0.51719  -0.51580
 Alpha  occ. eigenvalues --   -0.51484  -0.51443  -0.51104  -0.50915  -0.50672
 Alpha  occ. eigenvalues --   -0.50417  -0.50274  -0.50164  -0.50078  -0.49996
 Alpha  occ. eigenvalues --   -0.49613  -0.49484  -0.48640  -0.48543  -0.48262
 Alpha  occ. eigenvalues --   -0.48162  -0.48015  -0.47968  -0.47831  -0.47495
 Alpha  occ. eigenvalues --   -0.47381  -0.47098  -0.46969  -0.46875  -0.46772
 Alpha  occ. eigenvalues --   -0.46584  -0.46298  -0.46222  -0.45980  -0.45868
 Alpha  occ. eigenvalues --   -0.45797  -0.45583  -0.45374  -0.45211  -0.45043
 Alpha  occ. eigenvalues --   -0.44935  -0.44612  -0.44407  -0.44187  -0.44165
 Alpha  occ. eigenvalues --   -0.43903  -0.43834  -0.43577  -0.43371  -0.43296
 Alpha  occ. eigenvalues --   -0.42954  -0.42881  -0.42672  -0.42312  -0.42155
 Alpha  occ. eigenvalues --   -0.41621  -0.41261  -0.40978  -0.40861  -0.40678
 Alpha  occ. eigenvalues --   -0.40220  -0.40186  -0.39903  -0.39852  -0.39340
 Alpha  occ. eigenvalues --   -0.39152  -0.39046  -0.38491  -0.38296  -0.38280
 Alpha  occ. eigenvalues --   -0.38018  -0.37769  -0.36980  -0.36655  -0.36453
 Alpha  occ. eigenvalues --   -0.36354  -0.35340  -0.35208  -0.33493  -0.33367
 Alpha  occ. eigenvalues --   -0.33169  -0.32541  -0.32390  -0.31684  -0.25600
 Alpha  occ. eigenvalues --   -0.22942
 Alpha virt. eigenvalues --   -0.06849   0.00445   0.01975   0.04032   0.06460
 Alpha virt. eigenvalues --    0.07000   0.07814   0.08231   0.08976   0.09028
 Alpha virt. eigenvalues --    0.09959   0.10948   0.11421   0.12015   0.12624

 Mulliken charges:
               1
     1  Mg   0.975794
     2  C   -0.000745
     3  C   -0.067295
     4  C   -0.089213
     5  C   -0.091397
     6  N   -0.344744
     7  C   -0.004867
     8  C   -0.096542
     9  C   -0.113993
    10  C    0.063530
    11  C    0.013992
    12  C   -0.001110
    13  C    0.024924
    14  C    0.189464
    15  O   -0.261901
    16  O   -0.361424
    17  N   -0.440503
    18  C    0.161499
    19  C   -0.169653
    20  C   -0.094019
    21  C    0.147881
    22  C    0.054556
    23  C    0.081049
    24  O   -0.248315
    25  C   -0.020558
    26  N   -0.302092
    27  C    0.061265
    28  C   -0.129298
    29  C   -0.048127
    30  C   -0.012470
    31  C    0.020948
    32  C   -0.004496
    33  C   -0.060999
    34  N   -0.450135
    35  C    0.184477
    36  C   -0.216913
    37  C   -0.042376
    38  C    0.134719
    39  C    0.089394
    40  C    0.162891
    41  O   -0.226467
    42  C   -0.089960
    43  C    0.242459
    44  O   -0.246071
    45  O   -0.350848
    46  C    0.132664
    47  C    0.225296
    48  C   -0.119343
    49  C   -0.194877
    50  C    0.036554
    51  C    0.002041
    52  C   -0.031396
    53  C    0.025576
    54  C   -0.189187
    55  C    0.002311
    56  C    0.001118
    57  C   -0.057358
    58  C    0.048564
    59  C   -0.212026
    60  C    0.018807
    61  C    0.011962
    62  C   -0.064057
    63  C    0.031860
    64  C   -0.232511
    65  C    0.024674
    66  C   -0.005113
    67  H   -0.011202
    68  H    0.016066
    69  H   -0.008986
    70  H    0.066480
    71  H    0.046612
    72  H    0.039517
    73  H    0.043256
    74  H    0.047451
    75  H    0.040226
    76  H    0.049182
    77  H    0.045371
    78  H    0.059759
    79  H    0.058151
    80  H    0.055279
    81  H    0.045892
    82  H    0.058745
    83  H    0.052754
    84  H    0.050811
    85  H    0.039397
    86  H    0.032729
    87  H    0.031452
    88  H    0.052402
    89  H    0.038359
    90  H    0.033616
    91  H    0.042612
    92  H    0.043498
    93  H    0.039966
    94  H    0.032955
    95  H    0.029647
    96  H    0.058676
    97  H    0.057632
    98  H    0.096994
    99  H    0.074656
   100  H    0.037572
   101  H    0.060888
   102  H    0.076597
   103  H    0.042673
   104  H    0.010625
   105  H    0.049564
   106  H    0.048069
   107  H    0.022860
   108  H    0.021166
   109  H    0.034256
   110  H    0.026869
   111  H    0.037070
   112  H    0.020741
   113  H    0.014762
   114  H    0.029432
   115  H    0.021843
   116  H    0.019769
   117  H    0.025101
   118  H    0.012910
   119  H    0.010420
   120  H    0.031859
   121  H    0.021839
   122  H    0.015416
   123  H    0.009988
   124  H    0.015119
   125  H    0.015692
   126  H    0.035884
   127  H    0.027978
   128  H    0.020235
   129  H    0.017878
   130  H   -0.005553
   131  H    0.007382
   132  H    0.023607
   133  H    0.014812
   134  H    0.028368
   135  H    0.023267
   136  H    0.041329
   137  H    0.026931
   138  H    0.014152
   139  H    0.031128
   140  H    0.021684
 Sum of Mulliken charges =  -0.00000

 Dipole moment (field-independent basis, Debye):
    X=             -3.4641    Y=              4.7717    Z=             -0.6843  Tot=              5.9361
 Quadrupole moment (field-independent basis, Debye-Ang):
   XX=           -381.0668   YY=           -413.2338   ZZ=           -405.7092
   XY=              7.9125   XZ=             17.8344   YZ=             -1.5048

 Normal termination of Gaussian 16 at Thu May  5 11:42:39 2022.
