 Gaussian 16, Revision A.03,
 Gaussian 16:  ES64L-G16RevA.03 25-Dec-2016

 --------------------
 #p ZINDO=(nstates=5)
 --------------------

 ----------------------------
 step_801_chromophore_7 ZINDO
 ----------------------------
 Symbolic Z-matrix:
 Charge =  0 Multiplicity = 1

                         Standard orientation:
 ---------------------------------------------------------------------
 Center     Atomic      Atomic             Coordinates (Angstroms)
 Number     Number       Type             X           Y           Z
 ---------------------------------------------------------------------
      1         12           0        6.408559    0.415799    0.020811
      2          6           0        3.980102   -2.122575   -0.120995
      3          6           0        4.085300    2.589214   -1.274598
      4          6           0        8.796974    2.596257   -0.200329
      5          6           0        8.678069   -1.943671    1.221567
      6          7           0        4.246724    0.286226   -0.508158
      7          6           0        3.444842   -0.858998   -0.428477
      8          6           0        2.003401   -0.645281   -0.977784
      9          6           0        2.142971    0.913835   -1.455049
     10          6           0        3.585803    1.264830   -1.133038
     11          6           0        1.831244    1.093821   -2.995452
     12          6           0        0.967151   -0.842851    0.197122
     13          6           0       -0.444569   -0.257162    0.163460
     14          6           0       -1.587501   -1.116936    0.671653
     15          8           0       -1.570966   -1.846342    1.656833
     16          8           0       -2.654087   -1.100934   -0.204019
     17          7           0        6.504018    2.386462   -0.618883
     18          6           0        5.377677    3.137561   -0.916920
     19          6           0        5.755916    4.551513   -0.960524
     20          6           0        7.198980    4.612297   -0.772814
     21          6           0        7.569615    3.144210   -0.635887
     22          6           0        4.767162    5.640653   -1.342291
     23          6           0        8.111801    5.836556   -0.554144
     24          8           0        9.264504    5.706693   -0.104139
     25          6           0        7.609578    7.244476   -0.858841
     26          7           0        8.489478    0.275374    0.366078
     27          6           0        9.245017    1.335352    0.237444
     28          6           0       10.670382    1.035401    0.789778
     29          6           0       10.477246   -0.293755    1.605205
     30          6           0        9.118005   -0.661226    1.029108
     31          6           0       11.766538    0.957199   -0.365964
     32          6           0       10.381153    0.009387    3.127184
     33          6           0       11.595351   -0.490657    3.976339
     34          7           0        6.400348   -1.571045    0.495021
     35          6           0        7.385922   -2.431007    0.893291
     36          6           0        6.906229   -3.781101    0.859498
     37          6           0        5.573496   -3.737995    0.446648
     38          6           0        5.294687   -2.363622    0.292156
     39          6           0        7.624057   -5.029984    1.116800
     40          6           0        4.323448   -4.521576    0.268448
     41          8           0        4.092288   -5.728280    0.481313
     42          6           0        3.238787   -3.444222   -0.001695
     43          6           0        2.499314   -3.882992   -1.208581
     44          8           0        2.821457   -3.814527   -2.379244
     45          8           0        1.284203   -4.338084   -0.808974
     46          6           0        0.441560   -4.935069   -1.838171
     47          6           0       -3.868754   -1.629911    0.395695
     48          6           0       -5.151512   -0.932436    0.057071
     49          6           0       -6.339760   -1.386781   -0.202084
     50          6           0       -6.798499   -2.869265   -0.065948
     51          6           0       -7.442345   -0.435863   -0.585645
     52          6           0       -8.455245   -0.884062   -1.714105
     53          6           0       -9.114129    0.329302   -2.386822
     54          6           0      -10.602336    0.052681   -2.712105
     55          6           0      -11.109086    0.886030   -3.879349
     56          6           0      -11.486127    0.423247   -1.413669
     57          6           0      -12.316293   -0.737912   -0.783170
     58          6           0      -13.885817   -0.626569   -1.034197
     59          6           0      -14.574802   -0.241656    0.255292
     60          6           0      -15.619425   -1.179300    0.748737
     61          6           0      -15.098736    1.245309    0.270878
     62          6           0      -15.338625    1.689249    1.786249
     63          6           0      -14.580900    2.915995    2.340354
     64          6           0      -13.295100    2.527932    3.123339
     65          6           0      -13.625886    2.205121    4.579346
     66          6           0      -12.297847    3.717310    3.098627
     67          1           0        3.311709    3.281274   -1.611809
     68          1           0        9.587264    3.342176   -0.093743
     69          1           0        9.473617   -2.538984    1.673708
     70          1           0        1.867232   -1.406548   -1.746469
     71          1           0        1.433737    1.519823   -0.890872
     72          1           0        1.090202    1.874451   -3.168438
     73          1           0        1.451495    0.155496   -3.399466
     74          1           0        2.769013    1.315626   -3.504682
     75          1           0        1.450782   -0.625948    1.149110
     76          1           0        0.808994   -1.918434    0.274128
     77          1           0       -0.733092    0.118650   -0.817240
     78          1           0       -0.519496    0.623245    0.801462
     79          1           0        5.236211    6.096530   -2.214289
     80          1           0        4.691718    6.334841   -0.506298
     81          1           0        3.759399    5.355615   -1.643183
     82          1           0        8.388461    8.002061   -0.778481
     83          1           0        6.830009    7.512597   -0.144820
     84          1           0        7.146658    7.352192   -1.839781
     85          1           0       10.968471    1.916891    1.357729
     86          1           0       11.204126   -1.041513    1.290851
     87          1           0       12.356476    0.040338   -0.345943
     88          1           0       12.352495    1.869734   -0.266913
     89          1           0       11.303035    0.886410   -1.350440
     90          1           0        9.576637   -0.580788    3.566360
     91          1           0       10.194701    1.061870    3.342305
     92          1           0       11.255781   -1.427121    4.419591
     93          1           0       11.865298    0.270106    4.709075
     94          1           0       12.508191   -0.660211    3.405829
     95          1           0        8.679306   -4.927863    1.371306
     96          1           0        7.508268   -5.589446    0.188912
     97          1           0        7.054142   -5.548390    1.887146
     98          1           0        2.517853   -3.366794    0.812861
     99          1           0        0.835720   -5.268006   -2.798359
    100          1           0       -0.292360   -4.169637   -2.090449
    101          1           0       -0.090330   -5.720845   -1.301478
    102          1           0       -3.867138   -1.872636    1.458494
    103          1           0       -3.752622   -2.585921   -0.113198
    104          1           0       -5.103354    0.155191   -0.000671
    105          1           0       -6.985231   -3.327205   -1.037360
    106          1           0       -7.648627   -3.014191    0.600080
    107          1           0       -5.943520   -3.378292    0.379661
    108          1           0       -7.001122    0.522735   -0.858772
    109          1           0       -8.007950   -0.245294    0.325955
    110          1           0       -9.263335   -1.400940   -1.196541
    111          1           0       -7.970092   -1.445857   -2.511314
    112          1           0       -8.616525    0.647429   -3.303038
    113          1           0       -9.059261    1.131549   -1.650875
    114          1           0      -10.751984   -0.988356   -2.996613
    115          1           0      -10.486849    1.624333   -4.386771
    116          1           0      -11.974105    1.480180   -3.585824
    117          1           0      -11.379667    0.218249   -4.697308
    118          1           0      -12.049792    1.329209   -1.638364
    119          1           0      -10.913030    0.773530   -0.554776
    120          1           0      -12.001904   -0.893598    0.248506
    121          1           0      -12.108290   -1.653853   -1.336236
    122          1           0      -14.321381   -1.505867   -1.508628
    123          1           0      -14.070965    0.202593   -1.716776
    124          1           0      -13.797852   -0.208594    1.018902
    125          1           0      -16.614115   -0.772400    0.567148
    126          1           0      -15.393501   -1.253006    1.812573
    127          1           0      -15.733884   -2.166785    0.302875
    128          1           0      -16.095652    1.243033   -0.170719
    129          1           0      -14.458752    1.978385   -0.218524
    130          1           0      -15.229580    0.837265    2.457803
    131          1           0      -16.424487    1.765997    1.847796
    132          1           0      -15.295697    3.428763    2.984413
    133          1           0      -14.285869    3.530083    1.488740
    134          1           0      -12.864407    1.681705    2.588659
    135          1           0      -14.543814    2.752542    4.793498
    136          1           0      -12.785573    2.469122    5.220572
    137          1           0      -13.912944    1.153054    4.587512
    138          1           0      -11.327635    3.340413    2.775953
    139          1           0      -12.050681    4.187130    4.050868
    140          1           0      -12.523314    4.442178    2.316956
 ---------------------------------------------------------------------

 SCF Done:  E(RZINDO/S) =  -474.326235603     A.U. after   19 cycles

 Excitation energies and oscillator strengths:

 Excited State   1:      Singlet-A      1.2686 eV  977.34 nm  f=0.5733  <S**2>=0.000
     175 ->178        -0.19569
     176 ->177         0.66070
 This state for optimization and/or second-order correction.
 Total Energy, E(CIS/TDA) =  -474.279615828
 Copying the excited state density for this state as the 1-particle RhoCI density.

 Excited State   2:      Singlet-A      1.8955 eV  654.10 nm  f=0.0519  <S**2>=0.000
     175 ->177         0.54890
     176 ->178         0.41734

 Excited State   3:      Singlet-A      2.9290 eV  423.29 nm  f=0.4086  <S**2>=0.000
     175 ->177        -0.25178
     176 ->178         0.40032
     176 ->179         0.43172
     176 ->180         0.16186

 Excited State   4:      Singlet-A      3.0237 eV  410.04 nm  f=0.1434  <S**2>=0.000
     168 ->177        -0.26876
     168 ->179         0.37255
     168 ->180        -0.26672
     168 ->185         0.19759
     175 ->177        -0.14274
     176 ->178         0.17884
     176 ->179        -0.19919

 Excited State   5:      Singlet-A      3.0342 eV  408.62 nm  f=0.2202  <S**2>=0.000
     168 ->179         0.10674
     169 ->177         0.24413
     169 ->178         0.20602
     169 ->179         0.27516
     169 ->180         0.31824
     169 ->185         0.17875
     175 ->177         0.15542
     176 ->178        -0.20499

 The electronic state is 1-A.
 Alpha  occ. eigenvalues --   -1.86063  -1.82764  -1.79704  -1.74412  -1.73541
 Alpha  occ. eigenvalues --   -1.70503  -1.65581  -1.61352  -1.57559  -1.56626
 Alpha  occ. eigenvalues --   -1.55563  -1.52095  -1.48490  -1.47426  -1.46519
 Alpha  occ. eigenvalues --   -1.43778  -1.42695  -1.40372  -1.38478  -1.38271
 Alpha  occ. eigenvalues --   -1.35467  -1.34388  -1.32757  -1.31094  -1.29666
 Alpha  occ. eigenvalues --   -1.27279  -1.24715  -1.22661  -1.21185  -1.18763
 Alpha  occ. eigenvalues --   -1.17118  -1.16581  -1.15934  -1.14985  -1.14131
 Alpha  occ. eigenvalues --   -1.12679  -1.10938  -1.10584  -1.04987  -1.03351
 Alpha  occ. eigenvalues --   -1.03016  -1.00692  -0.99062  -0.97877  -0.96462
 Alpha  occ. eigenvalues --   -0.95478  -0.94221  -0.93627  -0.92957  -0.92257
 Alpha  occ. eigenvalues --   -0.90620  -0.89842  -0.88810  -0.87625  -0.86933
 Alpha  occ. eigenvalues --   -0.86179  -0.83290  -0.82219  -0.82001  -0.80402
 Alpha  occ. eigenvalues --   -0.80212  -0.79592  -0.77520  -0.77320  -0.76551
 Alpha  occ. eigenvalues --   -0.76196  -0.75217  -0.74178  -0.73485  -0.73290
 Alpha  occ. eigenvalues --   -0.73003  -0.72179  -0.72042  -0.71009  -0.70871
 Alpha  occ. eigenvalues --   -0.70585  -0.70064  -0.69028  -0.68624  -0.68281
 Alpha  occ. eigenvalues --   -0.67528  -0.67349  -0.66661  -0.66327  -0.65645
 Alpha  occ. eigenvalues --   -0.65456  -0.64747  -0.64368  -0.64120  -0.63572
 Alpha  occ. eigenvalues --   -0.63321  -0.62910  -0.62450  -0.62141  -0.61938
 Alpha  occ. eigenvalues --   -0.61880  -0.61194  -0.60794  -0.60436  -0.59987
 Alpha  occ. eigenvalues --   -0.59693  -0.59174  -0.59070  -0.58217  -0.58113
 Alpha  occ. eigenvalues --   -0.57795  -0.57366  -0.57081  -0.56450  -0.56176
 Alpha  occ. eigenvalues --   -0.55949  -0.55661  -0.55304  -0.55147  -0.54794
 Alpha  occ. eigenvalues --   -0.54589  -0.54452  -0.53590  -0.52999  -0.52582
 Alpha  occ. eigenvalues --   -0.52315  -0.52225  -0.52096  -0.51766  -0.51473
 Alpha  occ. eigenvalues --   -0.51354  -0.51123  -0.50600  -0.50456  -0.50017
 Alpha  occ. eigenvalues --   -0.49959  -0.49615  -0.49437  -0.48975  -0.48749
 Alpha  occ. eigenvalues --   -0.48617  -0.48481  -0.48259  -0.48090  -0.47365
 Alpha  occ. eigenvalues --   -0.47340  -0.47196  -0.46748  -0.46332  -0.46171
 Alpha  occ. eigenvalues --   -0.46143  -0.46022  -0.45928  -0.45753  -0.45435
 Alpha  occ. eigenvalues --   -0.45109  -0.44718  -0.44694  -0.44475  -0.44364
 Alpha  occ. eigenvalues --   -0.43840  -0.43560  -0.42593  -0.42149  -0.41780
 Alpha  occ. eigenvalues --   -0.41445  -0.41012  -0.40917  -0.39008  -0.38926
 Alpha  occ. eigenvalues --   -0.38066  -0.37174  -0.36148  -0.35345  -0.34666
 Alpha  occ. eigenvalues --   -0.33148  -0.33078  -0.32564  -0.32026  -0.26317
 Alpha  occ. eigenvalues --   -0.21809
 Alpha virt. eigenvalues --   -0.08352  -0.02103  -0.00779   0.00937   0.01585
 Alpha virt. eigenvalues --    0.03027   0.03123   0.03340   0.04454   0.05580
 Alpha virt. eigenvalues --    0.05935   0.06339   0.06795   0.07714   0.07786

 Mulliken charges:
               1
     1  Mg   0.430717
     2  C   -0.033539
     3  C   -0.094872
     4  C   -0.073325
     5  C   -0.074467
     6  N   -0.278670
     7  C    0.088886
     8  C   -0.008010
     9  C    0.001112
    10  C    0.152164
    11  C   -0.054601
    12  C   -0.023819
    13  C    0.013276
    14  C    0.469562
    15  O   -0.519340
    16  O   -0.268603
    17  N   -0.303970
    18  C    0.101576
    19  C    0.014766
    20  C   -0.060340
    21  C    0.152733
    22  C   -0.040836
    23  C    0.334159
    24  O   -0.521171
    25  C   -0.025641
    26  N   -0.244349
    27  C    0.149806
    28  C   -0.003856
    29  C    0.001374
    30  C    0.122104
    31  C   -0.057364
    32  C   -0.028469
    33  C   -0.062718
    34  N   -0.326947
    35  C    0.089878
    36  C    0.033810
    37  C   -0.065069
    38  C    0.099754
    39  C   -0.039490
    40  C    0.336767
    41  O   -0.520352
    42  C    0.063152
    43  C    0.494261
    44  O   -0.533356
    45  O   -0.263625
    46  C    0.074569
    47  C    0.101712
    48  C   -0.071307
    49  C   -0.007646
    50  C   -0.050526
    51  C   -0.027536
    52  C   -0.036888
    53  C   -0.035007
    54  C   -0.006738
    55  C   -0.062003
    56  C   -0.044729
    57  C   -0.041652
    58  C   -0.035948
    59  C   -0.005585
    60  C   -0.054194
    61  C   -0.040461
    62  C   -0.054577
    63  C   -0.030402
    64  C   -0.009460
    65  C   -0.057414
    66  C   -0.065515
    67  H    0.023030
    68  H    0.029008
    69  H    0.026150
    70  H    0.056696
    71  H    0.034179
    72  H    0.021423
    73  H    0.024891
    74  H    0.027537
    75  H    0.029061
    76  H    0.023727
    77  H    0.031543
    78  H    0.039642
    79  H    0.028997
    80  H    0.032043
    81  H    0.030839
    82  H    0.038500
    83  H    0.035522
    84  H    0.031704
    85  H    0.031164
    86  H    0.041256
    87  H    0.022813
    88  H    0.028911
    89  H    0.022084
    90  H    0.019355
    91  H    0.030161
    92  H    0.023411
    93  H    0.020397
    94  H    0.018577
    95  H    0.021680
    96  H    0.036671
    97  H    0.037907
    98  H    0.063667
    99  H    0.060302
   100  H    0.024758
   101  H    0.033951
   102  H    0.064663
   103  H    0.034967
   104  H    0.022514
   105  H    0.030614
   106  H    0.031472
   107  H    0.015257
   108  H    0.017248
   109  H    0.024712
   110  H    0.025904
   111  H    0.028569
   112  H    0.019357
   113  H    0.019654
   114  H    0.028431
   115  H    0.018296
   116  H    0.016460
   117  H    0.010120
   118  H    0.023716
   119  H    0.010411
   120  H    0.030540
   121  H    0.009999
   122  H    0.022951
   123  H    0.015226
   124  H    0.013405
   125  H    0.014571
   126  H    0.019385
   127  H    0.018452
   128  H    0.018513
   129  H    0.025531
   130  H    0.016649
   131  H    0.006983
   132  H    0.022879
   133  H    0.018454
   134  H    0.025573
   135  H    0.022951
   136  H    0.028390
   137  H    0.015753
   138  H    0.004328
   139  H    0.025181
   140  H    0.018618
 Sum of Mulliken charges =  -0.00000

 Dipole moment (field-independent basis, Debye):
    X=             -4.2212    Y=              7.9463    Z=             -0.6610  Tot=              9.0222
 N-N= 4.175181209283D+03 E-N= 0.000000000000D+00  KE=-9.024737517546D+03
 Leave Link  601 at Thu May  5 11:58:57 2022, MaxMem=  6710886400 cpu:               1.0 elap:               0.1
 (Enter /sw/apps/gaussian-16.0/g16/l9999.exe)
 1\1\GINC-BP1-COMPUTE135\SP\RZINDO CIS\STO-3G\C55H74Mg1N4O6\OF15641\05-
 May-2022\0\\#p ZINDO=(nstates=5)\\step_801_chromophore_7 ZINDO\\0,1\Mg
 ,0,26.357,-0.043,29.416\C,0,28.165,-0.315,32.419\C,0,23.482,0.236,31.2
 75\C,0,24.718,-0.205,26.624\C,0,29.352,-0.454,27.678\N,0,25.889,0.084,
 31.592\C,0,26.813,0.002,32.641\C,0,26.152,0.014,34.051\C,0,24.582,0.08
 ,33.594\C,0,24.644,0.058,32.076\C,0,23.747,-1.139,34.159\C,0,26.624,1.
 302,34.833\C,0,25.841,1.892,36.006\C,0,26.622,2.391,37.208\O,0,27.677,

 Normal termination of Gaussian 16 at Thu May  5 11:58:57 2022.
