 Gaussian 16, Revision A.03,
 Gaussian 16:  ES64L-G16RevA.03 25-Dec-2016

 ------------------------------
 #p blyp/Def2SVP td=(nstates=5)
 ------------------------------

 ---------------------------------------------------
 step_1201_chromophore_11 TDDFT with blyp functional
 ---------------------------------------------------
 Symbolic Z-matrix:
 Charge =  0 Multiplicity = 1

                         Standard orientation:
 ---------------------------------------------------------------------
 Center     Atomic      Atomic             Coordinates (Angstroms)
 Number     Number       Type             X           Y           Z
 ---------------------------------------------------------------------
      1         12           0       -4.701970    1.220400    0.497274
      2          6           0       -5.326932   -2.216142    0.089340
      3          6           0       -2.336138    0.512959    2.810283
      4          6           0       -3.807743    4.460650    0.596491
      5          6           0       -6.927761    1.875876   -2.130863
      6          7           0       -3.880499   -0.673619    1.300155
      7          6           0       -4.344994   -1.942136    1.071242
      8          6           0       -3.685670   -2.823710    2.077614
      9          6           0       -2.848460   -1.960815    3.013436
     10          6           0       -3.001527   -0.628706    2.280272
     11          6           0       -3.332619   -1.879011    4.559316
     12          6           0       -2.814669   -4.007582    1.500850
     13          6           0       -1.683550   -3.606610    0.501572
     14          6           0       -0.261251   -4.132748    0.841193
     15          8           0        0.243301   -4.242283    1.978405
     16          8           0        0.391200   -4.482419   -0.317033
     17          7           0       -3.158718    2.349471    1.478453
     18          6           0       -2.400855    1.894510    2.478580
     19          6           0       -1.626942    2.932959    3.055443
     20          6           0       -2.001651    4.170467    2.382791
     21          6           0       -3.037396    3.717809    1.416313
     22          6           0       -0.575074    2.813659    4.142156
     23          6           0       -1.504527    5.589680    2.648653
     24          8           0       -0.667084    5.733763    3.527915
     25          6           0       -2.125597    6.871870    2.040799
     26          7           0       -5.104290    2.879346   -0.801787
     27          6           0       -4.800641    4.155198   -0.311675
     28          6           0       -5.445416    5.217365   -1.200866
     29          6           0       -6.355773    4.336484   -2.194791
     30          6           0       -6.081806    2.901269   -1.697173
     31          6           0       -6.216485    6.304311   -0.295711
     32          6           0       -6.050697    4.504923   -3.734209
     33          6           0       -7.049909    5.378658   -4.556962
     34          7           0       -5.960056    0.135326   -0.737066
     35          6           0       -6.869768    0.515102   -1.706564
     36          6           0       -7.695123   -0.608647   -2.074332
     37          6           0       -7.075532   -1.729812   -1.449303
     38          6           0       -6.016173   -1.237494   -0.660880
     39          6           0       -8.923187   -0.631835   -3.038160
     40          6           0       -7.133947   -3.129190   -1.152564
     41          8           0       -7.903435   -4.031216   -1.550444
     42          6           0       -5.946738   -3.561237   -0.304626
     43          6           0       -5.166777   -4.450839   -1.130130
     44          8           0       -4.181543   -4.077839   -1.832450
     45          8           0       -5.618929   -5.729592   -1.031518
     46          6           0       -4.812377   -6.694466   -1.779009
     47          6           0        1.748602   -5.048417   -0.052676
     48          6           0        2.817260   -3.866498   -0.051895
     49          6           0        3.973687   -3.695718    0.671196
     50          6           0        4.490390   -4.607420    1.772508
     51          6           0        4.751172   -2.469945    0.493514
     52          6           0        5.302869   -2.135569   -0.939889
     53          6           0        6.608241   -1.319923   -0.985579
     54          6           0        6.416363    0.259717   -1.039732
     55          6           0        6.422612    0.857840   -2.399090
     56          6           0        7.266355    0.940690    0.045533
     57          6           0        8.722225    1.090259   -0.331504
     58          6           0        9.528253   -0.090239    0.120985
     59          6           0       11.012319    0.132917    0.554041
     60          6           0       11.016213    0.741378    2.009972
     61          6           0       11.808876    0.991172   -0.366075
     62          6           0       13.343006    0.845049   -0.032532
     63          6           0       14.106573    0.367027   -1.284856
     64          6           0       15.009997    1.445914   -1.918282
     65          6           0       14.673960    1.713681   -3.441983
     66          6           0       16.548601    1.379709   -1.582066
     67          1           0       -1.589879    0.272289    3.569638
     68          1           0       -3.758333    5.539482    0.759626
     69          1           0       -7.637498    2.122037   -2.923595
     70          1           0       -4.501012   -3.182075    2.706025
     71          1           0       -1.839439   -2.364358    3.104449
     72          1           0       -4.417038   -1.976415    4.621208
     73          1           0       -3.063063   -0.864762    4.855017
     74          1           0       -2.808950   -2.597108    5.189142
     75          1           0       -3.400581   -4.719819    0.920199
     76          1           0       -2.457639   -4.493481    2.409229
     77          1           0       -1.574630   -2.526387    0.413242
     78          1           0       -1.989418   -4.007116   -0.465293
     79          1           0        0.457157    2.866044    3.794275
     80          1           0       -0.673617    1.918087    4.755499
     81          1           0       -0.530411    3.581338    4.914496
     82          1           0       -1.563427    7.735539    2.394476
     83          1           0       -3.113853    7.011420    2.477818
     84          1           0       -2.256595    6.907043    0.959216
     85          1           0       -4.646441    5.726369   -1.740817
     86          1           0       -7.396457    4.612229   -2.024396
     87          1           0       -5.756611    7.283923   -0.427959
     88          1           0       -6.219970    5.995905    0.749498
     89          1           0       -7.239413    6.323224   -0.670610
     90          1           0       -5.799797    3.555544   -4.206280
     91          1           0       -5.116219    5.065909   -3.697213
     92          1           0       -6.455701    6.209423   -4.936219
     93          1           0       -7.893910    5.656161   -3.925912
     94          1           0       -7.522355    4.937648   -5.434758
     95          1           0       -8.674394   -1.451463   -3.712573
     96          1           0       -8.952873    0.232513   -3.701617
     97          1           0       -9.863170   -0.656139   -2.486740
     98          1           0       -6.457638   -4.064779    0.516098
     99          1           0       -5.341381   -6.858591   -2.717750
    100          1           0       -4.900413   -7.612781   -1.197998
    101          1           0       -3.733178   -6.546078   -1.775126
    102          1           0        1.855875   -5.802311   -0.832994
    103          1           0        1.786624   -5.672550    0.839764
    104          1           0        2.518071   -3.115162   -0.784038
    105          1           0        4.647530   -4.065632    2.705845
    106          1           0        5.491315   -4.932731    1.488431
    107          1           0        3.796836   -5.447930    1.774076
    108          1           0        5.514016   -2.288738    1.250784
    109          1           0        4.065331   -1.639984    0.662772
    110          1           0        4.567096   -1.491346   -1.419853
    111          1           0        5.556742   -3.058354   -1.461558
    112          1           0        7.145160   -1.599707   -1.892239
    113          1           0        7.286754   -1.666157   -0.205069
    114          1           0        5.366537    0.412278   -0.788750
    115          1           0        6.493972    1.944131   -2.344516
    116          1           0        5.461266    0.652626   -2.870754
    117          1           0        7.205000    0.427325   -3.023413
    118          1           0        7.363718    0.398988    0.986898
    119          1           0        6.796344    1.880126    0.335019
    120          1           0        9.121198    2.000294    0.116650
    121          1           0        8.826203    1.099185   -1.416302
    122          1           0        9.648826   -0.723816   -0.756934
    123          1           0        9.130833   -0.545860    1.027958
    124          1           0       11.520471   -0.830787    0.587232
    125          1           0       11.038162   -0.045407    2.763146
    126          1           0       10.152920    1.392707    2.150680
    127          1           0       11.894506    1.367463    2.168026
    128          1           0       11.535696    2.031618   -0.194026
    129          1           0       11.485549    0.654765   -1.351474
    130          1           0       13.499720    0.053929    0.699941
    131          1           0       13.723368    1.799484    0.333711
    132          1           0       13.424563    0.030414   -2.066009
    133          1           0       14.674374   -0.522745   -1.013157
    134          1           0       14.769479    2.428449   -1.512089
    135          1           0       13.999847    0.934395   -3.795271
    136          1           0       15.572306    1.764078   -4.056992
    137          1           0       14.256822    2.720880   -3.469664
    138          1           0       16.823153    2.414033   -1.375628
    139          1           0       17.184904    1.128614   -2.430893
    140          1           0       16.824350    0.774530   -0.718885
 ---------------------------------------------------------------------

 SCF Done:  E(RB-LYP) =  -3007.37854383     A.U. after   22 cycles

 Excitation energies and oscillator strengths:

 Excited State   1:      Singlet-A      1.7850 eV  694.60 nm  f=0.0442  <S**2>=0.000
     244 -> 247        0.62297
     245 -> 247        0.17309
     246 -> 247        0.27613
 This state for optimization and/or second-order correction.
 Total Energy, E(TD-HF/TD-DFT) =  -3007.31294761
 Copying the excited state density for this state as the 1-particle RhoCI density.

 Excited State   2:      Singlet-A      1.8197 eV  681.35 nm  f=0.2650  <S**2>=0.000
     244 -> 247       -0.27202
     245 -> 248       -0.17498
     246 -> 247        0.62698
     246 <- 247       -0.13378

 Excited State   3:      Singlet-A      1.9332 eV  641.33 nm  f=0.0014  <S**2>=0.000
     243 -> 247        0.70472

 Excited State   4:      Singlet-A      2.0133 eV  615.83 nm  f=0.0715  <S**2>=0.000
     240 -> 247        0.10400
     244 -> 247       -0.18489
     245 -> 247        0.62318
     246 -> 248        0.23098

 Excited State   5:      Singlet-A      2.0492 eV  605.03 nm  f=0.0000  <S**2>=0.000
     242 -> 247        0.70706

 The electronic state is 1-A.
 Alpha  occ. eigenvalues --  -46.27755 -18.82593 -18.82126 -18.76555 -18.76240
 Alpha  occ. eigenvalues --  -18.75684 -18.74974 -14.03634 -14.03105 -14.00969
 Alpha  occ. eigenvalues --  -14.00949 -10.03938 -10.03928 -10.00496  -9.99365
 Alpha  occ. eigenvalues --   -9.97988  -9.97549  -9.96807  -9.96665  -9.96618
 Alpha  occ. eigenvalues --   -9.96435  -9.95842  -9.95660  -9.95425  -9.94958
 Alpha  occ. eigenvalues --   -9.94504  -9.94291  -9.94267  -9.94055  -9.94035
 Alpha  occ. eigenvalues --   -9.93859  -9.93664  -9.93595  -9.93182  -9.93158
 Alpha  occ. eigenvalues --   -9.93105  -9.93093  -9.93035  -9.92969  -9.92889
 Alpha  occ. eigenvalues --   -9.92885  -9.92850  -9.92782  -9.92645  -9.92338
 Alpha  occ. eigenvalues --   -9.92291  -9.92051  -9.91996  -9.91679  -9.91665
 Alpha  occ. eigenvalues --   -9.91582  -9.91482  -9.91461  -9.91192  -9.91050
 Alpha  occ. eigenvalues --   -9.91004  -9.90855  -9.90791  -9.90690  -9.90669
 Alpha  occ. eigenvalues --   -9.90594  -9.90471  -9.90416  -9.90411  -9.90356
 Alpha  occ. eigenvalues --   -9.90304  -2.92285  -1.72700  -1.72154  -1.72011
 Alpha  occ. eigenvalues --   -0.97708  -0.96718  -0.91755  -0.89912  -0.88316
 Alpha  occ. eigenvalues --   -0.88203  -0.87578  -0.86357  -0.85862  -0.85092
 Alpha  occ. eigenvalues --   -0.76065  -0.73768  -0.72919  -0.72749  -0.72387
 Alpha  occ. eigenvalues --   -0.71842  -0.71366  -0.70729  -0.70320  -0.69485
 Alpha  occ. eigenvalues --   -0.69001  -0.68723  -0.68082  -0.67655  -0.67238
 Alpha  occ. eigenvalues --   -0.66102  -0.65853  -0.65235  -0.64838  -0.64302
 Alpha  occ. eigenvalues --   -0.63952  -0.62276  -0.62086  -0.61435  -0.60982
 Alpha  occ. eigenvalues --   -0.60526  -0.60068  -0.59778  -0.59408  -0.58870
 Alpha  occ. eigenvalues --   -0.58234  -0.57841  -0.57242  -0.55563  -0.54642
 Alpha  occ. eigenvalues --   -0.54457  -0.54260  -0.53113  -0.52400  -0.51729
 Alpha  occ. eigenvalues --   -0.51560  -0.51316  -0.51130  -0.50510  -0.48802
 Alpha  occ. eigenvalues --   -0.48633  -0.48445  -0.48348  -0.46752  -0.46637
 Alpha  occ. eigenvalues --   -0.46234  -0.45979  -0.45717  -0.45463  -0.45099
 Alpha  occ. eigenvalues --   -0.44223  -0.43533  -0.43107  -0.42927  -0.42867
 Alpha  occ. eigenvalues --   -0.42456  -0.41936  -0.41492  -0.41242  -0.40708
 Alpha  occ. eigenvalues --   -0.40442  -0.40363  -0.40298  -0.40163  -0.39899
 Alpha  occ. eigenvalues --   -0.39591  -0.39403  -0.39345  -0.39132  -0.38951
 Alpha  occ. eigenvalues --   -0.38768  -0.38669  -0.38482  -0.38281  -0.38085
 Alpha  occ. eigenvalues --   -0.37816  -0.37370  -0.37324  -0.36976  -0.36908
 Alpha  occ. eigenvalues --   -0.36873  -0.36545  -0.36473  -0.36344  -0.36219
 Alpha  occ. eigenvalues --   -0.36133  -0.35886  -0.35785  -0.35680  -0.35575
 Alpha  occ. eigenvalues --   -0.35478  -0.35067  -0.34936  -0.34859  -0.34581
 Alpha  occ. eigenvalues --   -0.34442  -0.34176  -0.33874  -0.33700  -0.33582
 Alpha  occ. eigenvalues --   -0.33470  -0.33387  -0.33154  -0.33079  -0.32920
 Alpha  occ. eigenvalues --   -0.32705  -0.32675  -0.32590  -0.32405  -0.32202
 Alpha  occ. eigenvalues --   -0.31887  -0.31750  -0.31517  -0.31079  -0.31013
 Alpha  occ. eigenvalues --   -0.30961  -0.30912  -0.30864  -0.30661  -0.30562
 Alpha  occ. eigenvalues --   -0.30448  -0.30299  -0.30025  -0.29843  -0.29785
 Alpha  occ. eigenvalues --   -0.29571  -0.29501  -0.29364  -0.29221  -0.29168
 Alpha  occ. eigenvalues --   -0.29032  -0.28565  -0.28466  -0.28143  -0.28023
 Alpha  occ. eigenvalues --   -0.27550  -0.26752  -0.26689  -0.26618  -0.26465
 Alpha  occ. eigenvalues --   -0.26011  -0.25842  -0.25596  -0.25556  -0.24972
 Alpha  occ. eigenvalues --   -0.24911  -0.24748  -0.24454  -0.23825  -0.23477
 Alpha  occ. eigenvalues --   -0.23221  -0.22063  -0.21567  -0.21332  -0.20636
 Alpha  occ. eigenvalues --   -0.20286  -0.19370  -0.18863  -0.18319  -0.17532
 Alpha  occ. eigenvalues --   -0.16175
 Alpha virt. eigenvalues --   -0.11840  -0.07413  -0.06577  -0.04889  -0.03352
 Alpha virt. eigenvalues --   -0.02984  -0.02454  -0.02267  -0.01461  -0.00087
 Alpha virt. eigenvalues --    0.01154   0.01971   0.02519   0.02544   0.03255

 Mulliken charges:
               1
     1  Mg   0.671831
     2  C    0.006116
     3  C   -0.078849
     4  C   -0.043717
     5  C   -0.073586
     6  N   -0.173355
     7  C   -0.077416
     8  C    0.093544
     9  C   -0.066904
    10  C    0.011071
    11  C    0.114402
    12  C    0.105919
    13  C    0.100233
    14  C    0.084013
    15  O   -0.220215
    16  O   -0.264739
    17  N   -0.250825
    18  C    0.136939
    19  C   -0.105176
    20  C    0.047814
    21  C    0.138730
    22  C    0.159705
    23  C   -0.073170
    24  O   -0.164160
    25  C    0.126859
    26  N   -0.216326
    27  C   -0.008403
    28  C   -0.009189
    29  C    0.007906
    30  C    0.040831
    31  C    0.115876
    32  C    0.089629
    33  C    0.060678
    34  N   -0.285672
    35  C    0.132302
    36  C   -0.196001
    37  C    0.147621
    38  C    0.075754
    39  C    0.170981
    40  C   -0.154531
    41  O   -0.167134
    42  C    0.136396
    43  C    0.146841
    44  O   -0.229728
    45  O   -0.249817
    46  C    0.223174
    47  C    0.275278
    48  C   -0.095227
    49  C   -0.120754
    50  C    0.171212
    51  C    0.129788
    52  C    0.078622
    53  C    0.074392
    54  C   -0.063461
    55  C    0.124896
    56  C    0.125631
    57  C    0.091101
    58  C    0.075991
    59  C   -0.097929
    60  C    0.086489
    61  C    0.112935
    62  C    0.080589
    63  C    0.123416
    64  C   -0.105266
    65  C    0.091314
    66  C    0.097791
    67  H   -0.050889
    68  H   -0.096171
    69  H   -0.060906
    70  H   -0.039289
    71  H   -0.004151
    72  H   -0.009631
    73  H   -0.014112
    74  H    0.007584
    75  H   -0.011865
    76  H   -0.005612
    77  H    0.023329
    78  H    0.014056
    79  H    0.001548
    80  H   -0.026176
    81  H   -0.004405
    82  H   -0.010281
    83  H    0.012092
    84  H    0.017196
    85  H   -0.010443
    86  H   -0.028766
    87  H   -0.000543
    88  H    0.005258
    89  H   -0.012116
    90  H   -0.006826
    91  H   -0.033540
    92  H   -0.001145
    93  H   -0.008512
    94  H   -0.006522
    95  H    0.018840
    96  H   -0.025462
    97  H    0.020502
    98  H   -0.000912
    99  H    0.028182
   100  H   -0.003022
   101  H    0.027461
   102  H   -0.003430
   103  H    0.000410
   104  H   -0.028214
   105  H    0.007644
   106  H   -0.010748
   107  H   -0.015543
   108  H   -0.046027
   109  H   -0.018193
   110  H   -0.019455
   111  H   -0.026700
   112  H   -0.048285
   113  H   -0.028888
   114  H   -0.049066
   115  H   -0.016341
   116  H   -0.020688
   117  H   -0.011286
   118  H   -0.047792
   119  H   -0.049678
   120  H   -0.031671
   121  H   -0.041534
   122  H   -0.031381
   123  H   -0.023363
   124  H   -0.046663
   125  H   -0.016052
   126  H   -0.018700
   127  H   -0.023343
   128  H   -0.035628
   129  H   -0.035670
   130  H   -0.026241
   131  H   -0.017455
   132  H   -0.040751
   133  H   -0.041189
   134  H   -0.033428
   135  H   -0.008470
   136  H   -0.023648
   137  H   -0.013483
   138  H   -0.025570
   139  H   -0.018643
   140  H   -0.012648
 Sum of Mulliken charges =  -0.00000

 Dipole moment (field-independent basis, Debye):
    X=             -0.6678    Y=              2.1709    Z=             -0.2216  Tot=              2.2820
 Quadrupole moment (field-independent basis, Debye-Ang):
   XX=           -396.7191   YY=           -389.5213   ZZ=           -408.6553
   XY=            -40.9671   XZ=             -6.5707   YZ=            -21.0577

 Normal termination of Gaussian 16 at Wed Apr 27 13:43:06 2022.
