 Gaussian 16, Revision A.03,
 Gaussian 16:  ES64L-G16RevA.03 25-Dec-2016

 -----------------------------------
 #p cam-b3lyp/Def2SVP td=(nstates=5)
 -----------------------------------

 --------------------------------------------------------
 step_1201_chromophore_11 TDDFT with cam-b3lyp functional
 --------------------------------------------------------
 Symbolic Z-matrix:
 Charge =  0 Multiplicity = 1

                         Standard orientation:
 ---------------------------------------------------------------------
 Center     Atomic      Atomic             Coordinates (Angstroms)
 Number     Number       Type             X           Y           Z
 ---------------------------------------------------------------------
      1         12           0       -4.701970    1.220400    0.497274
      2          6           0       -5.326932   -2.216142    0.089340
      3          6           0       -2.336138    0.512959    2.810283
      4          6           0       -3.807743    4.460650    0.596491
      5          6           0       -6.927761    1.875876   -2.130863
      6          7           0       -3.880499   -0.673619    1.300155
      7          6           0       -4.344994   -1.942136    1.071242
      8          6           0       -3.685670   -2.823710    2.077614
      9          6           0       -2.848460   -1.960815    3.013436
     10          6           0       -3.001527   -0.628706    2.280272
     11          6           0       -3.332619   -1.879011    4.559316
     12          6           0       -2.814669   -4.007582    1.500850
     13          6           0       -1.683550   -3.606610    0.501572
     14          6           0       -0.261251   -4.132748    0.841193
     15          8           0        0.243301   -4.242283    1.978405
     16          8           0        0.391200   -4.482419   -0.317033
     17          7           0       -3.158718    2.349471    1.478453
     18          6           0       -2.400855    1.894510    2.478580
     19          6           0       -1.626942    2.932959    3.055443
     20          6           0       -2.001651    4.170467    2.382791
     21          6           0       -3.037396    3.717809    1.416313
     22          6           0       -0.575074    2.813659    4.142156
     23          6           0       -1.504527    5.589680    2.648653
     24          8           0       -0.667084    5.733763    3.527915
     25          6           0       -2.125597    6.871870    2.040799
     26          7           0       -5.104290    2.879346   -0.801787
     27          6           0       -4.800641    4.155198   -0.311675
     28          6           0       -5.445416    5.217365   -1.200866
     29          6           0       -6.355773    4.336484   -2.194791
     30          6           0       -6.081806    2.901269   -1.697173
     31          6           0       -6.216485    6.304311   -0.295711
     32          6           0       -6.050697    4.504923   -3.734209
     33          6           0       -7.049909    5.378658   -4.556962
     34          7           0       -5.960056    0.135326   -0.737066
     35          6           0       -6.869768    0.515102   -1.706564
     36          6           0       -7.695123   -0.608647   -2.074332
     37          6           0       -7.075532   -1.729812   -1.449303
     38          6           0       -6.016173   -1.237494   -0.660880
     39          6           0       -8.923187   -0.631835   -3.038160
     40          6           0       -7.133947   -3.129190   -1.152564
     41          8           0       -7.903435   -4.031216   -1.550444
     42          6           0       -5.946738   -3.561237   -0.304626
     43          6           0       -5.166777   -4.450839   -1.130130
     44          8           0       -4.181543   -4.077839   -1.832450
     45          8           0       -5.618929   -5.729592   -1.031518
     46          6           0       -4.812377   -6.694466   -1.779009
     47          6           0        1.748602   -5.048417   -0.052676
     48          6           0        2.817260   -3.866498   -0.051895
     49          6           0        3.973687   -3.695718    0.671196
     50          6           0        4.490390   -4.607420    1.772508
     51          6           0        4.751172   -2.469945    0.493514
     52          6           0        5.302869   -2.135569   -0.939889
     53          6           0        6.608241   -1.319923   -0.985579
     54          6           0        6.416363    0.259717   -1.039732
     55          6           0        6.422612    0.857840   -2.399090
     56          6           0        7.266355    0.940690    0.045533
     57          6           0        8.722225    1.090259   -0.331504
     58          6           0        9.528253   -0.090239    0.120985
     59          6           0       11.012319    0.132917    0.554041
     60          6           0       11.016213    0.741378    2.009972
     61          6           0       11.808876    0.991172   -0.366075
     62          6           0       13.343006    0.845049   -0.032532
     63          6           0       14.106573    0.367027   -1.284856
     64          6           0       15.009997    1.445914   -1.918282
     65          6           0       14.673960    1.713681   -3.441983
     66          6           0       16.548601    1.379709   -1.582066
     67          1           0       -1.589879    0.272289    3.569638
     68          1           0       -3.758333    5.539482    0.759626
     69          1           0       -7.637498    2.122037   -2.923595
     70          1           0       -4.501012   -3.182075    2.706025
     71          1           0       -1.839439   -2.364358    3.104449
     72          1           0       -4.417038   -1.976415    4.621208
     73          1           0       -3.063063   -0.864762    4.855017
     74          1           0       -2.808950   -2.597108    5.189142
     75          1           0       -3.400581   -4.719819    0.920199
     76          1           0       -2.457639   -4.493481    2.409229
     77          1           0       -1.574630   -2.526387    0.413242
     78          1           0       -1.989418   -4.007116   -0.465293
     79          1           0        0.457157    2.866044    3.794275
     80          1           0       -0.673617    1.918087    4.755499
     81          1           0       -0.530411    3.581338    4.914496
     82          1           0       -1.563427    7.735539    2.394476
     83          1           0       -3.113853    7.011420    2.477818
     84          1           0       -2.256595    6.907043    0.959216
     85          1           0       -4.646441    5.726369   -1.740817
     86          1           0       -7.396457    4.612229   -2.024396
     87          1           0       -5.756611    7.283923   -0.427959
     88          1           0       -6.219970    5.995905    0.749498
     89          1           0       -7.239413    6.323224   -0.670610
     90          1           0       -5.799797    3.555544   -4.206280
     91          1           0       -5.116219    5.065909   -3.697213
     92          1           0       -6.455701    6.209423   -4.936219
     93          1           0       -7.893910    5.656161   -3.925912
     94          1           0       -7.522355    4.937648   -5.434758
     95          1           0       -8.674394   -1.451463   -3.712573
     96          1           0       -8.952873    0.232513   -3.701617
     97          1           0       -9.863170   -0.656139   -2.486740
     98          1           0       -6.457638   -4.064779    0.516098
     99          1           0       -5.341381   -6.858591   -2.717750
    100          1           0       -4.900413   -7.612781   -1.197998
    101          1           0       -3.733178   -6.546078   -1.775126
    102          1           0        1.855875   -5.802311   -0.832994
    103          1           0        1.786624   -5.672550    0.839764
    104          1           0        2.518071   -3.115162   -0.784038
    105          1           0        4.647530   -4.065632    2.705845
    106          1           0        5.491315   -4.932731    1.488431
    107          1           0        3.796836   -5.447930    1.774076
    108          1           0        5.514016   -2.288738    1.250784
    109          1           0        4.065331   -1.639984    0.662772
    110          1           0        4.567096   -1.491346   -1.419853
    111          1           0        5.556742   -3.058354   -1.461558
    112          1           0        7.145160   -1.599707   -1.892239
    113          1           0        7.286754   -1.666157   -0.205069
    114          1           0        5.366537    0.412278   -0.788750
    115          1           0        6.493972    1.944131   -2.344516
    116          1           0        5.461266    0.652626   -2.870754
    117          1           0        7.205000    0.427325   -3.023413
    118          1           0        7.363718    0.398988    0.986898
    119          1           0        6.796344    1.880126    0.335019
    120          1           0        9.121198    2.000294    0.116650
    121          1           0        8.826203    1.099185   -1.416302
    122          1           0        9.648826   -0.723816   -0.756934
    123          1           0        9.130833   -0.545860    1.027958
    124          1           0       11.520471   -0.830787    0.587232
    125          1           0       11.038162   -0.045407    2.763146
    126          1           0       10.152920    1.392707    2.150680
    127          1           0       11.894506    1.367463    2.168026
    128          1           0       11.535696    2.031618   -0.194026
    129          1           0       11.485549    0.654765   -1.351474
    130          1           0       13.499720    0.053929    0.699941
    131          1           0       13.723368    1.799484    0.333711
    132          1           0       13.424563    0.030414   -2.066009
    133          1           0       14.674374   -0.522745   -1.013157
    134          1           0       14.769479    2.428449   -1.512089
    135          1           0       13.999847    0.934395   -3.795271
    136          1           0       15.572306    1.764078   -4.056992
    137          1           0       14.256822    2.720880   -3.469664
    138          1           0       16.823153    2.414033   -1.375628
    139          1           0       17.184904    1.128614   -2.430893
    140          1           0       16.824350    0.774530   -0.718885
 ---------------------------------------------------------------------

 SCF Done:  E(RCAM-B3LYP) =  -3007.16527036     A.U. after   17 cycles

 Excitation energies and oscillator strengths:

 Excited State   1:      Singlet-A      1.7318 eV  715.91 nm  f=0.3891  <S**2>=0.000
     245 -> 248       -0.18434
     246 -> 247        0.68320
     245 <- 248       -0.10632
 This state for optimization and/or second-order correction.
 Total Energy, E(TD-HF/TD-DFT) =  -3007.10162677
 Copying the excited state density for this state as the 1-particle RhoCI density.

 Excited State   2:      Singlet-A      2.2248 eV  557.29 nm  f=0.1017  <S**2>=0.000
     245 -> 247        0.63537
     246 -> 248        0.29255

 Excited State   3:      Singlet-A      3.3176 eV  373.72 nm  f=0.0016  <S**2>=0.000
     242 -> 247       -0.28031
     243 -> 247        0.62885

 Excited State   4:      Singlet-A      3.3560 eV  369.44 nm  f=0.0020  <S**2>=0.000
     241 -> 247        0.53019
     241 -> 249        0.30131
     241 -> 250       -0.12452
     241 -> 251        0.16708
     242 -> 247       -0.12637
     243 -> 247       -0.14204

 Excited State   5:      Singlet-A      3.4186 eV  362.68 nm  f=0.1233  <S**2>=0.000
     241 -> 247        0.12651
     242 -> 247        0.47493
     243 -> 247        0.23033
     245 -> 247       -0.12838
     246 -> 248        0.41746

 The electronic state is 1-A.
 Alpha  occ. eigenvalues --  -46.89375 -19.25563 -19.24962 -19.19439 -19.19321
 Alpha  occ. eigenvalues --  -19.19100 -19.18031 -14.42581 -14.41955 -14.39511
 Alpha  occ. eigenvalues --  -14.39284 -10.39491 -10.39230 -10.35874 -10.34592
 Alpha  occ. eigenvalues --  -10.32115 -10.31483 -10.31315 -10.31263 -10.31221
 Alpha  occ. eigenvalues --  -10.30678 -10.30331 -10.29921 -10.29887 -10.29143
 Alpha  occ. eigenvalues --  -10.28902 -10.28611 -10.28585 -10.28531 -10.28096
 Alpha  occ. eigenvalues --  -10.28024 -10.27811 -10.27702 -10.27526 -10.27116
 Alpha  occ. eigenvalues --  -10.27061 -10.27052 -10.27015 -10.26995 -10.26940
 Alpha  occ. eigenvalues --  -10.26896 -10.26736 -10.26582 -10.26520 -10.26427
 Alpha  occ. eigenvalues --  -10.25980 -10.25953 -10.25657 -10.25618 -10.25524
 Alpha  occ. eigenvalues --  -10.25414 -10.25142 -10.25126 -10.24805 -10.24777
 Alpha  occ. eigenvalues --  -10.24686 -10.24471 -10.24395 -10.24307 -10.24282
 Alpha  occ. eigenvalues --  -10.24243 -10.24104 -10.24058 -10.24050 -10.23976
 Alpha  occ. eigenvalues --  -10.23965  -3.17801  -1.92695  -1.92243  -1.92112
 Alpha  occ. eigenvalues --   -1.16205  -1.15061  -1.10342  -1.08155  -1.06141
 Alpha  occ. eigenvalues --   -1.06062  -1.05414  -1.04128  -1.03496  -1.02543
 Alpha  occ. eigenvalues --   -0.93173  -0.90660  -0.89731  -0.89620  -0.89143
 Alpha  occ. eigenvalues --   -0.88538  -0.87946  -0.87323  -0.86880  -0.85954
 Alpha  occ. eigenvalues --   -0.85656  -0.85061  -0.84312  -0.83878  -0.83407
 Alpha  occ. eigenvalues --   -0.82062  -0.81879  -0.81343  -0.80837  -0.80085
 Alpha  occ. eigenvalues --   -0.79716  -0.77877  -0.77591  -0.77081  -0.76410
 Alpha  occ. eigenvalues --   -0.75870  -0.75412  -0.75126  -0.74721  -0.74127
 Alpha  occ. eigenvalues --   -0.73257  -0.72856  -0.72221  -0.70401  -0.69255
 Alpha  occ. eigenvalues --   -0.69127  -0.68905  -0.67721  -0.66848  -0.65765
 Alpha  occ. eigenvalues --   -0.65700  -0.65538  -0.65282  -0.64541  -0.62737
 Alpha  occ. eigenvalues --   -0.62373  -0.62268  -0.62051  -0.60442  -0.60364
 Alpha  occ. eigenvalues --   -0.59872  -0.59548  -0.59296  -0.59006  -0.58428
 Alpha  occ. eigenvalues --   -0.57679  -0.56855  -0.56425  -0.56198  -0.55868
 Alpha  occ. eigenvalues --   -0.55644  -0.55099  -0.54388  -0.54049  -0.53649
 Alpha  occ. eigenvalues --   -0.53445  -0.53185  -0.53049  -0.52816  -0.52635
 Alpha  occ. eigenvalues --   -0.52232  -0.52027  -0.51880  -0.51778  -0.51552
 Alpha  occ. eigenvalues --   -0.51374  -0.51130  -0.50960  -0.50682  -0.50391
 Alpha  occ. eigenvalues --   -0.50224  -0.49695  -0.49620  -0.49528  -0.49342
 Alpha  occ. eigenvalues --   -0.49198  -0.49084  -0.48826  -0.48577  -0.48522
 Alpha  occ. eigenvalues --   -0.48281  -0.48194  -0.48067  -0.47955  -0.47576
 Alpha  occ. eigenvalues --   -0.47489  -0.47260  -0.46842  -0.46805  -0.46747
 Alpha  occ. eigenvalues --   -0.46521  -0.45991  -0.45746  -0.45614  -0.45286
 Alpha  occ. eigenvalues --   -0.45256  -0.45146  -0.44853  -0.44791  -0.44529
 Alpha  occ. eigenvalues --   -0.44329  -0.44272  -0.44181  -0.43988  -0.43846
 Alpha  occ. eigenvalues --   -0.43676  -0.43262  -0.43067  -0.42765  -0.42635
 Alpha  occ. eigenvalues --   -0.42526  -0.42512  -0.42312  -0.42173  -0.41955
 Alpha  occ. eigenvalues --   -0.41826  -0.41728  -0.41578  -0.41317  -0.41009
 Alpha  occ. eigenvalues --   -0.40962  -0.40912  -0.40533  -0.40384  -0.40242
 Alpha  occ. eigenvalues --   -0.40162  -0.39577  -0.39446  -0.39108  -0.38993
 Alpha  occ. eigenvalues --   -0.38585  -0.37944  -0.37525  -0.37383  -0.37144
 Alpha  occ. eigenvalues --   -0.36775  -0.36641  -0.36522  -0.36429  -0.36322
 Alpha  occ. eigenvalues --   -0.35970  -0.35508  -0.34468  -0.34256  -0.33925
 Alpha  occ. eigenvalues --   -0.33834  -0.33615  -0.33568  -0.31343  -0.31235
 Alpha  occ. eigenvalues --   -0.30389  -0.29973  -0.29626  -0.28853  -0.24310
 Alpha  occ. eigenvalues --   -0.21505
 Alpha virt. eigenvalues --   -0.08984  -0.02308  -0.00236   0.01557   0.02121
 Alpha virt. eigenvalues --    0.04638   0.05114   0.05297   0.05774   0.07103
 Alpha virt. eigenvalues --    0.07883   0.08706   0.08823   0.08851   0.09392

 Mulliken charges:
               1
     1  Mg   0.804225
     2  C   -0.016677
     3  C   -0.090008
     4  C   -0.066082
     5  C   -0.075740
     6  N   -0.244079
     7  C   -0.039919
     8  C    0.036479
     9  C   -0.118994
    10  C    0.030393
    11  C    0.063579
    12  C    0.056789
    13  C    0.029464
    14  C    0.169429
    15  O   -0.263672
    16  O   -0.329291
    17  N   -0.338809
    18  C    0.141962
    19  C   -0.111501
    20  C   -0.016573
    21  C    0.164760
    22  C    0.106761
    23  C    0.001286
    24  O   -0.203193
    25  C    0.046804
    26  N   -0.287737
    27  C    0.017478
    28  C   -0.064665
    29  C   -0.043920
    30  C    0.056771
    31  C    0.058538
    32  C    0.033118
    33  C    0.000394
    34  N   -0.373712
    35  C    0.130391
    36  C   -0.190142
    37  C    0.067910
    38  C    0.108034
    39  C    0.125278
    40  C   -0.055383
    41  O   -0.206021
    42  C    0.058975
    43  C    0.230433
    44  O   -0.267848
    45  O   -0.310566
    46  C    0.182184
    47  C    0.246951
    48  C   -0.122457
    49  C   -0.142272
    50  C    0.112481
    51  C    0.067312
    52  C    0.028439
    53  C    0.023167
    54  C   -0.123457
    55  C    0.067067
    56  C    0.072968
    57  C    0.029394
    58  C    0.023499
    59  C   -0.143767
    60  C    0.026826
    61  C    0.057669
    62  C    0.022515
    63  C    0.068076
    64  C   -0.165778
    65  C    0.036450
    66  C    0.040890
    67  H   -0.015166
    68  H   -0.061684
    69  H   -0.026196
    70  H   -0.001679
    71  H    0.031939
    72  H    0.014140
    73  H    0.010058
    74  H    0.031950
    75  H    0.012673
    76  H    0.026652
    77  H    0.052159
    78  H    0.049194
    79  H    0.030558
    80  H   -0.000342
    81  H    0.026605
    82  H    0.026870
    83  H    0.039198
    84  H    0.043816
    85  H    0.023098
    86  H    0.004160
    87  H    0.022504
    88  H    0.029324
    89  H    0.012783
    90  H    0.023439
    91  H   -0.005107
    92  H    0.021482
    93  H    0.012711
    94  H    0.017482
    95  H    0.043196
    96  H   -0.001085
    97  H    0.044910
    98  H    0.044078
    99  H    0.051528
   100  H    0.020600
   101  H    0.050654
   102  H    0.025733
   103  H    0.029649
   104  H    0.005587
   105  H    0.031709
   106  H    0.013391
   107  H    0.006772
   108  H   -0.015350
   109  H    0.012268
   110  H    0.004581
   111  H    0.002934
   112  H   -0.018862
   113  H   -0.001493
   114  H   -0.016394
   115  H    0.009655
   116  H    0.004333
   117  H    0.009797
   118  H   -0.019060
   119  H   -0.017565
   120  H   -0.002694
   121  H   -0.012614
   122  H   -0.003949
   123  H    0.003171
   124  H   -0.013997
   125  H    0.009247
   126  H    0.004086
   127  H    0.000936
   128  H   -0.007351
   129  H   -0.008171
   130  H    0.002451
   131  H    0.009623
   132  H   -0.012559
   133  H   -0.011062
   134  H   -0.002044
   135  H    0.013753
   136  H    0.000520
   137  H    0.009691
   138  H   -0.001893
   139  H    0.004751
   140  H    0.011043
 Sum of Mulliken charges =  -0.00000

 Dipole moment (field-independent basis, Debye):
    X=             -0.4523    Y=              2.7434    Z=              0.2059  Tot=              2.7880
 Quadrupole moment (field-independent basis, Debye-Ang):
   XX=           -397.9627   YY=           -383.9155   ZZ=           -407.6048
   XY=            -43.4420   XZ=             -7.5875   YZ=            -20.9896

 Normal termination of Gaussian 16 at Wed Apr 27 12:45:48 2022.
