 Gaussian 16, Revision A.03,
 Gaussian 16:  ES64L-G16RevA.03 25-Dec-2016

 ---------------------------------
 #p PBE1PBE/Def2SVP td=(nstates=5)
 ---------------------------------

 ------------------------------------------------------
 step_1201_chromophore_11 TDDFT with PBE1PBE functional
 ------------------------------------------------------
 Symbolic Z-matrix:
 Charge =  0 Multiplicity = 1

                         Standard orientation:
 ---------------------------------------------------------------------
 Center     Atomic      Atomic             Coordinates (Angstroms)
 Number     Number       Type             X           Y           Z
 ---------------------------------------------------------------------
      1         12           0       -4.701970    1.220400    0.497274
      2          6           0       -5.326932   -2.216142    0.089340
      3          6           0       -2.336138    0.512959    2.810283
      4          6           0       -3.807743    4.460650    0.596491
      5          6           0       -6.927761    1.875876   -2.130863
      6          7           0       -3.880499   -0.673619    1.300155
      7          6           0       -4.344994   -1.942136    1.071242
      8          6           0       -3.685670   -2.823710    2.077614
      9          6           0       -2.848460   -1.960815    3.013436
     10          6           0       -3.001527   -0.628706    2.280272
     11          6           0       -3.332619   -1.879011    4.559316
     12          6           0       -2.814669   -4.007582    1.500850
     13          6           0       -1.683550   -3.606610    0.501572
     14          6           0       -0.261251   -4.132748    0.841193
     15          8           0        0.243301   -4.242283    1.978405
     16          8           0        0.391200   -4.482419   -0.317033
     17          7           0       -3.158718    2.349471    1.478453
     18          6           0       -2.400855    1.894510    2.478580
     19          6           0       -1.626942    2.932959    3.055443
     20          6           0       -2.001651    4.170467    2.382791
     21          6           0       -3.037396    3.717809    1.416313
     22          6           0       -0.575074    2.813659    4.142156
     23          6           0       -1.504527    5.589680    2.648653
     24          8           0       -0.667084    5.733763    3.527915
     25          6           0       -2.125597    6.871870    2.040799
     26          7           0       -5.104290    2.879346   -0.801787
     27          6           0       -4.800641    4.155198   -0.311675
     28          6           0       -5.445416    5.217365   -1.200866
     29          6           0       -6.355773    4.336484   -2.194791
     30          6           0       -6.081806    2.901269   -1.697173
     31          6           0       -6.216485    6.304311   -0.295711
     32          6           0       -6.050697    4.504923   -3.734209
     33          6           0       -7.049909    5.378658   -4.556962
     34          7           0       -5.960056    0.135326   -0.737066
     35          6           0       -6.869768    0.515102   -1.706564
     36          6           0       -7.695123   -0.608647   -2.074332
     37          6           0       -7.075532   -1.729812   -1.449303
     38          6           0       -6.016173   -1.237494   -0.660880
     39          6           0       -8.923187   -0.631835   -3.038160
     40          6           0       -7.133947   -3.129190   -1.152564
     41          8           0       -7.903435   -4.031216   -1.550444
     42          6           0       -5.946738   -3.561237   -0.304626
     43          6           0       -5.166777   -4.450839   -1.130130
     44          8           0       -4.181543   -4.077839   -1.832450
     45          8           0       -5.618929   -5.729592   -1.031518
     46          6           0       -4.812377   -6.694466   -1.779009
     47          6           0        1.748602   -5.048417   -0.052676
     48          6           0        2.817260   -3.866498   -0.051895
     49          6           0        3.973687   -3.695718    0.671196
     50          6           0        4.490390   -4.607420    1.772508
     51          6           0        4.751172   -2.469945    0.493514
     52          6           0        5.302869   -2.135569   -0.939889
     53          6           0        6.608241   -1.319923   -0.985579
     54          6           0        6.416363    0.259717   -1.039732
     55          6           0        6.422612    0.857840   -2.399090
     56          6           0        7.266355    0.940690    0.045533
     57          6           0        8.722225    1.090259   -0.331504
     58          6           0        9.528253   -0.090239    0.120985
     59          6           0       11.012319    0.132917    0.554041
     60          6           0       11.016213    0.741378    2.009972
     61          6           0       11.808876    0.991172   -0.366075
     62          6           0       13.343006    0.845049   -0.032532
     63          6           0       14.106573    0.367027   -1.284856
     64          6           0       15.009997    1.445914   -1.918282
     65          6           0       14.673960    1.713681   -3.441983
     66          6           0       16.548601    1.379709   -1.582066
     67          1           0       -1.589879    0.272289    3.569638
     68          1           0       -3.758333    5.539482    0.759626
     69          1           0       -7.637498    2.122037   -2.923595
     70          1           0       -4.501012   -3.182075    2.706025
     71          1           0       -1.839439   -2.364358    3.104449
     72          1           0       -4.417038   -1.976415    4.621208
     73          1           0       -3.063063   -0.864762    4.855017
     74          1           0       -2.808950   -2.597108    5.189142
     75          1           0       -3.400581   -4.719819    0.920199
     76          1           0       -2.457639   -4.493481    2.409229
     77          1           0       -1.574630   -2.526387    0.413242
     78          1           0       -1.989418   -4.007116   -0.465293
     79          1           0        0.457157    2.866044    3.794275
     80          1           0       -0.673617    1.918087    4.755499
     81          1           0       -0.530411    3.581338    4.914496
     82          1           0       -1.563427    7.735539    2.394476
     83          1           0       -3.113853    7.011420    2.477818
     84          1           0       -2.256595    6.907043    0.959216
     85          1           0       -4.646441    5.726369   -1.740817
     86          1           0       -7.396457    4.612229   -2.024396
     87          1           0       -5.756611    7.283923   -0.427959
     88          1           0       -6.219970    5.995905    0.749498
     89          1           0       -7.239413    6.323224   -0.670610
     90          1           0       -5.799797    3.555544   -4.206280
     91          1           0       -5.116219    5.065909   -3.697213
     92          1           0       -6.455701    6.209423   -4.936219
     93          1           0       -7.893910    5.656161   -3.925912
     94          1           0       -7.522355    4.937648   -5.434758
     95          1           0       -8.674394   -1.451463   -3.712573
     96          1           0       -8.952873    0.232513   -3.701617
     97          1           0       -9.863170   -0.656139   -2.486740
     98          1           0       -6.457638   -4.064779    0.516098
     99          1           0       -5.341381   -6.858591   -2.717750
    100          1           0       -4.900413   -7.612781   -1.197998
    101          1           0       -3.733178   -6.546078   -1.775126
    102          1           0        1.855875   -5.802311   -0.832994
    103          1           0        1.786624   -5.672550    0.839764
    104          1           0        2.518071   -3.115162   -0.784038
    105          1           0        4.647530   -4.065632    2.705845
    106          1           0        5.491315   -4.932731    1.488431
    107          1           0        3.796836   -5.447930    1.774076
    108          1           0        5.514016   -2.288738    1.250784
    109          1           0        4.065331   -1.639984    0.662772
    110          1           0        4.567096   -1.491346   -1.419853
    111          1           0        5.556742   -3.058354   -1.461558
    112          1           0        7.145160   -1.599707   -1.892239
    113          1           0        7.286754   -1.666157   -0.205069
    114          1           0        5.366537    0.412278   -0.788750
    115          1           0        6.493972    1.944131   -2.344516
    116          1           0        5.461266    0.652626   -2.870754
    117          1           0        7.205000    0.427325   -3.023413
    118          1           0        7.363718    0.398988    0.986898
    119          1           0        6.796344    1.880126    0.335019
    120          1           0        9.121198    2.000294    0.116650
    121          1           0        8.826203    1.099185   -1.416302
    122          1           0        9.648826   -0.723816   -0.756934
    123          1           0        9.130833   -0.545860    1.027958
    124          1           0       11.520471   -0.830787    0.587232
    125          1           0       11.038162   -0.045407    2.763146
    126          1           0       10.152920    1.392707    2.150680
    127          1           0       11.894506    1.367463    2.168026
    128          1           0       11.535696    2.031618   -0.194026
    129          1           0       11.485549    0.654765   -1.351474
    130          1           0       13.499720    0.053929    0.699941
    131          1           0       13.723368    1.799484    0.333711
    132          1           0       13.424563    0.030414   -2.066009
    133          1           0       14.674374   -0.522745   -1.013157
    134          1           0       14.769479    2.428449   -1.512089
    135          1           0       13.999847    0.934395   -3.795271
    136          1           0       15.572306    1.764078   -4.056992
    137          1           0       14.256822    2.720880   -3.469664
    138          1           0       16.823153    2.414033   -1.375628
    139          1           0       17.184904    1.128614   -2.430893
    140          1           0       16.824350    0.774530   -0.718885
 ---------------------------------------------------------------------

 SCF Done:  E(RPBE1PBE) =  -3005.35463406     A.U. after   15 cycles

 Excitation energies and oscillator strengths:

 Excited State   1:      Singlet-A      1.8751 eV  661.22 nm  f=0.3730  <S**2>=0.000
     245 -> 248        0.17752
     246 -> 247        0.69001
     246 <- 247       -0.10361
 This state for optimization and/or second-order correction.
 Total Energy, E(TD-HF/TD-DFT) =  -3005.28572620
 Copying the excited state density for this state as the 1-particle RhoCI density.

 Excited State   2:      Singlet-A      2.2299 eV  556.01 nm  f=0.0994  <S**2>=0.000
     245 -> 247        0.64838
     246 -> 248       -0.26163

 Excited State   3:      Singlet-A      2.8466 eV  435.55 nm  f=0.0003  <S**2>=0.000
     241 -> 247        0.13420
     242 -> 247        0.63878
     242 -> 249        0.17255
     243 -> 247       -0.15201

 Excited State   4:      Singlet-A      2.9830 eV  415.64 nm  f=0.0001  <S**2>=0.000
     242 -> 247        0.15627
     243 -> 247        0.68449

 Excited State   5:      Singlet-A      3.0734 eV  403.41 nm  f=0.0002  <S**2>=0.000
     240 -> 247        0.57993
     240 -> 248       -0.11736
     240 -> 249       -0.14028
     240 -> 250       -0.10304
     241 -> 247        0.32093

 The electronic state is 1-A.
 Alpha  occ. eigenvalues --  -46.92743 -19.26222 -19.25669 -19.19749 -19.19610
 Alpha  occ. eigenvalues --  -19.19198 -19.18399 -14.42032 -14.41472 -14.39063
 Alpha  occ. eigenvalues --  -14.39043 -10.36493 -10.36295 -10.32937 -10.31836
 Alpha  occ. eigenvalues --  -10.29547 -10.29028 -10.28929 -10.28864 -10.28729
 Alpha  occ. eigenvalues --  -10.28487 -10.27804 -10.27765 -10.27406 -10.26971
 Alpha  occ. eigenvalues --  -10.26428 -10.26418 -10.26411 -10.26389 -10.25916
 Alpha  occ. eigenvalues --  -10.25749 -10.25501 -10.25425 -10.25349 -10.24714
 Alpha  occ. eigenvalues --  -10.24711 -10.24653 -10.24615 -10.24560 -10.24480
 Alpha  occ. eigenvalues --  -10.24426 -10.24136 -10.24087 -10.24047 -10.23989
 Alpha  occ. eigenvalues --  -10.23560 -10.23415 -10.23384 -10.23103 -10.23013
 Alpha  occ. eigenvalues --  -10.22959 -10.22820 -10.22672 -10.22450 -10.22327
 Alpha  occ. eigenvalues --  -10.22249 -10.22039 -10.21803 -10.21761 -10.21704
 Alpha  occ. eigenvalues --  -10.21663 -10.21641 -10.21598 -10.21528 -10.21459
 Alpha  occ. eigenvalues --  -10.21445  -3.14754  -1.87588  -1.87113  -1.86987
 Alpha  occ. eigenvalues --   -1.10991  -1.09875  -1.04977  -1.02963  -1.00931
 Alpha  occ. eigenvalues --   -1.00921  -1.00010  -0.98702  -0.98149  -0.97284
 Alpha  occ. eigenvalues --   -0.87620  -0.84723  -0.83905  -0.83832  -0.83393
 Alpha  occ. eigenvalues --   -0.82636  -0.82212  -0.81652  -0.80975  -0.80283
 Alpha  occ. eigenvalues --   -0.79914  -0.79379  -0.78552  -0.78053  -0.77649
 Alpha  occ. eigenvalues --   -0.76309  -0.76029  -0.75555  -0.75086  -0.74305
 Alpha  occ. eigenvalues --   -0.73888  -0.72190  -0.71915  -0.71295  -0.70714
 Alpha  occ. eigenvalues --   -0.70018  -0.69724  -0.69206  -0.68817  -0.68281
 Alpha  occ. eigenvalues --   -0.67706  -0.67169  -0.66662  -0.64676  -0.63599
 Alpha  occ. eigenvalues --   -0.63454  -0.63261  -0.62162  -0.61036  -0.60237
 Alpha  occ. eigenvalues --   -0.60135  -0.59839  -0.59688  -0.59101  -0.56973
 Alpha  occ. eigenvalues --   -0.56910  -0.56636  -0.56446  -0.54876  -0.54643
 Alpha  occ. eigenvalues --   -0.54421  -0.54017  -0.53715  -0.53450  -0.53060
 Alpha  occ. eigenvalues --   -0.52305  -0.51309  -0.50868  -0.50668  -0.50253
 Alpha  occ. eigenvalues --   -0.50145  -0.49664  -0.48972  -0.48557  -0.48281
 Alpha  occ. eigenvalues --   -0.48012  -0.47797  -0.47563  -0.47366  -0.47139
 Alpha  occ. eigenvalues --   -0.46766  -0.46591  -0.46345  -0.46238  -0.45969
 Alpha  occ. eigenvalues --   -0.45836  -0.45695  -0.45450  -0.45284  -0.45066
 Alpha  occ. eigenvalues --   -0.44851  -0.44186  -0.44119  -0.44080  -0.43881
 Alpha  occ. eigenvalues --   -0.43816  -0.43614  -0.43377  -0.43270  -0.43040
 Alpha  occ. eigenvalues --   -0.42935  -0.42763  -0.42672  -0.42583  -0.42203
 Alpha  occ. eigenvalues --   -0.42040  -0.41884  -0.41560  -0.41451  -0.41301
 Alpha  occ. eigenvalues --   -0.41259  -0.40640  -0.40363  -0.40292  -0.40085
 Alpha  occ. eigenvalues --   -0.39875  -0.39783  -0.39603  -0.39533  -0.39208
 Alpha  occ. eigenvalues --   -0.39188  -0.38988  -0.38827  -0.38704  -0.38586
 Alpha  occ. eigenvalues --   -0.38421  -0.38070  -0.37916  -0.37540  -0.37418
 Alpha  occ. eigenvalues --   -0.37325  -0.37270  -0.37120  -0.36944  -0.36772
 Alpha  occ. eigenvalues --   -0.36676  -0.36549  -0.36402  -0.36158  -0.35908
 Alpha  occ. eigenvalues --   -0.35819  -0.35669  -0.35410  -0.35254  -0.35168
 Alpha  occ. eigenvalues --   -0.34950  -0.34345  -0.34192  -0.34064  -0.33797
 Alpha  occ. eigenvalues --   -0.33535  -0.32922  -0.32347  -0.32224  -0.32204
 Alpha  occ. eigenvalues --   -0.31700  -0.31554  -0.31379  -0.31374  -0.31126
 Alpha  occ. eigenvalues --   -0.30944  -0.30376  -0.29724  -0.29448  -0.29147
 Alpha  occ. eigenvalues --   -0.28633  -0.28524  -0.28397  -0.26923  -0.25984
 Alpha  occ. eigenvalues --   -0.25623  -0.25273  -0.25254  -0.24144  -0.21251
 Alpha  occ. eigenvalues --   -0.19134
 Alpha virt. eigenvalues --   -0.11452  -0.05781  -0.04384  -0.02372  -0.01106
 Alpha virt. eigenvalues --    0.00029   0.00720   0.00781   0.01461   0.02940
 Alpha virt. eigenvalues --    0.04222   0.04616   0.05303   0.05529   0.06094

 Mulliken charges:
               1
     1  Mg   0.947589
     2  C   -0.029162
     3  C   -0.078341
     4  C   -0.064178
     5  C   -0.061308
     6  N   -0.355867
     7  C    0.041463
     8  C   -0.042437
     9  C   -0.184875
    10  C    0.069828
    11  C    0.005469
    12  C   -0.001228
    13  C   -0.048402
    14  C    0.236945
    15  O   -0.293845
    16  O   -0.358253
    17  N   -0.453759
    18  C    0.161187
    19  C   -0.141407
    20  C   -0.056364
    21  C    0.181405
    22  C    0.056741
    23  C    0.050285
    24  O   -0.236783
    25  C   -0.029875
    26  N   -0.389704
    27  C    0.049830
    28  C   -0.137920
    29  C   -0.115694
    30  C    0.092491
    31  C   -0.000986
    32  C   -0.025966
    33  C   -0.069957
    34  N   -0.495838
    35  C    0.145682
    36  C   -0.194318
    37  C    0.022289
    38  C    0.156362
    39  C    0.071668
    40  C    0.029131
    41  O   -0.246967
    42  C   -0.046264
    43  C    0.315868
    44  O   -0.300889
    45  O   -0.342678
    46  C    0.126921
    47  C    0.203716
    48  C   -0.134921
    49  C   -0.183569
    50  C    0.044556
    51  C    0.008389
    52  C   -0.041417
    53  C   -0.022724
    54  C   -0.213217
    55  C    0.007701
    56  C    0.011743
    57  C   -0.031620
    58  C   -0.036361
    59  C   -0.224995
    60  C   -0.034081
    61  C    0.003440
    62  C   -0.043802
    63  C    0.014265
    64  C   -0.253569
    65  C   -0.023531
    66  C   -0.019381
    67  H    0.016358
    68  H   -0.023518
    69  H    0.006019
    70  H    0.037871
    71  H    0.067986
    72  H    0.041375
    73  H    0.039343
    74  H    0.058681
    75  H    0.051235
    76  H    0.058733
    77  H    0.086010
    78  H    0.082848
    79  H    0.057382
    80  H    0.025383
    81  H    0.052906
    82  H    0.054798
    83  H    0.066097
    84  H    0.067859
    85  H    0.058665
    86  H    0.040677
    87  H    0.049596
    88  H    0.056703
    89  H    0.040399
    90  H    0.054666
    91  H    0.029727
    92  H    0.048638
    93  H    0.039367
    94  H    0.044870
    95  H    0.070440
    96  H    0.026961
    97  H    0.072214
    98  H    0.079880
    99  H    0.073647
   100  H    0.042946
   101  H    0.071283
   102  H    0.052556
   103  H    0.054784
   104  H    0.035500
   105  H    0.058585
   106  H    0.042594
   107  H    0.036003
   108  H    0.015300
   109  H    0.046465
   110  H    0.037450
   111  H    0.035954
   112  H    0.013983
   113  H    0.031048
   114  H    0.023765
   115  H    0.038302
   116  H    0.032930
   117  H    0.035609
   118  H    0.015510
   119  H    0.015323
   120  H    0.029431
   121  H    0.021949
   122  H    0.029890
   123  H    0.033937
   124  H    0.024692
   125  H    0.037268
   126  H    0.032684
   127  H    0.029436
   128  H    0.025591
   129  H    0.024107
   130  H    0.034335
   131  H    0.040653
   132  H    0.019294
   133  H    0.021698
   134  H    0.036797
   135  H    0.040007
   136  H    0.027862
   137  H    0.036784
   138  H    0.025561
   139  H    0.031783
   140  H    0.038019
 Sum of Mulliken charges =  -0.00000

 Dipole moment (field-independent basis, Debye):
    X=             -0.6452    Y=              2.6560    Z=              0.0437  Tot=              2.7335
 Quadrupole moment (field-independent basis, Debye-Ang):
   XX=           -392.5544   YY=           -380.8314   ZZ=           -404.0182
   XY=            -43.5654   XZ=             -5.9534   YZ=            -22.2467

 Normal termination of Gaussian 16 at Wed Apr 27 13:05:28 2022.
