 Gaussian 16, Revision A.03,
 Gaussian 16:  ES64L-G16RevA.03 25-Dec-2016

 --------------------------------
 #p wB97XD/Def2SVP td=(nstates=5)
 --------------------------------

 -----------------------------------------------------
 step_1201_chromophore_11 TDDFT with wB97XD functional
 -----------------------------------------------------
 Symbolic Z-matrix:
 Charge =  0 Multiplicity = 1

                         Standard orientation:
 ---------------------------------------------------------------------
 Center     Atomic      Atomic             Coordinates (Angstroms)
 Number     Number       Type             X           Y           Z
 ---------------------------------------------------------------------
      1         12           0       -4.701970    1.220400    0.497274
      2          6           0       -5.326932   -2.216142    0.089340
      3          6           0       -2.336138    0.512959    2.810283
      4          6           0       -3.807743    4.460650    0.596491
      5          6           0       -6.927761    1.875876   -2.130863
      6          7           0       -3.880499   -0.673619    1.300155
      7          6           0       -4.344994   -1.942136    1.071242
      8          6           0       -3.685670   -2.823710    2.077614
      9          6           0       -2.848460   -1.960815    3.013436
     10          6           0       -3.001527   -0.628706    2.280272
     11          6           0       -3.332619   -1.879011    4.559316
     12          6           0       -2.814669   -4.007582    1.500850
     13          6           0       -1.683550   -3.606610    0.501572
     14          6           0       -0.261251   -4.132748    0.841193
     15          8           0        0.243301   -4.242283    1.978405
     16          8           0        0.391200   -4.482419   -0.317033
     17          7           0       -3.158718    2.349471    1.478453
     18          6           0       -2.400855    1.894510    2.478580
     19          6           0       -1.626942    2.932959    3.055443
     20          6           0       -2.001651    4.170467    2.382791
     21          6           0       -3.037396    3.717809    1.416313
     22          6           0       -0.575074    2.813659    4.142156
     23          6           0       -1.504527    5.589680    2.648653
     24          8           0       -0.667084    5.733763    3.527915
     25          6           0       -2.125597    6.871870    2.040799
     26          7           0       -5.104290    2.879346   -0.801787
     27          6           0       -4.800641    4.155198   -0.311675
     28          6           0       -5.445416    5.217365   -1.200866
     29          6           0       -6.355773    4.336484   -2.194791
     30          6           0       -6.081806    2.901269   -1.697173
     31          6           0       -6.216485    6.304311   -0.295711
     32          6           0       -6.050697    4.504923   -3.734209
     33          6           0       -7.049909    5.378658   -4.556962
     34          7           0       -5.960056    0.135326   -0.737066
     35          6           0       -6.869768    0.515102   -1.706564
     36          6           0       -7.695123   -0.608647   -2.074332
     37          6           0       -7.075532   -1.729812   -1.449303
     38          6           0       -6.016173   -1.237494   -0.660880
     39          6           0       -8.923187   -0.631835   -3.038160
     40          6           0       -7.133947   -3.129190   -1.152564
     41          8           0       -7.903435   -4.031216   -1.550444
     42          6           0       -5.946738   -3.561237   -0.304626
     43          6           0       -5.166777   -4.450839   -1.130130
     44          8           0       -4.181543   -4.077839   -1.832450
     45          8           0       -5.618929   -5.729592   -1.031518
     46          6           0       -4.812377   -6.694466   -1.779009
     47          6           0        1.748602   -5.048417   -0.052676
     48          6           0        2.817260   -3.866498   -0.051895
     49          6           0        3.973687   -3.695718    0.671196
     50          6           0        4.490390   -4.607420    1.772508
     51          6           0        4.751172   -2.469945    0.493514
     52          6           0        5.302869   -2.135569   -0.939889
     53          6           0        6.608241   -1.319923   -0.985579
     54          6           0        6.416363    0.259717   -1.039732
     55          6           0        6.422612    0.857840   -2.399090
     56          6           0        7.266355    0.940690    0.045533
     57          6           0        8.722225    1.090259   -0.331504
     58          6           0        9.528253   -0.090239    0.120985
     59          6           0       11.012319    0.132917    0.554041
     60          6           0       11.016213    0.741378    2.009972
     61          6           0       11.808876    0.991172   -0.366075
     62          6           0       13.343006    0.845049   -0.032532
     63          6           0       14.106573    0.367027   -1.284856
     64          6           0       15.009997    1.445914   -1.918282
     65          6           0       14.673960    1.713681   -3.441983
     66          6           0       16.548601    1.379709   -1.582066
     67          1           0       -1.589879    0.272289    3.569638
     68          1           0       -3.758333    5.539482    0.759626
     69          1           0       -7.637498    2.122037   -2.923595
     70          1           0       -4.501012   -3.182075    2.706025
     71          1           0       -1.839439   -2.364358    3.104449
     72          1           0       -4.417038   -1.976415    4.621208
     73          1           0       -3.063063   -0.864762    4.855017
     74          1           0       -2.808950   -2.597108    5.189142
     75          1           0       -3.400581   -4.719819    0.920199
     76          1           0       -2.457639   -4.493481    2.409229
     77          1           0       -1.574630   -2.526387    0.413242
     78          1           0       -1.989418   -4.007116   -0.465293
     79          1           0        0.457157    2.866044    3.794275
     80          1           0       -0.673617    1.918087    4.755499
     81          1           0       -0.530411    3.581338    4.914496
     82          1           0       -1.563427    7.735539    2.394476
     83          1           0       -3.113853    7.011420    2.477818
     84          1           0       -2.256595    6.907043    0.959216
     85          1           0       -4.646441    5.726369   -1.740817
     86          1           0       -7.396457    4.612229   -2.024396
     87          1           0       -5.756611    7.283923   -0.427959
     88          1           0       -6.219970    5.995905    0.749498
     89          1           0       -7.239413    6.323224   -0.670610
     90          1           0       -5.799797    3.555544   -4.206280
     91          1           0       -5.116219    5.065909   -3.697213
     92          1           0       -6.455701    6.209423   -4.936219
     93          1           0       -7.893910    5.656161   -3.925912
     94          1           0       -7.522355    4.937648   -5.434758
     95          1           0       -8.674394   -1.451463   -3.712573
     96          1           0       -8.952873    0.232513   -3.701617
     97          1           0       -9.863170   -0.656139   -2.486740
     98          1           0       -6.457638   -4.064779    0.516098
     99          1           0       -5.341381   -6.858591   -2.717750
    100          1           0       -4.900413   -7.612781   -1.197998
    101          1           0       -3.733178   -6.546078   -1.775126
    102          1           0        1.855875   -5.802311   -0.832994
    103          1           0        1.786624   -5.672550    0.839764
    104          1           0        2.518071   -3.115162   -0.784038
    105          1           0        4.647530   -4.065632    2.705845
    106          1           0        5.491315   -4.932731    1.488431
    107          1           0        3.796836   -5.447930    1.774076
    108          1           0        5.514016   -2.288738    1.250784
    109          1           0        4.065331   -1.639984    0.662772
    110          1           0        4.567096   -1.491346   -1.419853
    111          1           0        5.556742   -3.058354   -1.461558
    112          1           0        7.145160   -1.599707   -1.892239
    113          1           0        7.286754   -1.666157   -0.205069
    114          1           0        5.366537    0.412278   -0.788750
    115          1           0        6.493972    1.944131   -2.344516
    116          1           0        5.461266    0.652626   -2.870754
    117          1           0        7.205000    0.427325   -3.023413
    118          1           0        7.363718    0.398988    0.986898
    119          1           0        6.796344    1.880126    0.335019
    120          1           0        9.121198    2.000294    0.116650
    121          1           0        8.826203    1.099185   -1.416302
    122          1           0        9.648826   -0.723816   -0.756934
    123          1           0        9.130833   -0.545860    1.027958
    124          1           0       11.520471   -0.830787    0.587232
    125          1           0       11.038162   -0.045407    2.763146
    126          1           0       10.152920    1.392707    2.150680
    127          1           0       11.894506    1.367463    2.168026
    128          1           0       11.535696    2.031618   -0.194026
    129          1           0       11.485549    0.654765   -1.351474
    130          1           0       13.499720    0.053929    0.699941
    131          1           0       13.723368    1.799484    0.333711
    132          1           0       13.424563    0.030414   -2.066009
    133          1           0       14.674374   -0.522745   -1.013157
    134          1           0       14.769479    2.428449   -1.512089
    135          1           0       13.999847    0.934395   -3.795271
    136          1           0       15.572306    1.764078   -4.056992
    137          1           0       14.256822    2.720880   -3.469664
    138          1           0       16.823153    2.414033   -1.375628
    139          1           0       17.184904    1.128614   -2.430893
    140          1           0       16.824350    0.774530   -0.718885
 ---------------------------------------------------------------------

 SCF Done:  E(RwB97XD) =  -3007.86337133     A.U. after   19 cycles

 Excitation energies and oscillator strengths:

 Excited State   1:      Singlet-A      1.6767 eV  739.47 nm  f=0.3874  <S**2>=0.000
     245 -> 248       -0.18999
     246 -> 247        0.68105
     245 <- 248       -0.11578
 This state for optimization and/or second-order correction.
 Total Energy, E(TD-HF/TD-DFT) =  -3007.80175522
 Copying the excited state density for this state as the 1-particle RhoCI density.

 Excited State   2:      Singlet-A      2.1681 eV  571.84 nm  f=0.0985  <S**2>=0.000
     245 -> 247        0.63315
     246 -> 248        0.29499

 Excited State   3:      Singlet-A      3.3411 eV  371.09 nm  f=0.0025  <S**2>=0.000
     242 -> 247       -0.32003
     243 -> 247        0.60512

 Excited State   4:      Singlet-A      3.3929 eV  365.43 nm  f=0.0007  <S**2>=0.000
     241 -> 247        0.44865
     241 -> 249        0.30130
     241 -> 250       -0.20007
     242 -> 247       -0.28903
     242 -> 249       -0.15781
     243 -> 247       -0.12383

 Excited State   5:      Singlet-A      3.4365 eV  360.79 nm  f=0.1567  <S**2>=0.000
     241 -> 247        0.25417
     242 -> 247        0.37040
     243 -> 247        0.25417
     245 -> 247       -0.13931
     246 -> 248        0.44139

 The electronic state is 1-A.
 Alpha  occ. eigenvalues --  -46.95727 -19.30774 -19.30203 -19.24383 -19.24284
 Alpha  occ. eigenvalues --  -19.24144 -19.23074 -14.47163 -14.46537 -14.44127
 Alpha  occ. eigenvalues --  -14.43874 -10.43329 -10.43048 -10.39886 -10.38585
 Alpha  occ. eigenvalues --  -10.36022 -10.35379 -10.35311 -10.35223 -10.35208
 Alpha  occ. eigenvalues --  -10.34642 -10.34401 -10.33986 -10.33866 -10.33118
 Alpha  occ. eigenvalues --  -10.33115 -10.32742 -10.32649 -10.32632 -10.32118
 Alpha  occ. eigenvalues --  -10.32077 -10.31976 -10.31765 -10.31560 -10.31218
 Alpha  occ. eigenvalues --  -10.31052 -10.30989 -10.30969 -10.30956 -10.30888
 Alpha  occ. eigenvalues --  -10.30797 -10.30667 -10.30488 -10.30447 -10.30368
 Alpha  occ. eigenvalues --  -10.29945 -10.29765 -10.29586 -10.29534 -10.29466
 Alpha  occ. eigenvalues --  -10.29372 -10.29111 -10.29054 -10.28737 -10.28710
 Alpha  occ. eigenvalues --  -10.28617 -10.28415 -10.28214 -10.28162 -10.28117
 Alpha  occ. eigenvalues --  -10.28091 -10.28019 -10.27970 -10.27909 -10.27888
 Alpha  occ. eigenvalues --  -10.27871  -3.21601  -1.95182  -1.94708  -1.94581
 Alpha  occ. eigenvalues --   -1.18376  -1.17240  -1.12584  -1.10354  -1.08309
 Alpha  occ. eigenvalues --   -1.08253  -1.07423  -1.06168  -1.05524  -1.04565
 Alpha  occ. eigenvalues --   -0.95160  -0.92404  -0.91585  -0.91512  -0.90998
 Alpha  occ. eigenvalues --   -0.90309  -0.89790  -0.89260  -0.88645  -0.87927
 Alpha  occ. eigenvalues --   -0.87624  -0.86974  -0.86191  -0.85709  -0.85287
 Alpha  occ. eigenvalues --   -0.83945  -0.83720  -0.83291  -0.82780  -0.81953
 Alpha  occ. eigenvalues --   -0.81551  -0.79809  -0.79509  -0.79022  -0.78325
 Alpha  occ. eigenvalues --   -0.77699  -0.77359  -0.76910  -0.76522  -0.75952
 Alpha  occ. eigenvalues --   -0.75219  -0.74781  -0.74212  -0.72319  -0.71175
 Alpha  occ. eigenvalues --   -0.70997  -0.70870  -0.69753  -0.68698  -0.67692
 Alpha  occ. eigenvalues --   -0.67639  -0.67444  -0.67238  -0.66534  -0.64555
 Alpha  occ. eigenvalues --   -0.64360  -0.64128  -0.64016  -0.62373  -0.62276
 Alpha  occ. eigenvalues --   -0.61840  -0.61495  -0.61211  -0.60947  -0.60407
 Alpha  occ. eigenvalues --   -0.59685  -0.58804  -0.58349  -0.58093  -0.57703
 Alpha  occ. eigenvalues --   -0.57614  -0.57044  -0.56325  -0.55943  -0.55605
 Alpha  occ. eigenvalues --   -0.55379  -0.55110  -0.54950  -0.54723  -0.54533
 Alpha  occ. eigenvalues --   -0.54165  -0.53905  -0.53773  -0.53693  -0.53484
 Alpha  occ. eigenvalues --   -0.53274  -0.53031  -0.52823  -0.52591  -0.52308
 Alpha  occ. eigenvalues --   -0.52149  -0.51679  -0.51508  -0.51468  -0.51266
 Alpha  occ. eigenvalues --   -0.51125  -0.50969  -0.50722  -0.50513  -0.50385
 Alpha  occ. eigenvalues --   -0.50194  -0.50061  -0.49972  -0.49857  -0.49469
 Alpha  occ. eigenvalues --   -0.49358  -0.49215  -0.48751  -0.48738  -0.48605
 Alpha  occ. eigenvalues --   -0.48462  -0.47883  -0.47682  -0.47520  -0.47204
 Alpha  occ. eigenvalues --   -0.47116  -0.47003  -0.46770  -0.46703  -0.46391
 Alpha  occ. eigenvalues --   -0.46274  -0.46145  -0.46027  -0.45862  -0.45735
 Alpha  occ. eigenvalues --   -0.45598  -0.45197  -0.44951  -0.44755  -0.44588
 Alpha  occ. eigenvalues --   -0.44542  -0.44422  -0.44227  -0.44057  -0.43881
 Alpha  occ. eigenvalues --   -0.43732  -0.43599  -0.43492  -0.43270  -0.42928
 Alpha  occ. eigenvalues --   -0.42833  -0.42808  -0.42422  -0.42254  -0.42166
 Alpha  occ. eigenvalues --   -0.42022  -0.41434  -0.41275  -0.41017  -0.40836
 Alpha  occ. eigenvalues --   -0.40489  -0.39877  -0.39376  -0.39263  -0.39225
 Alpha  occ. eigenvalues --   -0.38643  -0.38568  -0.38427  -0.38380  -0.38162
 Alpha  occ. eigenvalues --   -0.37927  -0.37353  -0.36486  -0.36089  -0.36086
 Alpha  occ. eigenvalues --   -0.35803  -0.35503  -0.35398  -0.33478  -0.33286
 Alpha  occ. eigenvalues --   -0.32363  -0.32158  -0.31787  -0.30868  -0.26231
 Alpha  occ. eigenvalues --   -0.23305
 Alpha virt. eigenvalues --   -0.07340  -0.00394   0.01856   0.04091   0.04779
 Alpha virt. eigenvalues --    0.06820   0.07390   0.07569   0.08240   0.09624
 Alpha virt. eigenvalues --    0.10702   0.11275   0.11956   0.12242   0.12785

 Mulliken charges:
               1
     1  Mg   0.940593
     2  C   -0.029179
     3  C   -0.096377
     4  C   -0.076058
     5  C   -0.081055
     6  N   -0.316969
     7  C   -0.000562
     8  C   -0.010650
     9  C   -0.166226
    10  C    0.054119
    11  C    0.019123
    12  C    0.015922
    13  C   -0.029741
    14  C    0.226282
    15  O   -0.291716
    16  O   -0.359119
    17  N   -0.420680
    18  C    0.157127
    19  C   -0.131622
    20  C   -0.053767
    21  C    0.183896
    22  C    0.064243
    23  C    0.045309
    24  O   -0.232361
    25  C   -0.015448
    26  N   -0.358722
    27  C    0.043960
    28  C   -0.115730
    29  C   -0.089137
    30  C    0.079675
    31  C    0.011448
    32  C   -0.012436
    33  C   -0.053710
    34  N   -0.460533
    35  C    0.139444
    36  C   -0.199239
    37  C    0.024726
    38  C    0.138633
    39  C    0.085033
    40  C    0.014747
    41  O   -0.239653
    42  C   -0.007666
    43  C    0.291144
    44  O   -0.294452
    45  O   -0.341767
    46  C    0.141558
    47  C    0.223671
    48  C   -0.148586
    49  C   -0.170339
    50  C    0.061643
    51  C    0.022899
    52  C   -0.017782
    53  C   -0.010798
    54  C   -0.182384
    55  C    0.016238
    56  C    0.035618
    57  C   -0.019715
    58  C   -0.014737
    59  C   -0.193212
    60  C   -0.023346
    61  C    0.018863
    62  C   -0.027336
    63  C    0.030248
    64  C   -0.226907
    65  C   -0.009642
    66  C   -0.007811
    67  H    0.008741
    68  H   -0.041591
    69  H    0.000126
    70  H    0.026313
    71  H    0.058030
    72  H    0.035599
    73  H    0.030431
    74  H    0.054707
    75  H    0.038579
    76  H    0.050850
    77  H    0.076866
    78  H    0.075745
    79  H    0.054723
    80  H    0.021085
    81  H    0.050104
    82  H    0.054011
    83  H    0.060855
    84  H    0.064171
    85  H    0.048470
    86  H    0.026834
    87  H    0.044464
    88  H    0.049854
    89  H    0.034704
    90  H    0.047889
    91  H    0.019116
    92  H    0.042877
    93  H    0.032247
    94  H    0.039444
    95  H    0.065010
    96  H    0.020429
    97  H    0.067535
    98  H    0.074874
    99  H    0.070594
   100  H    0.038776
   101  H    0.067093
   102  H    0.049050
   103  H    0.047933
   104  H    0.032531
   105  H    0.053780
   106  H    0.036051
   107  H    0.028799
   108  H    0.007758
   109  H    0.037535
   110  H    0.026074
   111  H    0.028166
   112  H    0.004979
   113  H    0.018068
   114  H    0.010006
   115  H    0.032871
   116  H    0.027574
   117  H    0.028873
   118  H    0.002071
   119  H    0.009212
   120  H    0.019918
   121  H    0.010433
   122  H    0.019656
   123  H    0.022320
   124  H    0.012369
   125  H    0.032420
   126  H    0.024560
   127  H    0.022496
   128  H    0.015920
   129  H    0.012914
   130  H    0.025241
   131  H    0.032447
   132  H    0.007292
   133  H    0.014732
   134  H    0.022883
   135  H    0.033710
   136  H    0.021791
   137  H    0.031240
   138  H    0.019588
   139  H    0.025474
   140  H    0.032716
 Sum of Mulliken charges =  -0.00000

 Dipole moment (field-independent basis, Debye):
    X=             -0.4081    Y=              2.8661    Z=              0.3130  Tot=              2.9118
 Quadrupole moment (field-independent basis, Debye-Ang):
   XX=           -394.1961   YY=           -379.2132   ZZ=           -403.6654
   XY=            -43.9355   XZ=             -7.2905   YZ=            -21.2163

 Normal termination of Gaussian 16 at Wed Apr 27 13:31:04 2022.
