 Gaussian 16, Revision A.03,
 Gaussian 16:  ES64L-G16RevA.03 25-Dec-2016

 --------------------
 #p ZINDO=(nstates=5)
 --------------------

 ------------------------------
 step_1201_chromophore_11 ZINDO
 ------------------------------
 Symbolic Z-matrix:
 Charge =  0 Multiplicity = 1

                         Standard orientation:
 ---------------------------------------------------------------------
 Center     Atomic      Atomic             Coordinates (Angstroms)
 Number     Number       Type             X           Y           Z
 ---------------------------------------------------------------------
      1         12           0       -4.701970    1.220400    0.497274
      2          6           0       -5.326932   -2.216142    0.089340
      3          6           0       -2.336138    0.512959    2.810283
      4          6           0       -3.807743    4.460650    0.596491
      5          6           0       -6.927761    1.875876   -2.130863
      6          7           0       -3.880499   -0.673619    1.300155
      7          6           0       -4.344994   -1.942136    1.071242
      8          6           0       -3.685670   -2.823710    2.077614
      9          6           0       -2.848460   -1.960815    3.013436
     10          6           0       -3.001527   -0.628706    2.280272
     11          6           0       -3.332619   -1.879011    4.559316
     12          6           0       -2.814669   -4.007582    1.500850
     13          6           0       -1.683550   -3.606610    0.501572
     14          6           0       -0.261251   -4.132748    0.841193
     15          8           0        0.243301   -4.242283    1.978405
     16          8           0        0.391200   -4.482419   -0.317033
     17          7           0       -3.158718    2.349471    1.478453
     18          6           0       -2.400855    1.894510    2.478580
     19          6           0       -1.626942    2.932959    3.055443
     20          6           0       -2.001651    4.170467    2.382791
     21          6           0       -3.037396    3.717809    1.416313
     22          6           0       -0.575074    2.813659    4.142156
     23          6           0       -1.504527    5.589680    2.648653
     24          8           0       -0.667084    5.733763    3.527915
     25          6           0       -2.125597    6.871870    2.040799
     26          7           0       -5.104290    2.879346   -0.801787
     27          6           0       -4.800641    4.155198   -0.311675
     28          6           0       -5.445416    5.217365   -1.200866
     29          6           0       -6.355773    4.336484   -2.194791
     30          6           0       -6.081806    2.901269   -1.697173
     31          6           0       -6.216485    6.304311   -0.295711
     32          6           0       -6.050697    4.504923   -3.734209
     33          6           0       -7.049909    5.378658   -4.556962
     34          7           0       -5.960056    0.135326   -0.737066
     35          6           0       -6.869768    0.515102   -1.706564
     36          6           0       -7.695123   -0.608647   -2.074332
     37          6           0       -7.075532   -1.729812   -1.449303
     38          6           0       -6.016173   -1.237494   -0.660880
     39          6           0       -8.923187   -0.631835   -3.038160
     40          6           0       -7.133947   -3.129190   -1.152564
     41          8           0       -7.903435   -4.031216   -1.550444
     42          6           0       -5.946738   -3.561237   -0.304626
     43          6           0       -5.166777   -4.450839   -1.130130
     44          8           0       -4.181543   -4.077839   -1.832450
     45          8           0       -5.618929   -5.729592   -1.031518
     46          6           0       -4.812377   -6.694466   -1.779009
     47          6           0        1.748602   -5.048417   -0.052676
     48          6           0        2.817260   -3.866498   -0.051895
     49          6           0        3.973687   -3.695718    0.671196
     50          6           0        4.490390   -4.607420    1.772508
     51          6           0        4.751172   -2.469945    0.493514
     52          6           0        5.302869   -2.135569   -0.939889
     53          6           0        6.608241   -1.319923   -0.985579
     54          6           0        6.416363    0.259717   -1.039732
     55          6           0        6.422612    0.857840   -2.399090
     56          6           0        7.266355    0.940690    0.045533
     57          6           0        8.722225    1.090259   -0.331504
     58          6           0        9.528253   -0.090239    0.120985
     59          6           0       11.012319    0.132917    0.554041
     60          6           0       11.016213    0.741378    2.009972
     61          6           0       11.808876    0.991172   -0.366075
     62          6           0       13.343006    0.845049   -0.032532
     63          6           0       14.106573    0.367027   -1.284856
     64          6           0       15.009997    1.445914   -1.918282
     65          6           0       14.673960    1.713681   -3.441983
     66          6           0       16.548601    1.379709   -1.582066
     67          1           0       -1.589879    0.272289    3.569638
     68          1           0       -3.758333    5.539482    0.759626
     69          1           0       -7.637498    2.122037   -2.923595
     70          1           0       -4.501012   -3.182075    2.706025
     71          1           0       -1.839439   -2.364358    3.104449
     72          1           0       -4.417038   -1.976415    4.621208
     73          1           0       -3.063063   -0.864762    4.855017
     74          1           0       -2.808950   -2.597108    5.189142
     75          1           0       -3.400581   -4.719819    0.920199
     76          1           0       -2.457639   -4.493481    2.409229
     77          1           0       -1.574630   -2.526387    0.413242
     78          1           0       -1.989418   -4.007116   -0.465293
     79          1           0        0.457157    2.866044    3.794275
     80          1           0       -0.673617    1.918087    4.755499
     81          1           0       -0.530411    3.581338    4.914496
     82          1           0       -1.563427    7.735539    2.394476
     83          1           0       -3.113853    7.011420    2.477818
     84          1           0       -2.256595    6.907043    0.959216
     85          1           0       -4.646441    5.726369   -1.740817
     86          1           0       -7.396457    4.612229   -2.024396
     87          1           0       -5.756611    7.283923   -0.427959
     88          1           0       -6.219970    5.995905    0.749498
     89          1           0       -7.239413    6.323224   -0.670610
     90          1           0       -5.799797    3.555544   -4.206280
     91          1           0       -5.116219    5.065909   -3.697213
     92          1           0       -6.455701    6.209423   -4.936219
     93          1           0       -7.893910    5.656161   -3.925912
     94          1           0       -7.522355    4.937648   -5.434758
     95          1           0       -8.674394   -1.451463   -3.712573
     96          1           0       -8.952873    0.232513   -3.701617
     97          1           0       -9.863170   -0.656139   -2.486740
     98          1           0       -6.457638   -4.064779    0.516098
     99          1           0       -5.341381   -6.858591   -2.717750
    100          1           0       -4.900413   -7.612781   -1.197998
    101          1           0       -3.733178   -6.546078   -1.775126
    102          1           0        1.855875   -5.802311   -0.832994
    103          1           0        1.786624   -5.672550    0.839764
    104          1           0        2.518071   -3.115162   -0.784038
    105          1           0        4.647530   -4.065632    2.705845
    106          1           0        5.491315   -4.932731    1.488431
    107          1           0        3.796836   -5.447930    1.774076
    108          1           0        5.514016   -2.288738    1.250784
    109          1           0        4.065331   -1.639984    0.662772
    110          1           0        4.567096   -1.491346   -1.419853
    111          1           0        5.556742   -3.058354   -1.461558
    112          1           0        7.145160   -1.599707   -1.892239
    113          1           0        7.286754   -1.666157   -0.205069
    114          1           0        5.366537    0.412278   -0.788750
    115          1           0        6.493972    1.944131   -2.344516
    116          1           0        5.461266    0.652626   -2.870754
    117          1           0        7.205000    0.427325   -3.023413
    118          1           0        7.363718    0.398988    0.986898
    119          1           0        6.796344    1.880126    0.335019
    120          1           0        9.121198    2.000294    0.116650
    121          1           0        8.826203    1.099185   -1.416302
    122          1           0        9.648826   -0.723816   -0.756934
    123          1           0        9.130833   -0.545860    1.027958
    124          1           0       11.520471   -0.830787    0.587232
    125          1           0       11.038162   -0.045407    2.763146
    126          1           0       10.152920    1.392707    2.150680
    127          1           0       11.894506    1.367463    2.168026
    128          1           0       11.535696    2.031618   -0.194026
    129          1           0       11.485549    0.654765   -1.351474
    130          1           0       13.499720    0.053929    0.699941
    131          1           0       13.723368    1.799484    0.333711
    132          1           0       13.424563    0.030414   -2.066009
    133          1           0       14.674374   -0.522745   -1.013157
    134          1           0       14.769479    2.428449   -1.512089
    135          1           0       13.999847    0.934395   -3.795271
    136          1           0       15.572306    1.764078   -4.056992
    137          1           0       14.256822    2.720880   -3.469664
    138          1           0       16.823153    2.414033   -1.375628
    139          1           0       17.184904    1.128614   -2.430893
    140          1           0       16.824350    0.774530   -0.718885
 ---------------------------------------------------------------------

 SCF Done:  E(RZINDO/S) =  -474.172396140     A.U. after   20 cycles

 Excitation energies and oscillator strengths:

 Excited State   1:      Singlet-A      1.2768 eV  971.02 nm  f=0.5941  <S**2>=0.000
     175 ->178         0.19140
     176 ->177         0.66226
 This state for optimization and/or second-order correction.
 Total Energy, E(CIS/TDA) =  -474.125473043
 Copying the excited state density for this state as the 1-particle RhoCI density.

 Excited State   2:      Singlet-A      1.8884 eV  656.55 nm  f=0.0383  <S**2>=0.000
     175 ->177         0.54086
     176 ->178        -0.42615

 Excited State   3:      Singlet-A      2.8672 eV  432.42 nm  f=0.0108  <S**2>=0.000
     170 ->177         0.31953
     170 ->178        -0.11347
     170 ->179        -0.40154
     170 ->180        -0.27192
     170 ->183         0.10995
     170 ->185        -0.16091
     170 ->187        -0.16683
     170 ->200         0.12432
     176 ->179        -0.10569

 Excited State   4:      Singlet-A      2.9441 eV  421.13 nm  f=0.0012  <S**2>=0.000
     167 ->179         0.10671
     167 ->180        -0.10084
     168 ->177         0.28599
     168 ->178        -0.19821
     168 ->179         0.32480
     168 ->180        -0.29821
     168 ->183         0.18655
     168 ->185         0.23043

 Excited State   5:      Singlet-A      2.9594 eV  418.95 nm  f=0.3783  <S**2>=0.000
     175 ->177         0.23924
     176 ->178         0.28739
     176 ->179         0.52394
     176 ->180         0.10501
     176 ->183        -0.10992

 The electronic state is 1-A.
 Alpha  occ. eigenvalues --   -1.84704  -1.81948  -1.81065  -1.74241  -1.71552
 Alpha  occ. eigenvalues --   -1.70187  -1.68293  -1.60999  -1.59292  -1.59064
 Alpha  occ. eigenvalues --   -1.54405  -1.50535  -1.48015  -1.47361  -1.45493
 Alpha  occ. eigenvalues --   -1.42575  -1.41353  -1.39604  -1.38783  -1.38215
 Alpha  occ. eigenvalues --   -1.34666  -1.32033  -1.31437  -1.30509  -1.27687
 Alpha  occ. eigenvalues --   -1.26944  -1.25971  -1.22708  -1.20132  -1.18318
 Alpha  occ. eigenvalues --   -1.17677  -1.15541  -1.15293  -1.14213  -1.13860
 Alpha  occ. eigenvalues --   -1.12747  -1.10589  -1.09775  -1.05205  -1.04192
 Alpha  occ. eigenvalues --   -1.02294  -1.01669  -1.01269  -0.98256  -0.97359
 Alpha  occ. eigenvalues --   -0.95800  -0.94900  -0.93470  -0.92643  -0.91874
 Alpha  occ. eigenvalues --   -0.90983  -0.89668  -0.89557  -0.86987  -0.85688
 Alpha  occ. eigenvalues --   -0.83987  -0.83968  -0.83044  -0.80916  -0.79952
 Alpha  occ. eigenvalues --   -0.79767  -0.79541  -0.78682  -0.77546  -0.76566
 Alpha  occ. eigenvalues --   -0.75973  -0.75604  -0.75473  -0.74457  -0.74016
 Alpha  occ. eigenvalues --   -0.73118  -0.71921  -0.70885  -0.70544  -0.70502
 Alpha  occ. eigenvalues --   -0.70187  -0.69629  -0.68866  -0.68187  -0.67645
 Alpha  occ. eigenvalues --   -0.67180  -0.66866  -0.66170  -0.65752  -0.65262
 Alpha  occ. eigenvalues --   -0.64782  -0.64431  -0.64061  -0.63871  -0.63734
 Alpha  occ. eigenvalues --   -0.63413  -0.63345  -0.62699  -0.62383  -0.61502
 Alpha  occ. eigenvalues --   -0.61243  -0.60754  -0.60489  -0.59996  -0.59054
 Alpha  occ. eigenvalues --   -0.58827  -0.58342  -0.58323  -0.58142  -0.57903
 Alpha  occ. eigenvalues --   -0.57774  -0.57295  -0.57105  -0.56689  -0.56602
 Alpha  occ. eigenvalues --   -0.56418  -0.55702  -0.55034  -0.54916  -0.54427
 Alpha  occ. eigenvalues --   -0.54207  -0.53934  -0.53312  -0.53204  -0.52695
 Alpha  occ. eigenvalues --   -0.52528  -0.52385  -0.52098  -0.51811  -0.51356
 Alpha  occ. eigenvalues --   -0.51109  -0.50786  -0.50397  -0.50287  -0.50169
 Alpha  occ. eigenvalues --   -0.49886  -0.49662  -0.49411  -0.49330  -0.49037
 Alpha  occ. eigenvalues --   -0.48875  -0.48712  -0.48337  -0.48315  -0.47806
 Alpha  occ. eigenvalues --   -0.47588  -0.47511  -0.47259  -0.46734  -0.46663
 Alpha  occ. eigenvalues --   -0.46020  -0.45945  -0.45679  -0.45477  -0.45027
 Alpha  occ. eigenvalues --   -0.44932  -0.44817  -0.44130  -0.44044  -0.43913
 Alpha  occ. eigenvalues --   -0.43791  -0.42963  -0.42805  -0.42386  -0.41684
 Alpha  occ. eigenvalues --   -0.41470  -0.41051  -0.40993  -0.39453  -0.38657
 Alpha  occ. eigenvalues --   -0.38227  -0.37318  -0.35999  -0.35355  -0.34532
 Alpha  occ. eigenvalues --   -0.33402  -0.32690  -0.32140  -0.31461  -0.26861
 Alpha  occ. eigenvalues --   -0.22141
 Alpha virt. eigenvalues --   -0.08776  -0.02744  -0.01187   0.00637   0.01519
 Alpha virt. eigenvalues --    0.01915   0.02645   0.02931   0.04459   0.04788
 Alpha virt. eigenvalues --    0.06211   0.06659   0.07067   0.07904   0.08016

 Mulliken charges:
               1
     1  Mg   0.431034
     2  C   -0.038321
     3  C   -0.088486
     4  C   -0.067572
     5  C   -0.071974
     6  N   -0.263739
     7  C    0.107887
     8  C    0.012710
     9  C   -0.009184
    10  C    0.162447
    11  C   -0.057877
    12  C   -0.022668
    13  C    0.007961
    14  C    0.465740
    15  O   -0.535400
    16  O   -0.260397
    17  N   -0.333778
    18  C    0.141314
    19  C    0.053927
    20  C   -0.057198
    21  C    0.138959
    22  C   -0.039906
    23  C    0.327243
    24  O   -0.511277
    25  C   -0.027301
    26  N   -0.270819
    27  C    0.136312
    28  C   -0.008788
    29  C   -0.005818
    30  C    0.124200
    31  C   -0.056595
    32  C   -0.033330
    33  C   -0.059623
    34  N   -0.333861
    35  C    0.091528
    36  C    0.009654
    37  C   -0.051605
    38  C    0.106436
    39  C   -0.043143
    40  C    0.336624
    41  O   -0.556194
    42  C    0.064081
    43  C    0.504988
    44  O   -0.562825
    45  O   -0.247830
    46  C    0.073356
    47  C    0.098570
    48  C   -0.097857
    49  C    0.016360
    50  C   -0.042767
    51  C   -0.020948
    52  C   -0.032915
    53  C   -0.042652
    54  C   -0.005338
    55  C   -0.043149
    56  C   -0.030927
    57  C   -0.027296
    58  C   -0.039309
    59  C   -0.020036
    60  C   -0.063727
    61  C   -0.032545
    62  C   -0.037725
    63  C   -0.031149
    64  C   -0.021538
    65  C   -0.062840
    66  C   -0.059376
    67  H    0.026167
    68  H    0.016195
    69  H    0.028506
    70  H    0.024243
    71  H    0.042696
    72  H    0.024899
    73  H    0.022272
    74  H    0.030499
    75  H    0.023783
    76  H    0.030600
    77  H    0.050756
    78  H    0.050932
    79  H    0.039841
    80  H    0.015412
    81  H    0.038241
    82  H    0.036891
    83  H    0.035247
    84  H    0.036697
    85  H    0.037343
    86  H    0.029187
    87  H    0.024396
    88  H    0.028658
    89  H    0.022316
    90  H    0.032788
    91  H    0.013414
    92  H    0.021545
    93  H    0.021916
    94  H    0.021920
    95  H    0.038773
    96  H    0.015987
    97  H    0.042597
    98  H    0.060156
    99  H    0.054280
   100  H    0.017008
   101  H    0.056388
   102  H    0.033116
   103  H    0.050367
   104  H    0.030218
   105  H    0.038273
   106  H    0.024163
   107  H    0.030038
   108  H    0.019281
   109  H    0.018945
   110  H    0.028612
   111  H    0.021621
   112  H    0.007747
   113  H    0.020573
   114  H    0.007265
   115  H    0.017812
   116  H    0.012927
   117  H    0.019618
   118  H    0.016975
   119  H    0.010288
   120  H    0.018748
   121  H    0.019436
   122  H    0.015922
   123  H    0.023705
   124  H    0.015428
   125  H    0.016687
   126  H    0.020453
   127  H    0.013071
   128  H    0.018111
   129  H    0.021892
   130  H    0.021700
   131  H    0.026187
   132  H    0.018840
   133  H    0.013858
   134  H    0.013305
   135  H    0.026438
   136  H    0.018138
   137  H    0.019473
   138  H    0.011172
   139  H    0.019434
   140  H    0.023889
 Sum of Mulliken charges =  -0.00000

 Dipole moment (field-independent basis, Debye):
    X=             -1.2900    Y=              4.7530    Z=              1.9860  Tot=              5.3103
 N-N= 4.342740714995D+03 E-N= 0.000000000000D+00  KE=-9.359989751880D+03
 Leave Link  601 at Wed Apr 27 13:43:13 2022, MaxMem=  6710886400 cpu:               1.1 elap:               0.1
 (Enter /sw/apps/gaussian-16.0/g16/l9999.exe)
 1\1\GINC-BP1-COMPUTE147\SP\RZINDO CIS\STO-3G\C55H74Mg1N4O6\OF15641\27-
 Apr-2022\0\\#p ZINDO=(nstates=5)\\step_1201_chromophore_11 ZINDO\\0,1\
 Mg,0,52.646,24.227,44.44\C,0,49.779,26.193,43.909\C,0,50.912,21.462,43
 .548\C,0,55.47,22.404,44.542\C,0,54.472,27.159,45.04\N,0,50.573,23.896
 ,43.733\C,0,49.556,24.813,43.687\C,0,48.299,24.042,43.463\C,0,48.626,2
 2.554,43.477\C,0,50.149,22.664,43.539\C,0,48.015,21.684,44.702\C,0,47.
 48,24.409,42.164\C,0,48.259,24.327,40.813\C,0,47.6,23.463,39.702\O,0,4

 Normal termination of Gaussian 16 at Wed Apr 27 13:43:13 2022.
