 Gaussian 16, Revision A.03,
 Gaussian 16:  ES64L-G16RevA.03 25-Dec-2016

 ------------------------------
 #p blyp/Def2SVP td=(nstates=5)
 ------------------------------

 --------------------------------------------------
 step_1801_chromophore_8 TDDFT with blyp functional
 --------------------------------------------------
 Symbolic Z-matrix:
 Charge =  0 Multiplicity = 1

                         Standard orientation:
 ---------------------------------------------------------------------
 Center     Atomic      Atomic             Coordinates (Angstroms)
 Number     Number       Type             X           Y           Z
 ---------------------------------------------------------------------
      1         12           0        4.213478    1.182391    0.325352
      2          6           0        4.241569   -2.331538    0.562324
      3          6           0        4.495196    0.840114   -3.125887
      4          6           0        3.822552    4.454520    0.152517
      5          6           0        3.440117    1.247677    3.792145
      6          7           0        4.171895   -0.567632   -1.065320
      7          6           0        4.354312   -1.897696   -0.757833
      8          6           0        4.451063   -2.779353   -2.043420
      9          6           0        4.627870   -1.656184   -3.157013
     10          6           0        4.588188   -0.359552   -2.376818
     11          6           0        5.824454   -1.750562   -4.091569
     12          6           0        3.355682   -3.729500   -2.349515
     13          6           0        1.985680   -3.019817   -2.299793
     14          6           0        0.976424   -3.768482   -1.315140
     15          8           0        1.257204   -4.573530   -0.441702
     16          8           0       -0.283360   -3.208905   -1.393719
     17          7           0        4.135853    2.502317   -1.321380
     18          6           0        4.404678    2.163630   -2.665820
     19          6           0        4.250154    3.379513   -3.422629
     20          6           0        3.908102    4.445582   -2.558426
     21          6           0        3.934590    3.870360   -1.183859
     22          6           0        4.513660    3.404254   -4.881667
     23          6           0        3.592670    5.862908   -2.980801
     24          8           0        3.677845    6.198885   -4.192278
     25          6           0        3.155484    6.847091   -1.946488
     26          7           0        3.833050    2.583414    1.751052
     27          6           0        3.719773    3.911092    1.429493
     28          6           0        3.400559    4.869821    2.646380
     29          6           0        3.222311    3.807564    3.750096
     30          6           0        3.541131    2.427954    3.052011
     31          6           0        4.497726    5.936201    2.840352
     32          6           0        1.747791    3.928387    4.406705
     33          6           0        1.663411    4.592995    5.785036
     34          7           0        3.997230   -0.181456    1.889411
     35          6           0        3.651826   -0.015639    3.215070
     36          6           0        3.732522   -1.276965    3.866426
     37          6           0        3.949232   -2.193977    2.875191
     38          6           0        4.074572   -1.519377    1.667208
     39          6           0        3.448024   -1.496739    5.318208
     40          6           0        4.063267   -3.641828    2.598922
     41          8           0        4.101177   -4.619555    3.347012
     42          6           0        4.376662   -3.756668    1.073958
     43          6           0        5.770026   -4.377038    0.908986
     44          8           0        6.847918   -3.901691    1.299608
     45          8           0        5.656556   -5.479586    0.061870
     46          6           0        6.909623   -6.001183   -0.412195
     47          6           0       -1.274204   -3.749050   -0.420609
     48          6           0       -2.411279   -2.763332   -0.558063
     49          6           0       -3.732737   -2.988015   -0.322638
     50          6           0       -4.329142   -4.248401    0.055231
     51          6           0       -4.519891   -1.798426   -0.408283
     52          6           0       -4.856436   -1.486625   -1.865621
     53          6           0       -4.778651   -0.012707   -2.268537
     54          6           0       -6.138951    0.517334   -2.850590
     55          6           0       -5.750609    1.427231   -4.039204
     56          6           0       -7.032450    1.266592   -1.823159
     57          6           0       -8.108325    0.435835   -1.173642
     58          6           0       -8.070206    0.322663    0.364924
     59          6           0       -9.362415    0.836422    1.052201
     60          6           0       -9.141140    1.208685    2.476878
     61          6           0      -10.520539   -0.145247    0.834018
     62          6           0      -11.746345    0.659314    0.326154
     63          6           0      -12.933156   -0.291627    0.246777
     64          6           0      -14.276595    0.252573    0.823719
     65          6           0      -15.299558    0.691969   -0.168237
     66          6           0      -14.862708   -0.792316    1.700967
     67          1           0        4.647752    0.752497   -4.203969
     68          1           0        3.722803    5.540795    0.147833
     69          1           0        3.169345    1.388151    4.840276
     70          1           0        5.390894   -3.331613   -2.073772
     71          1           0        3.786216   -1.666469   -3.849068
     72          1           0        6.558412   -1.164041   -3.538982
     73          1           0        5.782877   -1.301729   -5.083241
     74          1           0        6.194295   -2.775161   -4.110128
     75          1           0        3.394806   -4.515974   -1.595762
     76          1           0        3.616490   -4.178022   -3.308825
     77          1           0        1.561799   -2.852349   -3.289694
     78          1           0        1.995868   -1.974235   -1.988537
     79          1           0        3.622744    3.746799   -5.407705
     80          1           0        4.696499    2.440194   -5.355984
     81          1           0        5.298294    4.108488   -5.159425
     82          1           0        4.008654    7.107586   -1.320706
     83          1           0        2.408190    6.269671   -1.402599
     84          1           0        2.681398    7.684631   -2.456992
     85          1           0        2.433158    5.336828    2.465622
     86          1           0        3.873556    3.959085    4.611583
     87          1           0        4.743741    5.996164    3.900598
     88          1           0        4.194932    6.920697    2.483374
     89          1           0        5.380925    5.687231    2.251253
     90          1           0        1.410192    2.899935    4.535184
     91          1           0        1.050605    4.455624    3.755307
     92          1           0        2.517209    5.261089    5.899263
     93          1           0        1.610542    3.860419    6.591308
     94          1           0        0.772341    5.217745    5.726020
     95          1           0        4.043422   -0.833866    5.945973
     96          1           0        3.850215   -2.504755    5.418546
     97          1           0        2.400938   -1.378659    5.596148
     98          1           0        3.604053   -4.388423    0.637736
     99          1           0        6.766361   -6.840040   -1.093375
    100          1           0        7.640712   -6.351901    0.315876
    101          1           0        7.409236   -5.208579   -0.967872
    102          1           0       -0.829458   -3.694417    0.572901
    103          1           0       -1.639396   -4.770555   -0.529643
    104          1           0       -2.083324   -1.771283   -0.868308
    105          1           0       -4.272700   -4.261138    1.143219
    106          1           0       -3.736647   -5.097393   -0.284288
    107          1           0       -5.362769   -4.387660   -0.262574
    108          1           0       -4.052316   -0.994738    0.159113
    109          1           0       -5.476483   -1.990018    0.077254
    110          1           0       -5.860729   -1.854417   -2.079439
    111          1           0       -4.304025   -2.111684   -2.567660
    112          1           0       -3.990976    0.172200   -2.998727
    113          1           0       -4.575895    0.543472   -1.352735
    114          1           0       -6.707771   -0.334360   -3.223527
    115          1           0       -5.552166    0.871789   -4.956078
    116          1           0       -4.836227    1.975619   -3.813107
    117          1           0       -6.488156    2.210350   -4.216842
    118          1           0       -7.515980    2.148565   -2.244049
    119          1           0       -6.455258    1.725011   -1.019095
    120          1           0       -8.068010   -0.568392   -1.594821
    121          1           0       -9.084640    0.885012   -1.358362
    122          1           0       -7.230894    0.770099    0.897469
    123          1           0       -7.914670   -0.729060    0.604301
    124          1           0       -9.623948    1.734235    0.491673
    125          1           0       -9.941349    0.940474    3.166150
    126          1           0       -9.114229    2.298604    2.464128
    127          1           0       -8.245806    0.866843    2.995366
    128          1           0      -10.714255   -0.698449    1.752994
    129          1           0      -10.129627   -0.783655    0.040732
    130          1           0      -11.668786    1.042518   -0.691985
    131          1           0      -12.003485    1.590088    0.830191
    132          1           0      -12.624372   -1.283742    0.576349
    133          1           0      -13.062099   -0.409031   -0.828725
    134          1           0      -14.109837    1.040176    1.558255
    135          1           0      -15.542477   -0.131377   -0.839133
    136          1           0      -15.089842    1.471088   -0.900511
    137          1           0      -16.174244    1.036091    0.383172
    138          1           0      -14.574033   -1.795837    1.388501
    139          1           0      -15.951113   -0.824777    1.646511
    140          1           0      -14.491513   -0.630823    2.712513
 ---------------------------------------------------------------------

 SCF Done:  E(RB-LYP) =  -3007.38133636     A.U. after   21 cycles

 Excitation energies and oscillator strengths:

 Excited State   1:      Singlet-A      1.7271 eV  717.88 nm  f=0.0139  <S**2>=0.000
     244 -> 247        0.67494
     245 -> 247        0.12792
     246 -> 247        0.15636
 This state for optimization and/or second-order correction.
 Total Energy, E(TD-HF/TD-DFT) =  -3007.31786662
 Copying the excited state density for this state as the 1-particle RhoCI density.

 Excited State   2:      Singlet-A      1.7964 eV  690.17 nm  f=0.2146  <S**2>=0.000
     243 -> 247        0.26456
     244 -> 247       -0.18334
     245 -> 247        0.10111
     245 -> 248        0.16529
     246 -> 247        0.60748
     246 <- 247       -0.13409

 Excited State   3:      Singlet-A      1.8456 eV  671.77 nm  f=0.0754  <S**2>=0.000
     243 -> 247        0.59042
     245 -> 247        0.23853
     246 -> 247       -0.28718

 Excited State   4:      Singlet-A      1.8559 eV  668.05 nm  f=0.0067  <S**2>=0.000
     242 -> 247        0.69534
     245 -> 247        0.10770

 Excited State   5:      Singlet-A      2.0462 eV  605.92 nm  f=0.0635  <S**2>=0.000
     243 -> 247       -0.26925
     245 -> 247        0.56600
     246 -> 248       -0.26569

 The electronic state is 1-A.
 Alpha  occ. eigenvalues --  -46.26808 -18.82598 -18.82061 -18.77769 -18.77226
 Alpha  occ. eigenvalues --  -18.75754 -18.75081 -14.03956 -14.03732 -14.01193
 Alpha  occ. eigenvalues --  -14.00629 -10.04753 -10.04501  -9.99610  -9.99538
 Alpha  occ. eigenvalues --   -9.97681  -9.97436  -9.97074  -9.96944  -9.96874
 Alpha  occ. eigenvalues --   -9.96871  -9.96578  -9.95451  -9.95113  -9.94404
 Alpha  occ. eigenvalues --   -9.94391  -9.94181  -9.94178  -9.94148  -9.93654
 Alpha  occ. eigenvalues --   -9.93610  -9.93575  -9.93519  -9.93424  -9.93248
 Alpha  occ. eigenvalues --   -9.93006  -9.92992  -9.92919  -9.92869  -9.92843
 Alpha  occ. eigenvalues --   -9.92658  -9.92356  -9.92354  -9.92339  -9.92163
 Alpha  occ. eigenvalues --   -9.92031  -9.91898  -9.91753  -9.91513  -9.91323
 Alpha  occ. eigenvalues --   -9.91113  -9.91081  -9.91065  -9.91045  -9.91013
 Alpha  occ. eigenvalues --   -9.90952  -9.90860  -9.90815  -9.90714  -9.90691
 Alpha  occ. eigenvalues --   -9.90650  -9.90647  -9.90617  -9.90457  -9.90389
 Alpha  occ. eigenvalues --   -9.90017  -2.91510  -1.71943  -1.71400  -1.71208
 Alpha  occ. eigenvalues --   -0.97722  -0.97340  -0.90748  -0.89900  -0.89412
 Alpha  occ. eigenvalues --   -0.89255  -0.86968  -0.86140  -0.85316  -0.83809
 Alpha  occ. eigenvalues --   -0.75737  -0.75003  -0.73712  -0.73483  -0.72535
 Alpha  occ. eigenvalues --   -0.72392  -0.71912  -0.71570  -0.71311  -0.70279
 Alpha  occ. eigenvalues --   -0.69532  -0.69000  -0.68343  -0.67888  -0.67417
 Alpha  occ. eigenvalues --   -0.66722  -0.66317  -0.65994  -0.65175  -0.65043
 Alpha  occ. eigenvalues --   -0.64596  -0.62632  -0.62090  -0.61551  -0.61037
 Alpha  occ. eigenvalues --   -0.60681  -0.60231  -0.59957  -0.59916  -0.58879
 Alpha  occ. eigenvalues --   -0.58151  -0.57303  -0.56785  -0.55829  -0.54183
 Alpha  occ. eigenvalues --   -0.53761  -0.53362  -0.52541  -0.52300  -0.51699
 Alpha  occ. eigenvalues --   -0.51483  -0.51022  -0.50818  -0.50604  -0.50222
 Alpha  occ. eigenvalues --   -0.49900  -0.49574  -0.48874  -0.48851  -0.46493
 Alpha  occ. eigenvalues --   -0.46350  -0.45853  -0.45559  -0.45449  -0.44427
 Alpha  occ. eigenvalues --   -0.44333  -0.43722  -0.43188  -0.42883  -0.42171
 Alpha  occ. eigenvalues --   -0.41923  -0.41838  -0.41680  -0.41493  -0.41188
 Alpha  occ. eigenvalues --   -0.40954  -0.40905  -0.40788  -0.40383  -0.40174
 Alpha  occ. eigenvalues --   -0.39959  -0.39886  -0.39786  -0.39627  -0.39509
 Alpha  occ. eigenvalues --   -0.39179  -0.39155  -0.38750  -0.38459  -0.38429
 Alpha  occ. eigenvalues --   -0.38297  -0.38062  -0.37702  -0.37529  -0.37471
 Alpha  occ. eigenvalues --   -0.37066  -0.36958  -0.36758  -0.36556  -0.36407
 Alpha  occ. eigenvalues --   -0.36374  -0.36117  -0.35979  -0.35842  -0.35617
 Alpha  occ. eigenvalues --   -0.35474  -0.35312  -0.35032  -0.34898  -0.34820
 Alpha  occ. eigenvalues --   -0.34486  -0.34458  -0.34238  -0.34105  -0.34076
 Alpha  occ. eigenvalues --   -0.33857  -0.33710  -0.33502  -0.33114  -0.32994
 Alpha  occ. eigenvalues --   -0.32906  -0.32721  -0.32631  -0.32411  -0.32166
 Alpha  occ. eigenvalues --   -0.31958  -0.31949  -0.31903  -0.31743  -0.31380
 Alpha  occ. eigenvalues --   -0.31191  -0.31128  -0.30767  -0.30702  -0.30610
 Alpha  occ. eigenvalues --   -0.30523  -0.30177  -0.30023  -0.29987  -0.29901
 Alpha  occ. eigenvalues --   -0.29778  -0.29690  -0.29472  -0.29457  -0.29331
 Alpha  occ. eigenvalues --   -0.29031  -0.28889  -0.28518  -0.28213  -0.28039
 Alpha  occ. eigenvalues --   -0.27627  -0.27540  -0.26860  -0.26612  -0.26593
 Alpha  occ. eigenvalues --   -0.26211  -0.26022  -0.25734  -0.25602  -0.25582
 Alpha  occ. eigenvalues --   -0.25172  -0.25045  -0.24527  -0.24224  -0.23612
 Alpha  occ. eigenvalues --   -0.23503  -0.22910  -0.22740  -0.21827  -0.20820
 Alpha  occ. eigenvalues --   -0.20190  -0.18739  -0.18627  -0.18213  -0.17771
 Alpha  occ. eigenvalues --   -0.16129
 Alpha virt. eigenvalues --   -0.11915  -0.07311  -0.06210  -0.04856  -0.03524
 Alpha virt. eigenvalues --   -0.03245  -0.02737  -0.01953  -0.01828   0.00042
 Alpha virt. eigenvalues --    0.00868   0.01031   0.01857   0.02262   0.02623

 Mulliken charges:
               1
     1  Mg   0.691474
     2  C   -0.017062
     3  C   -0.069471
     4  C   -0.015471
     5  C   -0.109056
     6  N   -0.239039
     7  C   -0.109271
     8  C    0.078389
     9  C   -0.078418
    10  C    0.085351
    11  C    0.127834
    12  C    0.169084
    13  C    0.066761
    14  C    0.111946
    15  O   -0.185185
    16  O   -0.281519
    17  N   -0.333789
    18  C    0.139267
    19  C   -0.131399
    20  C    0.052928
    21  C    0.106590
    22  C    0.194281
    23  C   -0.106041
    24  O   -0.199336
    25  C    0.152460
    26  N   -0.230395
    27  C   -0.004064
    28  C    0.036495
    29  C    0.005315
    30  C    0.058761
    31  C    0.131714
    32  C    0.039434
    33  C    0.072551
    34  N   -0.262206
    35  C    0.155324
    36  C   -0.220336
    37  C    0.104026
    38  C    0.122777
    39  C    0.172771
    40  C   -0.046550
    41  O   -0.134673
    42  C    0.077557
    43  C    0.149533
    44  O   -0.191415
    45  O   -0.263180
    46  C    0.226374
    47  C    0.327710
    48  C   -0.132510
    49  C   -0.180726
    50  C    0.187434
    51  C    0.174620
    52  C    0.062329
    53  C    0.141701
    54  C   -0.082665
    55  C    0.096030
    56  C    0.137484
    57  C    0.075362
    58  C    0.069391
    59  C   -0.087638
    60  C    0.132565
    61  C    0.129799
    62  C    0.034213
    63  C    0.124045
    64  C   -0.046321
    65  C    0.104513
    66  C    0.097097
    67  H   -0.054404
    68  H   -0.091970
    69  H   -0.056183
    70  H   -0.046504
    71  H   -0.018367
    72  H   -0.019340
    73  H    0.004402
    74  H   -0.014708
    75  H    0.004659
    76  H   -0.020874
    77  H   -0.008072
    78  H    0.023418
    79  H   -0.004301
    80  H   -0.035416
    81  H    0.008998
    82  H    0.033860
    83  H    0.006389
    84  H   -0.003316
    85  H   -0.015943
    86  H   -0.029813
    87  H   -0.006077
    88  H   -0.006684
    89  H   -0.001689
    90  H   -0.024939
    91  H   -0.017751
    92  H   -0.010934
    93  H    0.005447
    94  H   -0.008520
    95  H   -0.012767
    96  H    0.012504
    97  H    0.010377
    98  H    0.014310
    99  H    0.006664
   100  H    0.013899
   101  H   -0.004277
   102  H    0.005008
   103  H   -0.004482
   104  H   -0.039488
   105  H    0.005869
   106  H   -0.017517
   107  H   -0.009326
   108  H   -0.011014
   109  H   -0.053014
   110  H   -0.045287
   111  H   -0.028321
   112  H   -0.025623
   113  H   -0.038024
   114  H   -0.031494
   115  H   -0.013835
   116  H   -0.019118
   117  H   -0.027404
   118  H   -0.047327
   119  H   -0.046303
   120  H   -0.029963
   121  H   -0.025866
   122  H   -0.044039
   123  H   -0.041207
   124  H   -0.039715
   125  H   -0.031381
   126  H   -0.023540
   127  H   -0.020263
   128  H   -0.023687
   129  H   -0.033831
   130  H   -0.038386
   131  H   -0.033025
   132  H   -0.028667
   133  H   -0.052011
   134  H   -0.040238
   135  H   -0.024345
   136  H   -0.029283
   137  H   -0.013870
   138  H   -0.027418
   139  H   -0.032541
   140  H   -0.017658
 Sum of Mulliken charges =  -0.00000

 Dipole moment (field-independent basis, Debye):
    X=             -2.7663    Y=              1.9529    Z=             -0.2439  Tot=              3.3949
 Quadrupole moment (field-independent basis, Debye-Ang):
   XX=           -406.0956   YY=           -419.5711   ZZ=           -406.6647
   XY=              6.2046   XZ=            -11.7159   YZ=             54.9782

 Normal termination of Gaussian 16 at Fri Apr 29 02:52:30 2022.
