 Gaussian 16, Revision A.03,
 Gaussian 16:  ES64L-G16RevA.03 25-Dec-2016

 -----------------------------------
 #p cam-b3lyp/Def2SVP td=(nstates=5)
 -----------------------------------

 -------------------------------------------------------
 step_1801_chromophore_8 TDDFT with cam-b3lyp functional
 -------------------------------------------------------
 Symbolic Z-matrix:
 Charge =  0 Multiplicity = 1

                         Standard orientation:
 ---------------------------------------------------------------------
 Center     Atomic      Atomic             Coordinates (Angstroms)
 Number     Number       Type             X           Y           Z
 ---------------------------------------------------------------------
      1         12           0        4.213478    1.182391    0.325352
      2          6           0        4.241569   -2.331538    0.562324
      3          6           0        4.495196    0.840114   -3.125887
      4          6           0        3.822552    4.454520    0.152517
      5          6           0        3.440117    1.247677    3.792145
      6          7           0        4.171895   -0.567632   -1.065320
      7          6           0        4.354312   -1.897696   -0.757833
      8          6           0        4.451063   -2.779353   -2.043420
      9          6           0        4.627870   -1.656184   -3.157013
     10          6           0        4.588188   -0.359552   -2.376818
     11          6           0        5.824454   -1.750562   -4.091569
     12          6           0        3.355682   -3.729500   -2.349515
     13          6           0        1.985680   -3.019817   -2.299793
     14          6           0        0.976424   -3.768482   -1.315140
     15          8           0        1.257204   -4.573530   -0.441702
     16          8           0       -0.283360   -3.208905   -1.393719
     17          7           0        4.135853    2.502317   -1.321380
     18          6           0        4.404678    2.163630   -2.665820
     19          6           0        4.250154    3.379513   -3.422629
     20          6           0        3.908102    4.445582   -2.558426
     21          6           0        3.934590    3.870360   -1.183859
     22          6           0        4.513660    3.404254   -4.881667
     23          6           0        3.592670    5.862908   -2.980801
     24          8           0        3.677845    6.198885   -4.192278
     25          6           0        3.155484    6.847091   -1.946488
     26          7           0        3.833050    2.583414    1.751052
     27          6           0        3.719773    3.911092    1.429493
     28          6           0        3.400559    4.869821    2.646380
     29          6           0        3.222311    3.807564    3.750096
     30          6           0        3.541131    2.427954    3.052011
     31          6           0        4.497726    5.936201    2.840352
     32          6           0        1.747791    3.928387    4.406705
     33          6           0        1.663411    4.592995    5.785036
     34          7           0        3.997230   -0.181456    1.889411
     35          6           0        3.651826   -0.015639    3.215070
     36          6           0        3.732522   -1.276965    3.866426
     37          6           0        3.949232   -2.193977    2.875191
     38          6           0        4.074572   -1.519377    1.667208
     39          6           0        3.448024   -1.496739    5.318208
     40          6           0        4.063267   -3.641828    2.598922
     41          8           0        4.101177   -4.619555    3.347012
     42          6           0        4.376662   -3.756668    1.073958
     43          6           0        5.770026   -4.377038    0.908986
     44          8           0        6.847918   -3.901691    1.299608
     45          8           0        5.656556   -5.479586    0.061870
     46          6           0        6.909623   -6.001183   -0.412195
     47          6           0       -1.274204   -3.749050   -0.420609
     48          6           0       -2.411279   -2.763332   -0.558063
     49          6           0       -3.732737   -2.988015   -0.322638
     50          6           0       -4.329142   -4.248401    0.055231
     51          6           0       -4.519891   -1.798426   -0.408283
     52          6           0       -4.856436   -1.486625   -1.865621
     53          6           0       -4.778651   -0.012707   -2.268537
     54          6           0       -6.138951    0.517334   -2.850590
     55          6           0       -5.750609    1.427231   -4.039204
     56          6           0       -7.032450    1.266592   -1.823159
     57          6           0       -8.108325    0.435835   -1.173642
     58          6           0       -8.070206    0.322663    0.364924
     59          6           0       -9.362415    0.836422    1.052201
     60          6           0       -9.141140    1.208685    2.476878
     61          6           0      -10.520539   -0.145247    0.834018
     62          6           0      -11.746345    0.659314    0.326154
     63          6           0      -12.933156   -0.291627    0.246777
     64          6           0      -14.276595    0.252573    0.823719
     65          6           0      -15.299558    0.691969   -0.168237
     66          6           0      -14.862708   -0.792316    1.700967
     67          1           0        4.647752    0.752497   -4.203969
     68          1           0        3.722803    5.540795    0.147833
     69          1           0        3.169345    1.388151    4.840276
     70          1           0        5.390894   -3.331613   -2.073772
     71          1           0        3.786216   -1.666469   -3.849068
     72          1           0        6.558412   -1.164041   -3.538982
     73          1           0        5.782877   -1.301729   -5.083241
     74          1           0        6.194295   -2.775161   -4.110128
     75          1           0        3.394806   -4.515974   -1.595762
     76          1           0        3.616490   -4.178022   -3.308825
     77          1           0        1.561799   -2.852349   -3.289694
     78          1           0        1.995868   -1.974235   -1.988537
     79          1           0        3.622744    3.746799   -5.407705
     80          1           0        4.696499    2.440194   -5.355984
     81          1           0        5.298294    4.108488   -5.159425
     82          1           0        4.008654    7.107586   -1.320706
     83          1           0        2.408190    6.269671   -1.402599
     84          1           0        2.681398    7.684631   -2.456992
     85          1           0        2.433158    5.336828    2.465622
     86          1           0        3.873556    3.959085    4.611583
     87          1           0        4.743741    5.996164    3.900598
     88          1           0        4.194932    6.920697    2.483374
     89          1           0        5.380925    5.687231    2.251253
     90          1           0        1.410192    2.899935    4.535184
     91          1           0        1.050605    4.455624    3.755307
     92          1           0        2.517209    5.261089    5.899263
     93          1           0        1.610542    3.860419    6.591308
     94          1           0        0.772341    5.217745    5.726020
     95          1           0        4.043422   -0.833866    5.945973
     96          1           0        3.850215   -2.504755    5.418546
     97          1           0        2.400938   -1.378659    5.596148
     98          1           0        3.604053   -4.388423    0.637736
     99          1           0        6.766361   -6.840040   -1.093375
    100          1           0        7.640712   -6.351901    0.315876
    101          1           0        7.409236   -5.208579   -0.967872
    102          1           0       -0.829458   -3.694417    0.572901
    103          1           0       -1.639396   -4.770555   -0.529643
    104          1           0       -2.083324   -1.771283   -0.868308
    105          1           0       -4.272700   -4.261138    1.143219
    106          1           0       -3.736647   -5.097393   -0.284288
    107          1           0       -5.362769   -4.387660   -0.262574
    108          1           0       -4.052316   -0.994738    0.159113
    109          1           0       -5.476483   -1.990018    0.077254
    110          1           0       -5.860729   -1.854417   -2.079439
    111          1           0       -4.304025   -2.111684   -2.567660
    112          1           0       -3.990976    0.172200   -2.998727
    113          1           0       -4.575895    0.543472   -1.352735
    114          1           0       -6.707771   -0.334360   -3.223527
    115          1           0       -5.552166    0.871789   -4.956078
    116          1           0       -4.836227    1.975619   -3.813107
    117          1           0       -6.488156    2.210350   -4.216842
    118          1           0       -7.515980    2.148565   -2.244049
    119          1           0       -6.455258    1.725011   -1.019095
    120          1           0       -8.068010   -0.568392   -1.594821
    121          1           0       -9.084640    0.885012   -1.358362
    122          1           0       -7.230894    0.770099    0.897469
    123          1           0       -7.914670   -0.729060    0.604301
    124          1           0       -9.623948    1.734235    0.491673
    125          1           0       -9.941349    0.940474    3.166150
    126          1           0       -9.114229    2.298604    2.464128
    127          1           0       -8.245806    0.866843    2.995366
    128          1           0      -10.714255   -0.698449    1.752994
    129          1           0      -10.129627   -0.783655    0.040732
    130          1           0      -11.668786    1.042518   -0.691985
    131          1           0      -12.003485    1.590088    0.830191
    132          1           0      -12.624372   -1.283742    0.576349
    133          1           0      -13.062099   -0.409031   -0.828725
    134          1           0      -14.109837    1.040176    1.558255
    135          1           0      -15.542477   -0.131377   -0.839133
    136          1           0      -15.089842    1.471088   -0.900511
    137          1           0      -16.174244    1.036091    0.383172
    138          1           0      -14.574033   -1.795837    1.388501
    139          1           0      -15.951113   -0.824777    1.646511
    140          1           0      -14.491513   -0.630823    2.712513
 ---------------------------------------------------------------------

 SCF Done:  E(RCAM-B3LYP) =  -3007.18147344     A.U. after   17 cycles

 Excitation energies and oscillator strengths:

 Excited State   1:      Singlet-A      1.6812 eV  737.49 nm  f=0.3613  <S**2>=0.000
     245 -> 248        0.17763
     246 -> 247        0.68702
     245 <- 248        0.10856
 This state for optimization and/or second-order correction.
 Total Energy, E(TD-HF/TD-DFT) =  -3007.11969166
 Copying the excited state density for this state as the 1-particle RhoCI density.

 Excited State   2:      Singlet-A      2.2555 eV  549.69 nm  f=0.0890  <S**2>=0.000
     245 -> 247        0.62632
     246 -> 248       -0.31462

 Excited State   3:      Singlet-A      3.2440 eV  382.20 nm  f=0.0011  <S**2>=0.000
     242 -> 247       -0.15472
     243 -> 247        0.66549
     246 -> 248        0.10073

 Excited State   4:      Singlet-A      3.4079 eV  363.81 nm  f=0.1019  <S**2>=0.000
     240 -> 247        0.35219
     240 -> 249        0.14717
     240 -> 250       -0.11586
     242 -> 247        0.42478
     245 -> 247        0.12190
     246 -> 248        0.35236

 Excited State   5:      Singlet-A      3.4401 eV  360.41 nm  f=0.0020  <S**2>=0.000
     240 -> 247        0.43591
     240 -> 249        0.23088
     240 -> 250       -0.19915
     242 -> 247       -0.42226

 The electronic state is 1-A.
 Alpha  occ. eigenvalues --  -46.88346 -19.25603 -19.24866 -19.20706 -19.20438
 Alpha  occ. eigenvalues --  -19.19162 -19.18216 -14.43144 -14.42431 -14.39703
 Alpha  occ. eigenvalues --  -14.39082 -10.40153 -10.40079 -10.35045 -10.34785
 Alpha  occ. eigenvalues --  -10.31701 -10.31605 -10.31543 -10.31475 -10.31423
 Alpha  occ. eigenvalues --  -10.31417 -10.30996 -10.29635 -10.29493 -10.28514
 Alpha  occ. eigenvalues --  -10.28461 -10.28367 -10.28278 -10.28201 -10.28163
 Alpha  occ. eigenvalues --  -10.28139 -10.28072 -10.27799 -10.27604 -10.27223
 Alpha  occ. eigenvalues --  -10.27084 -10.27054 -10.26897 -10.26848 -10.26801
 Alpha  occ. eigenvalues --  -10.26564 -10.26178 -10.26107 -10.25978 -10.25924
 Alpha  occ. eigenvalues --  -10.25759 -10.25714 -10.25652 -10.25250 -10.25010
 Alpha  occ. eigenvalues --  -10.24913 -10.24715 -10.24709 -10.24662 -10.24630
 Alpha  occ. eigenvalues --  -10.24620 -10.24572 -10.24572 -10.24471 -10.24412
 Alpha  occ. eigenvalues --  -10.24292 -10.24200 -10.24173 -10.24003 -10.23983
 Alpha  occ. eigenvalues --  -10.23549  -3.16956  -1.91864  -1.91428  -1.91243
 Alpha  occ. eigenvalues --   -1.16121  -1.15894  -1.09311  -1.07658  -1.07507
 Alpha  occ. eigenvalues --   -1.07449  -1.04719  -1.03827  -1.03024  -1.01289
 Alpha  occ. eigenvalues --   -0.93024  -0.91926  -0.90541  -0.90349  -0.89233
 Alpha  occ. eigenvalues --   -0.89048  -0.88648  -0.88170  -0.87951  -0.86876
 Alpha  occ. eigenvalues --   -0.86071  -0.85432  -0.84577  -0.84088  -0.83602
 Alpha  occ. eigenvalues --   -0.82847  -0.82416  -0.81931  -0.81010  -0.80890
 Alpha  occ. eigenvalues --   -0.80497  -0.78317  -0.77619  -0.77182  -0.76407
 Alpha  occ. eigenvalues --   -0.76192  -0.75573  -0.75263  -0.75220  -0.74089
 Alpha  occ. eigenvalues --   -0.73259  -0.72301  -0.71681  -0.70631  -0.68725
 Alpha  occ. eigenvalues --   -0.68405  -0.67855  -0.66992  -0.66661  -0.65789
 Alpha  occ. eigenvalues --   -0.65702  -0.65169  -0.64836  -0.64688  -0.64246
 Alpha  occ. eigenvalues --   -0.63910  -0.63378  -0.62729  -0.62677  -0.60129
 Alpha  occ. eigenvalues --   -0.59901  -0.59489  -0.59076  -0.58739  -0.58163
 Alpha  occ. eigenvalues --   -0.57741  -0.57014  -0.56387  -0.56104  -0.55327
 Alpha  occ. eigenvalues --   -0.55127  -0.55073  -0.54938  -0.54263  -0.54078
 Alpha  occ. eigenvalues --   -0.53665  -0.53571  -0.53537  -0.53104  -0.52936
 Alpha  occ. eigenvalues --   -0.52804  -0.52473  -0.52373  -0.52334  -0.52097
 Alpha  occ. eigenvalues --   -0.51936  -0.51652  -0.51523  -0.51140  -0.50755
 Alpha  occ. eigenvalues --   -0.50583  -0.50290  -0.49831  -0.49792  -0.49729
 Alpha  occ. eigenvalues --   -0.49461  -0.49449  -0.49277  -0.49061  -0.48462
 Alpha  occ. eigenvalues --   -0.48379  -0.48341  -0.48149  -0.47980  -0.47898
 Alpha  occ. eigenvalues --   -0.47742  -0.47437  -0.47083  -0.46823  -0.46685
 Alpha  occ. eigenvalues --   -0.46511  -0.46362  -0.46241  -0.46069  -0.45936
 Alpha  occ. eigenvalues --   -0.45675  -0.45518  -0.45157  -0.44855  -0.44674
 Alpha  occ. eigenvalues --   -0.44627  -0.44522  -0.44371  -0.44168  -0.43933
 Alpha  occ. eigenvalues --   -0.43740  -0.43451  -0.43407  -0.43376  -0.43085
 Alpha  occ. eigenvalues --   -0.42792  -0.42544  -0.42479  -0.42238  -0.41989
 Alpha  occ. eigenvalues --   -0.41868  -0.41841  -0.41493  -0.41311  -0.41146
 Alpha  occ. eigenvalues --   -0.41044  -0.40910  -0.40891  -0.40638  -0.40511
 Alpha  occ. eigenvalues --   -0.40190  -0.39890  -0.39505  -0.39343  -0.38941
 Alpha  occ. eigenvalues --   -0.38531  -0.38354  -0.37639  -0.37484  -0.37323
 Alpha  occ. eigenvalues --   -0.37153  -0.37140  -0.36844  -0.36693  -0.36648
 Alpha  occ. eigenvalues --   -0.36185  -0.35635  -0.35083  -0.35011  -0.34704
 Alpha  occ. eigenvalues --   -0.34505  -0.33978  -0.33499  -0.31587  -0.30809
 Alpha  occ. eigenvalues --   -0.30646  -0.30252  -0.29411  -0.28173  -0.24716
 Alpha  occ. eigenvalues --   -0.21419
 Alpha virt. eigenvalues --   -0.09036  -0.02237   0.00356   0.02157   0.03006
 Alpha virt. eigenvalues --    0.04072   0.04350   0.04863   0.05464   0.06408
 Alpha virt. eigenvalues --    0.07627   0.08154   0.08188   0.08592   0.08822

 Mulliken charges:
               1
     1  Mg   0.825360
     2  C   -0.043828
     3  C   -0.069383
     4  C   -0.044216
     5  C   -0.117967
     6  N   -0.296394
     7  C   -0.075100
     8  C    0.037126
     9  C   -0.137363
    10  C    0.092137
    11  C    0.069844
    12  C    0.114785
    13  C   -0.004938
    14  C    0.194437
    15  O   -0.230531
    16  O   -0.346950
    17  N   -0.417102
    18  C    0.141921
    19  C   -0.133232
    20  C   -0.021479
    21  C    0.137945
    22  C    0.134005
    23  C   -0.022211
    24  O   -0.240704
    25  C    0.066127
    26  N   -0.312771
    27  C    0.020983
    28  C   -0.015991
    29  C   -0.048319
    30  C    0.080691
    31  C    0.071984
    32  C   -0.012527
    33  C    0.012862
    34  N   -0.351347
    35  C    0.161310
    36  C   -0.212690
    37  C    0.020430
    38  C    0.157021
    39  C    0.120405
    40  C    0.058739
    41  O   -0.171393
    42  C    0.003665
    43  C    0.237329
    44  O   -0.227716
    45  O   -0.326893
    46  C    0.183392
    47  C    0.296733
    48  C   -0.148128
    49  C   -0.201981
    50  C    0.117573
    51  C    0.106157
    52  C    0.011532
    53  C    0.085382
    54  C   -0.139954
    55  C    0.037497
    56  C    0.084142
    57  C    0.020171
    58  C    0.019934
    59  C   -0.138956
    60  C    0.067378
    61  C    0.069022
    62  C   -0.015759
    63  C    0.065320
    64  C   -0.110049
    65  C    0.045172
    66  C    0.036334
    67  H   -0.020680
    68  H   -0.057350
    69  H   -0.020619
    70  H   -0.011377
    71  H    0.015097
    72  H    0.007603
    73  H    0.028591
    74  H    0.010569
    75  H    0.036948
    76  H    0.010482
    77  H    0.026828
    78  H    0.054699
    79  H    0.024519
    80  H   -0.008720
    81  H    0.037257
    82  H    0.059183
    83  H    0.033498
    84  H    0.032373
    85  H    0.018338
    86  H    0.005314
    87  H    0.017335
    88  H    0.016835
    89  H    0.024934
    90  H    0.004734
    91  H    0.009884
    92  H    0.009805
    93  H    0.027734
    94  H    0.015654
    95  H    0.013370
    96  H    0.039139
    97  H    0.036102
    98  H    0.059075
    99  H    0.031000
   100  H    0.038136
   101  H    0.017411
   102  H    0.035111
   103  H    0.021005
   104  H   -0.003336
   105  H    0.031523
   106  H    0.007475
   107  H    0.016414
   108  H    0.019642
   109  H   -0.022868
   110  H   -0.017744
   111  H    0.003332
   112  H    0.004801
   113  H   -0.010495
   114  H   -0.000568
   115  H    0.011186
   116  H    0.004120
   117  H   -0.002253
   118  H   -0.016063
   119  H   -0.017013
   120  H   -0.003508
   121  H    0.000985
   122  H   -0.015195
   123  H   -0.013853
   124  H   -0.007447
   125  H   -0.005318
   126  H    0.001343
   127  H    0.005249
   128  H    0.005044
   129  H   -0.004629
   130  H   -0.010106
   131  H   -0.005224
   132  H    0.000687
   133  H   -0.021241
   134  H   -0.008327
   135  H   -0.000717
   136  H   -0.003438
   137  H    0.010164
   138  H   -0.003014
   139  H   -0.005606
   140  H    0.007207
 Sum of Mulliken charges =  -0.00000

 Dipole moment (field-independent basis, Debye):
    X=             -2.7260    Y=              2.0543    Z=             -0.3394  Tot=              3.4302
 Quadrupole moment (field-independent basis, Debye-Ang):
   XX=           -405.6761   YY=           -416.5940   ZZ=           -404.6573
   XY=              5.5005   XZ=            -13.2675   YZ=             56.6891

 Normal termination of Gaussian 16 at Fri Apr 29 01:53:17 2022.
