 Gaussian 16, Revision A.03,
 Gaussian 16:  ES64L-G16RevA.03 25-Dec-2016

 ---------------------------------
 #p PBE1PBE/Def2SVP td=(nstates=5)
 ---------------------------------

 -----------------------------------------------------
 step_1801_chromophore_8 TDDFT with PBE1PBE functional
 -----------------------------------------------------
 Symbolic Z-matrix:
 Charge =  0 Multiplicity = 1

                         Standard orientation:
 ---------------------------------------------------------------------
 Center     Atomic      Atomic             Coordinates (Angstroms)
 Number     Number       Type             X           Y           Z
 ---------------------------------------------------------------------
      1         12           0        4.213478    1.182391    0.325352
      2          6           0        4.241569   -2.331538    0.562324
      3          6           0        4.495196    0.840114   -3.125887
      4          6           0        3.822552    4.454520    0.152517
      5          6           0        3.440117    1.247677    3.792145
      6          7           0        4.171895   -0.567632   -1.065320
      7          6           0        4.354312   -1.897696   -0.757833
      8          6           0        4.451063   -2.779353   -2.043420
      9          6           0        4.627870   -1.656184   -3.157013
     10          6           0        4.588188   -0.359552   -2.376818
     11          6           0        5.824454   -1.750562   -4.091569
     12          6           0        3.355682   -3.729500   -2.349515
     13          6           0        1.985680   -3.019817   -2.299793
     14          6           0        0.976424   -3.768482   -1.315140
     15          8           0        1.257204   -4.573530   -0.441702
     16          8           0       -0.283360   -3.208905   -1.393719
     17          7           0        4.135853    2.502317   -1.321380
     18          6           0        4.404678    2.163630   -2.665820
     19          6           0        4.250154    3.379513   -3.422629
     20          6           0        3.908102    4.445582   -2.558426
     21          6           0        3.934590    3.870360   -1.183859
     22          6           0        4.513660    3.404254   -4.881667
     23          6           0        3.592670    5.862908   -2.980801
     24          8           0        3.677845    6.198885   -4.192278
     25          6           0        3.155484    6.847091   -1.946488
     26          7           0        3.833050    2.583414    1.751052
     27          6           0        3.719773    3.911092    1.429493
     28          6           0        3.400559    4.869821    2.646380
     29          6           0        3.222311    3.807564    3.750096
     30          6           0        3.541131    2.427954    3.052011
     31          6           0        4.497726    5.936201    2.840352
     32          6           0        1.747791    3.928387    4.406705
     33          6           0        1.663411    4.592995    5.785036
     34          7           0        3.997230   -0.181456    1.889411
     35          6           0        3.651826   -0.015639    3.215070
     36          6           0        3.732522   -1.276965    3.866426
     37          6           0        3.949232   -2.193977    2.875191
     38          6           0        4.074572   -1.519377    1.667208
     39          6           0        3.448024   -1.496739    5.318208
     40          6           0        4.063267   -3.641828    2.598922
     41          8           0        4.101177   -4.619555    3.347012
     42          6           0        4.376662   -3.756668    1.073958
     43          6           0        5.770026   -4.377038    0.908986
     44          8           0        6.847918   -3.901691    1.299608
     45          8           0        5.656556   -5.479586    0.061870
     46          6           0        6.909623   -6.001183   -0.412195
     47          6           0       -1.274204   -3.749050   -0.420609
     48          6           0       -2.411279   -2.763332   -0.558063
     49          6           0       -3.732737   -2.988015   -0.322638
     50          6           0       -4.329142   -4.248401    0.055231
     51          6           0       -4.519891   -1.798426   -0.408283
     52          6           0       -4.856436   -1.486625   -1.865621
     53          6           0       -4.778651   -0.012707   -2.268537
     54          6           0       -6.138951    0.517334   -2.850590
     55          6           0       -5.750609    1.427231   -4.039204
     56          6           0       -7.032450    1.266592   -1.823159
     57          6           0       -8.108325    0.435835   -1.173642
     58          6           0       -8.070206    0.322663    0.364924
     59          6           0       -9.362415    0.836422    1.052201
     60          6           0       -9.141140    1.208685    2.476878
     61          6           0      -10.520539   -0.145247    0.834018
     62          6           0      -11.746345    0.659314    0.326154
     63          6           0      -12.933156   -0.291627    0.246777
     64          6           0      -14.276595    0.252573    0.823719
     65          6           0      -15.299558    0.691969   -0.168237
     66          6           0      -14.862708   -0.792316    1.700967
     67          1           0        4.647752    0.752497   -4.203969
     68          1           0        3.722803    5.540795    0.147833
     69          1           0        3.169345    1.388151    4.840276
     70          1           0        5.390894   -3.331613   -2.073772
     71          1           0        3.786216   -1.666469   -3.849068
     72          1           0        6.558412   -1.164041   -3.538982
     73          1           0        5.782877   -1.301729   -5.083241
     74          1           0        6.194295   -2.775161   -4.110128
     75          1           0        3.394806   -4.515974   -1.595762
     76          1           0        3.616490   -4.178022   -3.308825
     77          1           0        1.561799   -2.852349   -3.289694
     78          1           0        1.995868   -1.974235   -1.988537
     79          1           0        3.622744    3.746799   -5.407705
     80          1           0        4.696499    2.440194   -5.355984
     81          1           0        5.298294    4.108488   -5.159425
     82          1           0        4.008654    7.107586   -1.320706
     83          1           0        2.408190    6.269671   -1.402599
     84          1           0        2.681398    7.684631   -2.456992
     85          1           0        2.433158    5.336828    2.465622
     86          1           0        3.873556    3.959085    4.611583
     87          1           0        4.743741    5.996164    3.900598
     88          1           0        4.194932    6.920697    2.483374
     89          1           0        5.380925    5.687231    2.251253
     90          1           0        1.410192    2.899935    4.535184
     91          1           0        1.050605    4.455624    3.755307
     92          1           0        2.517209    5.261089    5.899263
     93          1           0        1.610542    3.860419    6.591308
     94          1           0        0.772341    5.217745    5.726020
     95          1           0        4.043422   -0.833866    5.945973
     96          1           0        3.850215   -2.504755    5.418546
     97          1           0        2.400938   -1.378659    5.596148
     98          1           0        3.604053   -4.388423    0.637736
     99          1           0        6.766361   -6.840040   -1.093375
    100          1           0        7.640712   -6.351901    0.315876
    101          1           0        7.409236   -5.208579   -0.967872
    102          1           0       -0.829458   -3.694417    0.572901
    103          1           0       -1.639396   -4.770555   -0.529643
    104          1           0       -2.083324   -1.771283   -0.868308
    105          1           0       -4.272700   -4.261138    1.143219
    106          1           0       -3.736647   -5.097393   -0.284288
    107          1           0       -5.362769   -4.387660   -0.262574
    108          1           0       -4.052316   -0.994738    0.159113
    109          1           0       -5.476483   -1.990018    0.077254
    110          1           0       -5.860729   -1.854417   -2.079439
    111          1           0       -4.304025   -2.111684   -2.567660
    112          1           0       -3.990976    0.172200   -2.998727
    113          1           0       -4.575895    0.543472   -1.352735
    114          1           0       -6.707771   -0.334360   -3.223527
    115          1           0       -5.552166    0.871789   -4.956078
    116          1           0       -4.836227    1.975619   -3.813107
    117          1           0       -6.488156    2.210350   -4.216842
    118          1           0       -7.515980    2.148565   -2.244049
    119          1           0       -6.455258    1.725011   -1.019095
    120          1           0       -8.068010   -0.568392   -1.594821
    121          1           0       -9.084640    0.885012   -1.358362
    122          1           0       -7.230894    0.770099    0.897469
    123          1           0       -7.914670   -0.729060    0.604301
    124          1           0       -9.623948    1.734235    0.491673
    125          1           0       -9.941349    0.940474    3.166150
    126          1           0       -9.114229    2.298604    2.464128
    127          1           0       -8.245806    0.866843    2.995366
    128          1           0      -10.714255   -0.698449    1.752994
    129          1           0      -10.129627   -0.783655    0.040732
    130          1           0      -11.668786    1.042518   -0.691985
    131          1           0      -12.003485    1.590088    0.830191
    132          1           0      -12.624372   -1.283742    0.576349
    133          1           0      -13.062099   -0.409031   -0.828725
    134          1           0      -14.109837    1.040176    1.558255
    135          1           0      -15.542477   -0.131377   -0.839133
    136          1           0      -15.089842    1.471088   -0.900511
    137          1           0      -16.174244    1.036091    0.383172
    138          1           0      -14.574033   -1.795837    1.388501
    139          1           0      -15.951113   -0.824777    1.646511
    140          1           0      -14.491513   -0.630823    2.712513
 ---------------------------------------------------------------------

 SCF Done:  E(RPBE1PBE) =  -3005.37040008     A.U. after   15 cycles

 Excitation energies and oscillator strengths:

 Excited State   1:      Singlet-A      1.8416 eV  673.25 nm  f=0.3492  <S**2>=0.000
     245 -> 248        0.17121
     246 -> 247        0.69448
     246 <- 247       -0.11176
 This state for optimization and/or second-order correction.
 Total Energy, E(TD-HF/TD-DFT) =  -3005.30272288
 Copying the excited state density for this state as the 1-particle RhoCI density.

 Excited State   2:      Singlet-A      2.2544 eV  549.97 nm  f=0.0892  <S**2>=0.000
     245 -> 247        0.63866
     246 -> 248       -0.28688

 Excited State   3:      Singlet-A      2.8324 eV  437.73 nm  f=0.0001  <S**2>=0.000
     244 -> 247        0.70517

 Excited State   4:      Singlet-A      2.8595 eV  433.59 nm  f=0.0021  <S**2>=0.000
     243 -> 247        0.67819

 Excited State   5:      Singlet-A      2.9192 eV  424.72 nm  f=0.0007  <S**2>=0.000
     240 -> 247        0.12914
     241 -> 247        0.64911
     241 -> 249        0.14133
     241 -> 250       -0.10368
     242 -> 247        0.10083

 The electronic state is 1-A.
 Alpha  occ. eigenvalues --  -46.91741 -19.26222 -19.25530 -19.20948 -19.20623
 Alpha  occ. eigenvalues --  -19.19293 -19.18505 -14.42547 -14.42056 -14.39399
 Alpha  occ. eigenvalues --  -14.38741 -10.37154 -10.37101 -10.32141 -10.31980
 Alpha  occ. eigenvalues --  -10.29358 -10.29250 -10.29214 -10.29105 -10.29064
 Alpha  occ. eigenvalues --  -10.28821 -10.28618 -10.27429 -10.27109 -10.26201
 Alpha  occ. eigenvalues --  -10.26152 -10.26067 -10.26050 -10.25947 -10.25823
 Alpha  occ. eigenvalues --  -10.25791 -10.25625 -10.25408 -10.25327 -10.25019
 Alpha  occ. eigenvalues --  -10.24898 -10.24696 -10.24577 -10.24484 -10.24469
 Alpha  occ. eigenvalues --  -10.24063 -10.23589 -10.23511 -10.23433 -10.23415
 Alpha  occ. eigenvalues --  -10.23324 -10.23241 -10.23053 -10.22708 -10.22607
 Alpha  occ. eigenvalues --  -10.22537 -10.22337 -10.22279 -10.22257 -10.22159
 Alpha  occ. eigenvalues --  -10.22129 -10.22120 -10.22096 -10.22002 -10.21959
 Alpha  occ. eigenvalues --  -10.21853 -10.21577 -10.21557 -10.21552 -10.21345
 Alpha  occ. eigenvalues --  -10.20915  -3.13930  -1.86780  -1.86322  -1.86140
 Alpha  occ. eigenvalues --   -1.10880  -1.10626  -1.03961  -1.02490  -1.02260
 Alpha  occ. eigenvalues --   -1.02216  -0.99345  -0.98453  -0.97604  -0.95958
 Alpha  occ. eigenvalues --   -0.87328  -0.86061  -0.84630  -0.84566  -0.83336
 Alpha  occ. eigenvalues --   -0.83335  -0.82966  -0.82301  -0.82253  -0.81204
 Alpha  occ. eigenvalues --   -0.80405  -0.79674  -0.78738  -0.78364  -0.77792
 Alpha  occ. eigenvalues --   -0.77015  -0.76691  -0.76122  -0.75300  -0.75140
 Alpha  occ. eigenvalues --   -0.74741  -0.72547  -0.71928  -0.71501  -0.70573
 Alpha  occ. eigenvalues --   -0.70486  -0.69661  -0.69606  -0.69379  -0.68262
 Alpha  occ. eigenvalues --   -0.67661  -0.66645  -0.66096  -0.64936  -0.63088
 Alpha  occ. eigenvalues --   -0.62852  -0.62074  -0.61475  -0.60859  -0.60180
 Alpha  occ. eigenvalues --   -0.59917  -0.59648  -0.59382  -0.59166  -0.58374
 Alpha  occ. eigenvalues --   -0.58032  -0.57850  -0.57212  -0.56895  -0.54666
 Alpha  occ. eigenvalues --   -0.54283  -0.53998  -0.53678  -0.53389  -0.52539
 Alpha  occ. eigenvalues --   -0.52286  -0.51510  -0.50970  -0.50471  -0.49844
 Alpha  occ. eigenvalues --   -0.49647  -0.49521  -0.49397  -0.48777  -0.48492
 Alpha  occ. eigenvalues --   -0.48237  -0.48088  -0.48022  -0.47611  -0.47464
 Alpha  occ. eigenvalues --   -0.47380  -0.47011  -0.46859  -0.46820  -0.46587
 Alpha  occ. eigenvalues --   -0.46448  -0.46190  -0.46046  -0.45728  -0.45288
 Alpha  occ. eigenvalues --   -0.45095  -0.44932  -0.44426  -0.44364  -0.44300
 Alpha  occ. eigenvalues --   -0.44088  -0.43973  -0.43831  -0.43652  -0.43110
 Alpha  occ. eigenvalues --   -0.43001  -0.42926  -0.42784  -0.42629  -0.42542
 Alpha  occ. eigenvalues --   -0.42395  -0.42085  -0.41715  -0.41600  -0.41337
 Alpha  occ. eigenvalues --   -0.41201  -0.41064  -0.40841  -0.40809  -0.40627
 Alpha  occ. eigenvalues --   -0.40377  -0.40248  -0.39811  -0.39598  -0.39393
 Alpha  occ. eigenvalues --   -0.39324  -0.39174  -0.39136  -0.38863  -0.38702
 Alpha  occ. eigenvalues --   -0.38500  -0.38262  -0.38108  -0.38055  -0.37854
 Alpha  occ. eigenvalues --   -0.37667  -0.37289  -0.37214  -0.36983  -0.36842
 Alpha  occ. eigenvalues --   -0.36703  -0.36613  -0.36363  -0.36179  -0.35903
 Alpha  occ. eigenvalues --   -0.35885  -0.35769  -0.35611  -0.35421  -0.35370
 Alpha  occ. eigenvalues --   -0.35084  -0.34646  -0.34286  -0.34220  -0.33674
 Alpha  occ. eigenvalues --   -0.33554  -0.33128  -0.32505  -0.32383  -0.32188
 Alpha  occ. eigenvalues --   -0.32171  -0.32049  -0.31883  -0.31573  -0.31461
 Alpha  occ. eigenvalues --   -0.31055  -0.30437  -0.29893  -0.29869  -0.29731
 Alpha  occ. eigenvalues --   -0.29497  -0.29023  -0.28943  -0.27200  -0.25872
 Alpha  occ. eigenvalues --   -0.25574  -0.25484  -0.24955  -0.23469  -0.21592
 Alpha  occ. eigenvalues --   -0.19072
 Alpha virt. eigenvalues --   -0.11527  -0.05716  -0.03902  -0.02276  -0.00458
 Alpha virt. eigenvalues --   -0.00063   0.00080   0.00550   0.01090   0.02878
 Alpha virt. eigenvalues --    0.03650   0.03928   0.04802   0.05107   0.05454

 Mulliken charges:
               1
     1  Mg   0.975803
     2  C   -0.057442
     3  C   -0.063795
     4  C   -0.047773
     5  C   -0.100036
     6  N   -0.390484
     7  C   -0.000958
     8  C   -0.032926
     9  C   -0.213906
    10  C    0.121737
    11  C    0.011428
    12  C    0.058710
    13  C   -0.079220
    14  C    0.260447
    15  O   -0.262257
    16  O   -0.377601
    17  N   -0.523229
    18  C    0.170789
    19  C   -0.166046
    20  C   -0.070462
    21  C    0.174176
    22  C    0.078175
    23  C    0.030911
    24  O   -0.275385
    25  C   -0.011553
    26  N   -0.423901
    27  C    0.048748
    28  C   -0.088297
    29  C   -0.117327
    30  C    0.115464
    31  C    0.012865
    32  C   -0.070847
    33  C   -0.060262
    34  N   -0.478497
    35  C    0.177640
    36  C   -0.225522
    37  C   -0.038467
    38  C    0.205880
    39  C    0.063901
    40  C    0.160691
    41  O   -0.217811
    42  C   -0.105091
    43  C    0.324569
    44  O   -0.261813
    45  O   -0.358683
    46  C    0.127439
    47  C    0.258139
    48  C   -0.150526
    49  C   -0.252637
    50  C    0.050325
    51  C    0.030052
    52  C   -0.040878
    53  C    0.031476
    54  C   -0.231933
    55  C   -0.025021
    56  C    0.040314
    57  C   -0.048658
    58  C   -0.032457
    59  C   -0.227519
    60  C    0.010395
    61  C    0.007263
    62  C   -0.073233
    63  C    0.013117
    64  C   -0.208407
    65  C   -0.016423
    66  C   -0.021684
    67  H    0.010461
    68  H   -0.021442
    69  H    0.010416
    70  H    0.031215
    71  H    0.054013
    72  H    0.037863
    73  H    0.054447
    74  H    0.038912
    75  H    0.069634
    76  H    0.043583
    77  H    0.057568
    78  H    0.087591
    79  H    0.052793
    80  H    0.018571
    81  H    0.064714
    82  H    0.084753
    83  H    0.061394
    84  H    0.060366
    85  H    0.054478
    86  H    0.042026
    87  H    0.045139
    88  H    0.043828
    89  H    0.052657
    90  H    0.038674
    91  H    0.041168
    92  H    0.037981
    93  H    0.054630
    94  H    0.043805
    95  H    0.041098
    96  H    0.067952
    97  H    0.063337
    98  H    0.098450
    99  H    0.053259
   100  H    0.060367
   101  H    0.039567
   102  H    0.063041
   103  H    0.047032
   104  H    0.027443
   105  H    0.060354
   106  H    0.034800
   107  H    0.043177
   108  H    0.050166
   109  H    0.015016
   110  H    0.014495
   111  H    0.035812
   112  H    0.036865
   113  H    0.022612
   114  H    0.037060
   115  H    0.039738
   116  H    0.032358
   117  H    0.025686
   118  H    0.015813
   119  H    0.014838
   120  H    0.027985
   121  H    0.035525
   122  H    0.016357
   123  H    0.020944
   124  H    0.031675
   125  H    0.022138
   126  H    0.029238
   127  H    0.031653
   128  H    0.036924
   129  H    0.030900
   130  H    0.021960
   131  H    0.026350
   132  H    0.031098
   133  H    0.012941
   134  H    0.029287
   135  H    0.027268
   136  H    0.025000
   137  H    0.037873
   138  H    0.024838
   139  H    0.021851
   140  H    0.035136
 Sum of Mulliken charges =  -0.00000

 Dipole moment (field-independent basis, Debye):
    X=             -2.7349    Y=              2.2375    Z=             -0.3251  Tot=              3.5485
 Quadrupole moment (field-independent basis, Debye-Ang):
   XX=           -402.8919   YY=           -413.2224   ZZ=           -400.1365
   XY=              5.7180   XZ=            -13.7528   YZ=             57.6120

 Normal termination of Gaussian 16 at Fri Apr 29 02:11:56 2022.
