 Gaussian 16, Revision A.03,
 Gaussian 16:  ES64L-G16RevA.03 25-Dec-2016

 --------------------------------
 #p wB97XD/Def2SVP td=(nstates=5)
 --------------------------------

 ----------------------------------------------------
 step_1801_chromophore_8 TDDFT with wB97XD functional
 ----------------------------------------------------
 Symbolic Z-matrix:
 Charge =  0 Multiplicity = 1

                         Standard orientation:
 ---------------------------------------------------------------------
 Center     Atomic      Atomic             Coordinates (Angstroms)
 Number     Number       Type             X           Y           Z
 ---------------------------------------------------------------------
      1         12           0        4.213478    1.182391    0.325352
      2          6           0        4.241569   -2.331538    0.562324
      3          6           0        4.495196    0.840114   -3.125887
      4          6           0        3.822552    4.454520    0.152517
      5          6           0        3.440117    1.247677    3.792145
      6          7           0        4.171895   -0.567632   -1.065320
      7          6           0        4.354312   -1.897696   -0.757833
      8          6           0        4.451063   -2.779353   -2.043420
      9          6           0        4.627870   -1.656184   -3.157013
     10          6           0        4.588188   -0.359552   -2.376818
     11          6           0        5.824454   -1.750562   -4.091569
     12          6           0        3.355682   -3.729500   -2.349515
     13          6           0        1.985680   -3.019817   -2.299793
     14          6           0        0.976424   -3.768482   -1.315140
     15          8           0        1.257204   -4.573530   -0.441702
     16          8           0       -0.283360   -3.208905   -1.393719
     17          7           0        4.135853    2.502317   -1.321380
     18          6           0        4.404678    2.163630   -2.665820
     19          6           0        4.250154    3.379513   -3.422629
     20          6           0        3.908102    4.445582   -2.558426
     21          6           0        3.934590    3.870360   -1.183859
     22          6           0        4.513660    3.404254   -4.881667
     23          6           0        3.592670    5.862908   -2.980801
     24          8           0        3.677845    6.198885   -4.192278
     25          6           0        3.155484    6.847091   -1.946488
     26          7           0        3.833050    2.583414    1.751052
     27          6           0        3.719773    3.911092    1.429493
     28          6           0        3.400559    4.869821    2.646380
     29          6           0        3.222311    3.807564    3.750096
     30          6           0        3.541131    2.427954    3.052011
     31          6           0        4.497726    5.936201    2.840352
     32          6           0        1.747791    3.928387    4.406705
     33          6           0        1.663411    4.592995    5.785036
     34          7           0        3.997230   -0.181456    1.889411
     35          6           0        3.651826   -0.015639    3.215070
     36          6           0        3.732522   -1.276965    3.866426
     37          6           0        3.949232   -2.193977    2.875191
     38          6           0        4.074572   -1.519377    1.667208
     39          6           0        3.448024   -1.496739    5.318208
     40          6           0        4.063267   -3.641828    2.598922
     41          8           0        4.101177   -4.619555    3.347012
     42          6           0        4.376662   -3.756668    1.073958
     43          6           0        5.770026   -4.377038    0.908986
     44          8           0        6.847918   -3.901691    1.299608
     45          8           0        5.656556   -5.479586    0.061870
     46          6           0        6.909623   -6.001183   -0.412195
     47          6           0       -1.274204   -3.749050   -0.420609
     48          6           0       -2.411279   -2.763332   -0.558063
     49          6           0       -3.732737   -2.988015   -0.322638
     50          6           0       -4.329142   -4.248401    0.055231
     51          6           0       -4.519891   -1.798426   -0.408283
     52          6           0       -4.856436   -1.486625   -1.865621
     53          6           0       -4.778651   -0.012707   -2.268537
     54          6           0       -6.138951    0.517334   -2.850590
     55          6           0       -5.750609    1.427231   -4.039204
     56          6           0       -7.032450    1.266592   -1.823159
     57          6           0       -8.108325    0.435835   -1.173642
     58          6           0       -8.070206    0.322663    0.364924
     59          6           0       -9.362415    0.836422    1.052201
     60          6           0       -9.141140    1.208685    2.476878
     61          6           0      -10.520539   -0.145247    0.834018
     62          6           0      -11.746345    0.659314    0.326154
     63          6           0      -12.933156   -0.291627    0.246777
     64          6           0      -14.276595    0.252573    0.823719
     65          6           0      -15.299558    0.691969   -0.168237
     66          6           0      -14.862708   -0.792316    1.700967
     67          1           0        4.647752    0.752497   -4.203969
     68          1           0        3.722803    5.540795    0.147833
     69          1           0        3.169345    1.388151    4.840276
     70          1           0        5.390894   -3.331613   -2.073772
     71          1           0        3.786216   -1.666469   -3.849068
     72          1           0        6.558412   -1.164041   -3.538982
     73          1           0        5.782877   -1.301729   -5.083241
     74          1           0        6.194295   -2.775161   -4.110128
     75          1           0        3.394806   -4.515974   -1.595762
     76          1           0        3.616490   -4.178022   -3.308825
     77          1           0        1.561799   -2.852349   -3.289694
     78          1           0        1.995868   -1.974235   -1.988537
     79          1           0        3.622744    3.746799   -5.407705
     80          1           0        4.696499    2.440194   -5.355984
     81          1           0        5.298294    4.108488   -5.159425
     82          1           0        4.008654    7.107586   -1.320706
     83          1           0        2.408190    6.269671   -1.402599
     84          1           0        2.681398    7.684631   -2.456992
     85          1           0        2.433158    5.336828    2.465622
     86          1           0        3.873556    3.959085    4.611583
     87          1           0        4.743741    5.996164    3.900598
     88          1           0        4.194932    6.920697    2.483374
     89          1           0        5.380925    5.687231    2.251253
     90          1           0        1.410192    2.899935    4.535184
     91          1           0        1.050605    4.455624    3.755307
     92          1           0        2.517209    5.261089    5.899263
     93          1           0        1.610542    3.860419    6.591308
     94          1           0        0.772341    5.217745    5.726020
     95          1           0        4.043422   -0.833866    5.945973
     96          1           0        3.850215   -2.504755    5.418546
     97          1           0        2.400938   -1.378659    5.596148
     98          1           0        3.604053   -4.388423    0.637736
     99          1           0        6.766361   -6.840040   -1.093375
    100          1           0        7.640712   -6.351901    0.315876
    101          1           0        7.409236   -5.208579   -0.967872
    102          1           0       -0.829458   -3.694417    0.572901
    103          1           0       -1.639396   -4.770555   -0.529643
    104          1           0       -2.083324   -1.771283   -0.868308
    105          1           0       -4.272700   -4.261138    1.143219
    106          1           0       -3.736647   -5.097393   -0.284288
    107          1           0       -5.362769   -4.387660   -0.262574
    108          1           0       -4.052316   -0.994738    0.159113
    109          1           0       -5.476483   -1.990018    0.077254
    110          1           0       -5.860729   -1.854417   -2.079439
    111          1           0       -4.304025   -2.111684   -2.567660
    112          1           0       -3.990976    0.172200   -2.998727
    113          1           0       -4.575895    0.543472   -1.352735
    114          1           0       -6.707771   -0.334360   -3.223527
    115          1           0       -5.552166    0.871789   -4.956078
    116          1           0       -4.836227    1.975619   -3.813107
    117          1           0       -6.488156    2.210350   -4.216842
    118          1           0       -7.515980    2.148565   -2.244049
    119          1           0       -6.455258    1.725011   -1.019095
    120          1           0       -8.068010   -0.568392   -1.594821
    121          1           0       -9.084640    0.885012   -1.358362
    122          1           0       -7.230894    0.770099    0.897469
    123          1           0       -7.914670   -0.729060    0.604301
    124          1           0       -9.623948    1.734235    0.491673
    125          1           0       -9.941349    0.940474    3.166150
    126          1           0       -9.114229    2.298604    2.464128
    127          1           0       -8.245806    0.866843    2.995366
    128          1           0      -10.714255   -0.698449    1.752994
    129          1           0      -10.129627   -0.783655    0.040732
    130          1           0      -11.668786    1.042518   -0.691985
    131          1           0      -12.003485    1.590088    0.830191
    132          1           0      -12.624372   -1.283742    0.576349
    133          1           0      -13.062099   -0.409031   -0.828725
    134          1           0      -14.109837    1.040176    1.558255
    135          1           0      -15.542477   -0.131377   -0.839133
    136          1           0      -15.089842    1.471088   -0.900511
    137          1           0      -16.174244    1.036091    0.383172
    138          1           0      -14.574033   -1.795837    1.388501
    139          1           0      -15.951113   -0.824777    1.646511
    140          1           0      -14.491513   -0.630823    2.712513
 ---------------------------------------------------------------------

 SCF Done:  E(RwB97XD) =  -3007.87917235     A.U. after   18 cycles

 Excitation energies and oscillator strengths:

 Excited State   1:      Singlet-A      1.6229 eV  763.97 nm  f=0.3606  <S**2>=0.000
     245 -> 248        0.18299
     246 -> 247        0.68481
     245 <- 248        0.11760
 This state for optimization and/or second-order correction.
 Total Energy, E(TD-HF/TD-DFT) =  -3007.81953222
 Copying the excited state density for this state as the 1-particle RhoCI density.

 Excited State   2:      Singlet-A      2.2019 eV  563.08 nm  f=0.0873  <S**2>=0.000
     245 -> 247        0.62505
     246 -> 248       -0.31528

 Excited State   3:      Singlet-A      3.2724 eV  378.88 nm  f=0.0016  <S**2>=0.000
     242 -> 247       -0.20285
     243 -> 247        0.64545

 Excited State   4:      Singlet-A      3.4202 eV  362.51 nm  f=0.1300  <S**2>=0.000
     240 -> 247        0.31247
     240 -> 249        0.13067
     242 -> 247        0.41835
     245 -> 247        0.13254
     246 -> 248        0.38805

 Excited State   5:      Singlet-A      3.4678 eV  357.53 nm  f=0.0015  <S**2>=0.000
     240 -> 247        0.44667
     240 -> 249        0.26533
     240 -> 250       -0.21867
     242 -> 247       -0.37170

 The electronic state is 1-A.
 Alpha  occ. eigenvalues --  -46.94701 -19.30857 -19.30096 -19.25617 -19.25425
 Alpha  occ. eigenvalues --  -19.24242 -19.23239 -14.47792 -14.47002 -14.44318
 Alpha  occ. eigenvalues --  -14.43707 -10.44065 -10.43888 -10.39106 -10.38739
 Alpha  occ. eigenvalues --  -10.35649 -10.35612 -10.35573 -10.35521 -10.35433
 Alpha  occ. eigenvalues --  -10.35176 -10.35018 -10.33654 -10.33527 -10.32513
 Alpha  occ. eigenvalues --  -10.32406 -10.32394 -10.32339 -10.32292 -10.32282
 Alpha  occ. eigenvalues --  -10.32253 -10.32170 -10.31889 -10.31648 -10.31271
 Alpha  occ. eigenvalues --  -10.31167 -10.31150 -10.30878 -10.30844 -10.30740
 Alpha  occ. eigenvalues --  -10.30423 -10.30034 -10.29987 -10.29786 -10.29723
 Alpha  occ. eigenvalues --  -10.29698 -10.29688 -10.29533 -10.29163 -10.29065
 Alpha  occ. eigenvalues --  -10.28823 -10.28632 -10.28627 -10.28608 -10.28532
 Alpha  occ. eigenvalues --  -10.28514 -10.28497 -10.28481 -10.28371 -10.28326
 Alpha  occ. eigenvalues --  -10.28207 -10.28002 -10.27997 -10.27905 -10.27776
 Alpha  occ. eigenvalues --  -10.27341  -3.20736  -1.94336  -1.93879  -1.93697
 Alpha  occ. eigenvalues --   -1.18267  -1.18100  -1.11571  -1.09843  -1.09700
 Alpha  occ. eigenvalues --   -1.09679  -1.06733  -1.05845  -1.05052  -1.03321
 Alpha  occ. eigenvalues --   -0.95033  -0.93722  -0.92283  -0.92210  -0.90984
 Alpha  occ. eigenvalues --   -0.90894  -0.90584  -0.89939  -0.89864  -0.88836
 Alpha  occ. eigenvalues --   -0.88025  -0.87332  -0.86397  -0.85976  -0.85477
 Alpha  occ. eigenvalues --   -0.84686  -0.84344  -0.83781  -0.82927  -0.82799
 Alpha  occ. eigenvalues --   -0.82406  -0.80223  -0.79531  -0.79133  -0.78240
 Alpha  occ. eigenvalues --   -0.78148  -0.77347  -0.77183  -0.77050  -0.75913
 Alpha  occ. eigenvalues --   -0.75232  -0.74244  -0.73646  -0.72550  -0.70639
 Alpha  occ. eigenvalues --   -0.70420  -0.69710  -0.68986  -0.68498  -0.67692
 Alpha  occ. eigenvalues --   -0.67544  -0.67159  -0.66846  -0.66672  -0.66044
 Alpha  occ. eigenvalues --   -0.65702  -0.65332  -0.64679  -0.64532  -0.62094
 Alpha  occ. eigenvalues --   -0.61805  -0.61474  -0.61081  -0.60737  -0.60130
 Alpha  occ. eigenvalues --   -0.59734  -0.58950  -0.58357  -0.57980  -0.57292
 Alpha  occ. eigenvalues --   -0.57049  -0.56980  -0.56877  -0.56168  -0.55940
 Alpha  occ. eigenvalues --   -0.55604  -0.55430  -0.55414  -0.54993  -0.54813
 Alpha  occ. eigenvalues --   -0.54748  -0.54382  -0.54273  -0.54233  -0.53969
 Alpha  occ. eigenvalues --   -0.53877  -0.53622  -0.53395  -0.53090  -0.52636
 Alpha  occ. eigenvalues --   -0.52443  -0.52191  -0.51748  -0.51681  -0.51624
 Alpha  occ. eigenvalues --   -0.51421  -0.51367  -0.51212  -0.50965  -0.50389
 Alpha  occ. eigenvalues --   -0.50267  -0.50233  -0.50060  -0.49849  -0.49791
 Alpha  occ. eigenvalues --   -0.49630  -0.49353  -0.49025  -0.48752  -0.48572
 Alpha  occ. eigenvalues --   -0.48449  -0.48300  -0.48083  -0.48005  -0.47862
 Alpha  occ. eigenvalues --   -0.47550  -0.47420  -0.47016  -0.46822  -0.46619
 Alpha  occ. eigenvalues --   -0.46581  -0.46368  -0.46276  -0.46041  -0.45843
 Alpha  occ. eigenvalues --   -0.45659  -0.45409  -0.45271  -0.45227  -0.44985
 Alpha  occ. eigenvalues --   -0.44737  -0.44446  -0.44377  -0.44229  -0.43874
 Alpha  occ. eigenvalues --   -0.43762  -0.43718  -0.43390  -0.43245  -0.42988
 Alpha  occ. eigenvalues --   -0.42956  -0.42919  -0.42725  -0.42471  -0.42428
 Alpha  occ. eigenvalues --   -0.42087  -0.41702  -0.41327  -0.41267  -0.40773
 Alpha  occ. eigenvalues --   -0.40460  -0.40176  -0.39460  -0.39455  -0.39215
 Alpha  occ. eigenvalues --   -0.39164  -0.39142  -0.38760  -0.38702  -0.38514
 Alpha  occ. eigenvalues --   -0.38009  -0.37467  -0.36974  -0.36884  -0.36685
 Alpha  occ. eigenvalues --   -0.36492  -0.35784  -0.35751  -0.33802  -0.32815
 Alpha  occ. eigenvalues --   -0.32568  -0.32419  -0.31567  -0.30186  -0.26644
 Alpha  occ. eigenvalues --   -0.23227
 Alpha virt. eigenvalues --   -0.07383  -0.00320   0.02411   0.04255   0.06061
 Alpha virt. eigenvalues --    0.06288   0.06707   0.07186   0.07746   0.09229
 Alpha virt. eigenvalues --    0.10253   0.10770   0.11475   0.11866   0.12238

 Mulliken charges:
               1
     1  Mg   0.965238
     2  C   -0.056769
     3  C   -0.071746
     4  C   -0.058829
     5  C   -0.126291
     6  N   -0.358711
     7  C   -0.038103
     8  C   -0.000545
     9  C   -0.188326
    10  C    0.107075
    11  C    0.021117
    12  C    0.072719
    13  C   -0.063345
    14  C    0.250968
    15  O   -0.260296
    16  O   -0.376631
    17  N   -0.494121
    18  C    0.157554
    19  C   -0.150867
    20  C   -0.065432
    21  C    0.165676
    22  C    0.084795
    23  C    0.024634
    24  O   -0.270458
    25  C    0.004023
    26  N   -0.393093
    27  C    0.043600
    28  C   -0.064733
    29  C   -0.095047
    30  C    0.106581
    31  C    0.023950
    32  C   -0.055172
    33  C   -0.043379
    34  N   -0.440906
    35  C    0.174027
    36  C   -0.223120
    37  C   -0.029482
    38  C    0.190217
    39  C    0.074961
    40  C    0.140098
    41  O   -0.206764
    42  C   -0.062422
    43  C    0.300550
    44  O   -0.256064
    45  O   -0.357055
    46  C    0.142191
    47  C    0.270189
    48  C   -0.165078
    49  C   -0.228894
    50  C    0.062447
    51  C    0.053018
    52  C   -0.027208
    53  C    0.045485
    54  C   -0.198754
    55  C   -0.009940
    56  C    0.049285
    57  C   -0.026392
    58  C   -0.014961
    59  C   -0.190086
    60  C    0.017372
    61  C    0.022598
    62  C   -0.057854
    63  C    0.026058
    64  C   -0.176369
    65  C   -0.004152
    66  C   -0.011287
    67  H    0.001026
    68  H   -0.035413
    69  H    0.005969
    70  H    0.017437
    71  H    0.040757
    72  H    0.029520
    73  H    0.050668
    74  H    0.033224
    75  H    0.058452
    76  H    0.036865
    77  H    0.053687
    78  H    0.077069
    79  H    0.048385
    80  H    0.014378
    81  H    0.061407
    82  H    0.080190
    83  H    0.053199
    84  H    0.059162
    85  H    0.043902
    86  H    0.030177
    87  H    0.039096
    88  H    0.038677
    89  H    0.046206
    90  H    0.028506
    91  H    0.033376
    92  H    0.029813
    93  H    0.049459
    94  H    0.038225
    95  H    0.035948
    96  H    0.062968
    97  H    0.059360
    98  H    0.087724
    99  H    0.050355
   100  H    0.056652
   101  H    0.034501
   102  H    0.058014
   103  H    0.041040
   104  H    0.023437
   105  H    0.054660
   106  H    0.028572
   107  H    0.039085
   108  H    0.042701
   109  H    0.003599
   110  H    0.003620
   111  H    0.027395
   112  H    0.029330
   113  H    0.010381
   114  H    0.023437
   115  H    0.034362
   116  H    0.024468
   117  H    0.019430
   118  H    0.008597
   119  H    0.004699
   120  H    0.017398
   121  H    0.022524
   122  H    0.006238
   123  H    0.009175
   124  H    0.015692
   125  H    0.016458
   126  H    0.023744
   127  H    0.026696
   128  H    0.028693
   129  H    0.019138
   130  H    0.013582
   131  H    0.016721
   132  H    0.021262
   133  H    0.004207
   134  H    0.018132
   135  H    0.019812
   136  H    0.019667
   137  H    0.031454
   138  H    0.017681
   139  H    0.016132
   140  H    0.030091
 Sum of Mulliken charges =  -0.00000

 Dipole moment (field-independent basis, Debye):
    X=             -2.7275    Y=              2.0812    Z=             -0.3578  Tot=              3.4494
 Quadrupole moment (field-independent basis, Debye-Ang):
   XX=           -402.2358   YY=           -412.4237   ZZ=           -400.0747
   XY=              5.1109   XZ=            -13.9027   YZ=             57.1345

 Normal termination of Gaussian 16 at Fri Apr 29 02:38:28 2022.
