 Gaussian 16, Revision A.03,
 Gaussian 16:  ES64L-G16RevA.03 25-Dec-2016

 --------------------
 #p ZINDO=(nstates=5)
 --------------------

 -----------------------------
 step_1801_chromophore_8 ZINDO
 -----------------------------
 Symbolic Z-matrix:
 Charge =  0 Multiplicity = 1

                         Standard orientation:
 ---------------------------------------------------------------------
 Center     Atomic      Atomic             Coordinates (Angstroms)
 Number     Number       Type             X           Y           Z
 ---------------------------------------------------------------------
      1         12           0        4.213478    1.182391    0.325352
      2          6           0        4.241569   -2.331538    0.562324
      3          6           0        4.495196    0.840114   -3.125887
      4          6           0        3.822552    4.454520    0.152517
      5          6           0        3.440117    1.247677    3.792145
      6          7           0        4.171895   -0.567632   -1.065320
      7          6           0        4.354312   -1.897696   -0.757833
      8          6           0        4.451063   -2.779353   -2.043420
      9          6           0        4.627870   -1.656184   -3.157013
     10          6           0        4.588188   -0.359552   -2.376818
     11          6           0        5.824454   -1.750562   -4.091569
     12          6           0        3.355682   -3.729500   -2.349515
     13          6           0        1.985680   -3.019817   -2.299793
     14          6           0        0.976424   -3.768482   -1.315140
     15          8           0        1.257204   -4.573530   -0.441702
     16          8           0       -0.283360   -3.208905   -1.393719
     17          7           0        4.135853    2.502317   -1.321380
     18          6           0        4.404678    2.163630   -2.665820
     19          6           0        4.250154    3.379513   -3.422629
     20          6           0        3.908102    4.445582   -2.558426
     21          6           0        3.934590    3.870360   -1.183859
     22          6           0        4.513660    3.404254   -4.881667
     23          6           0        3.592670    5.862908   -2.980801
     24          8           0        3.677845    6.198885   -4.192278
     25          6           0        3.155484    6.847091   -1.946488
     26          7           0        3.833050    2.583414    1.751052
     27          6           0        3.719773    3.911092    1.429493
     28          6           0        3.400559    4.869821    2.646380
     29          6           0        3.222311    3.807564    3.750096
     30          6           0        3.541131    2.427954    3.052011
     31          6           0        4.497726    5.936201    2.840352
     32          6           0        1.747791    3.928387    4.406705
     33          6           0        1.663411    4.592995    5.785036
     34          7           0        3.997230   -0.181456    1.889411
     35          6           0        3.651826   -0.015639    3.215070
     36          6           0        3.732522   -1.276965    3.866426
     37          6           0        3.949232   -2.193977    2.875191
     38          6           0        4.074572   -1.519377    1.667208
     39          6           0        3.448024   -1.496739    5.318208
     40          6           0        4.063267   -3.641828    2.598922
     41          8           0        4.101177   -4.619555    3.347012
     42          6           0        4.376662   -3.756668    1.073958
     43          6           0        5.770026   -4.377038    0.908986
     44          8           0        6.847918   -3.901691    1.299608
     45          8           0        5.656556   -5.479586    0.061870
     46          6           0        6.909623   -6.001183   -0.412195
     47          6           0       -1.274204   -3.749050   -0.420609
     48          6           0       -2.411279   -2.763332   -0.558063
     49          6           0       -3.732737   -2.988015   -0.322638
     50          6           0       -4.329142   -4.248401    0.055231
     51          6           0       -4.519891   -1.798426   -0.408283
     52          6           0       -4.856436   -1.486625   -1.865621
     53          6           0       -4.778651   -0.012707   -2.268537
     54          6           0       -6.138951    0.517334   -2.850590
     55          6           0       -5.750609    1.427231   -4.039204
     56          6           0       -7.032450    1.266592   -1.823159
     57          6           0       -8.108325    0.435835   -1.173642
     58          6           0       -8.070206    0.322663    0.364924
     59          6           0       -9.362415    0.836422    1.052201
     60          6           0       -9.141140    1.208685    2.476878
     61          6           0      -10.520539   -0.145247    0.834018
     62          6           0      -11.746345    0.659314    0.326154
     63          6           0      -12.933156   -0.291627    0.246777
     64          6           0      -14.276595    0.252573    0.823719
     65          6           0      -15.299558    0.691969   -0.168237
     66          6           0      -14.862708   -0.792316    1.700967
     67          1           0        4.647752    0.752497   -4.203969
     68          1           0        3.722803    5.540795    0.147833
     69          1           0        3.169345    1.388151    4.840276
     70          1           0        5.390894   -3.331613   -2.073772
     71          1           0        3.786216   -1.666469   -3.849068
     72          1           0        6.558412   -1.164041   -3.538982
     73          1           0        5.782877   -1.301729   -5.083241
     74          1           0        6.194295   -2.775161   -4.110128
     75          1           0        3.394806   -4.515974   -1.595762
     76          1           0        3.616490   -4.178022   -3.308825
     77          1           0        1.561799   -2.852349   -3.289694
     78          1           0        1.995868   -1.974235   -1.988537
     79          1           0        3.622744    3.746799   -5.407705
     80          1           0        4.696499    2.440194   -5.355984
     81          1           0        5.298294    4.108488   -5.159425
     82          1           0        4.008654    7.107586   -1.320706
     83          1           0        2.408190    6.269671   -1.402599
     84          1           0        2.681398    7.684631   -2.456992
     85          1           0        2.433158    5.336828    2.465622
     86          1           0        3.873556    3.959085    4.611583
     87          1           0        4.743741    5.996164    3.900598
     88          1           0        4.194932    6.920697    2.483374
     89          1           0        5.380925    5.687231    2.251253
     90          1           0        1.410192    2.899935    4.535184
     91          1           0        1.050605    4.455624    3.755307
     92          1           0        2.517209    5.261089    5.899263
     93          1           0        1.610542    3.860419    6.591308
     94          1           0        0.772341    5.217745    5.726020
     95          1           0        4.043422   -0.833866    5.945973
     96          1           0        3.850215   -2.504755    5.418546
     97          1           0        2.400938   -1.378659    5.596148
     98          1           0        3.604053   -4.388423    0.637736
     99          1           0        6.766361   -6.840040   -1.093375
    100          1           0        7.640712   -6.351901    0.315876
    101          1           0        7.409236   -5.208579   -0.967872
    102          1           0       -0.829458   -3.694417    0.572901
    103          1           0       -1.639396   -4.770555   -0.529643
    104          1           0       -2.083324   -1.771283   -0.868308
    105          1           0       -4.272700   -4.261138    1.143219
    106          1           0       -3.736647   -5.097393   -0.284288
    107          1           0       -5.362769   -4.387660   -0.262574
    108          1           0       -4.052316   -0.994738    0.159113
    109          1           0       -5.476483   -1.990018    0.077254
    110          1           0       -5.860729   -1.854417   -2.079439
    111          1           0       -4.304025   -2.111684   -2.567660
    112          1           0       -3.990976    0.172200   -2.998727
    113          1           0       -4.575895    0.543472   -1.352735
    114          1           0       -6.707771   -0.334360   -3.223527
    115          1           0       -5.552166    0.871789   -4.956078
    116          1           0       -4.836227    1.975619   -3.813107
    117          1           0       -6.488156    2.210350   -4.216842
    118          1           0       -7.515980    2.148565   -2.244049
    119          1           0       -6.455258    1.725011   -1.019095
    120          1           0       -8.068010   -0.568392   -1.594821
    121          1           0       -9.084640    0.885012   -1.358362
    122          1           0       -7.230894    0.770099    0.897469
    123          1           0       -7.914670   -0.729060    0.604301
    124          1           0       -9.623948    1.734235    0.491673
    125          1           0       -9.941349    0.940474    3.166150
    126          1           0       -9.114229    2.298604    2.464128
    127          1           0       -8.245806    0.866843    2.995366
    128          1           0      -10.714255   -0.698449    1.752994
    129          1           0      -10.129627   -0.783655    0.040732
    130          1           0      -11.668786    1.042518   -0.691985
    131          1           0      -12.003485    1.590088    0.830191
    132          1           0      -12.624372   -1.283742    0.576349
    133          1           0      -13.062099   -0.409031   -0.828725
    134          1           0      -14.109837    1.040176    1.558255
    135          1           0      -15.542477   -0.131377   -0.839133
    136          1           0      -15.089842    1.471088   -0.900511
    137          1           0      -16.174244    1.036091    0.383172
    138          1           0      -14.574033   -1.795837    1.388501
    139          1           0      -15.951113   -0.824777    1.646511
    140          1           0      -14.491513   -0.630823    2.712513
 ---------------------------------------------------------------------

 SCF Done:  E(RZINDO/S) =  -474.519138667     A.U. after   19 cycles

 Excitation energies and oscillator strengths:

 Excited State   1:      Singlet-A      1.2420 eV  998.24 nm  f=0.5816  <S**2>=0.000
     175 ->178        -0.19338
     176 ->177         0.66313
 This state for optimization and/or second-order correction.
 Total Energy, E(CIS/TDA) =  -474.473494897
 Copying the excited state density for this state as the 1-particle RhoCI density.

 Excited State   2:      Singlet-A      1.9434 eV  637.98 nm  f=0.0206  <S**2>=0.000
     175 ->177         0.52327
     176 ->178         0.45432

 Excited State   3:      Singlet-A      2.9029 eV  427.10 nm  f=0.0253  <S**2>=0.000
     168 ->177        -0.28685
     168 ->179        -0.31459
     168 ->180         0.18821
     168 ->182         0.18565
     168 ->185        -0.15504
     169 ->177         0.20053
     169 ->179         0.21285
     169 ->180        -0.13205
     169 ->182        -0.12899
     169 ->185         0.10614

 Excited State   4:      Singlet-A      3.0300 eV  409.18 nm  f=0.0184  <S**2>=0.000
     168 ->177         0.11916
     168 ->179        -0.18050
     168 ->180        -0.18717
     168 ->185        -0.11690
     169 ->177         0.14687
     169 ->179        -0.21415
     169 ->180        -0.22027
     169 ->185        -0.13812
     169 ->187         0.10085
     170 ->177         0.14125
     170 ->179        -0.19526
     170 ->180        -0.21463
     170 ->185        -0.12698
     173 ->177        -0.12137
     176 ->179        -0.14067

 Excited State   5:      Singlet-A      3.0541 eV  405.96 nm  f=1.1544  <S**2>=0.000
     171 ->177         0.13096
     175 ->177        -0.40117
     176 ->178         0.48017
     176 ->179        -0.19670

 The electronic state is 1-A.
 Alpha  occ. eigenvalues --   -1.86184  -1.80368  -1.78587  -1.72056  -1.71277
 Alpha  occ. eigenvalues --   -1.70072  -1.67660  -1.63564  -1.59198  -1.58766
 Alpha  occ. eigenvalues --   -1.56370  -1.54347  -1.49812  -1.48325  -1.47248
 Alpha  occ. eigenvalues --   -1.44155  -1.43254  -1.41240  -1.39656  -1.39309
 Alpha  occ. eigenvalues --   -1.36049  -1.34841  -1.34371  -1.30909  -1.29907
 Alpha  occ. eigenvalues --   -1.28387  -1.27006  -1.23366  -1.21849  -1.18349
 Alpha  occ. eigenvalues --   -1.17147  -1.15864  -1.15387  -1.15101  -1.14130
 Alpha  occ. eigenvalues --   -1.13364  -1.10573  -1.08014  -1.04934  -1.03366
 Alpha  occ. eigenvalues --   -1.02063  -1.00825  -0.99495  -0.97340  -0.96540
 Alpha  occ. eigenvalues --   -0.95637  -0.94714  -0.94022  -0.92564  -0.92300
 Alpha  occ. eigenvalues --   -0.91774  -0.91196  -0.90593  -0.88630  -0.88400
 Alpha  occ. eigenvalues --   -0.86258  -0.85372  -0.83749  -0.82300  -0.80550
 Alpha  occ. eigenvalues --   -0.79427  -0.79121  -0.77896  -0.76617  -0.76486
 Alpha  occ. eigenvalues --   -0.75827  -0.75535  -0.75464  -0.73884  -0.73575
 Alpha  occ. eigenvalues --   -0.72843  -0.72666  -0.72265  -0.71913  -0.70398
 Alpha  occ. eigenvalues --   -0.70164  -0.69837  -0.69380  -0.68606  -0.68288
 Alpha  occ. eigenvalues --   -0.67434  -0.67099  -0.66674  -0.65837  -0.65263
 Alpha  occ. eigenvalues --   -0.65221  -0.64861  -0.64415  -0.63759  -0.63636
 Alpha  occ. eigenvalues --   -0.63411  -0.63204  -0.62721  -0.62514  -0.62062
 Alpha  occ. eigenvalues --   -0.61746  -0.61007  -0.60816  -0.60382  -0.59527
 Alpha  occ. eigenvalues --   -0.59387  -0.59232  -0.59076  -0.58602  -0.58361
 Alpha  occ. eigenvalues --   -0.58065  -0.57463  -0.57216  -0.56890  -0.56300
 Alpha  occ. eigenvalues --   -0.55864  -0.55722  -0.55235  -0.54894  -0.54708
 Alpha  occ. eigenvalues --   -0.54319  -0.53532  -0.53306  -0.52860  -0.52677
 Alpha  occ. eigenvalues --   -0.52471  -0.52205  -0.52097  -0.51659  -0.51405
 Alpha  occ. eigenvalues --   -0.51359  -0.50989  -0.50741  -0.50344  -0.50067
 Alpha  occ. eigenvalues --   -0.50034  -0.49137  -0.49117  -0.48955  -0.48906
 Alpha  occ. eigenvalues --   -0.48651  -0.48615  -0.48488  -0.47945  -0.47826
 Alpha  occ. eigenvalues --   -0.47657  -0.47524  -0.47107  -0.46879  -0.46709
 Alpha  occ. eigenvalues --   -0.45930  -0.45686  -0.45374  -0.45254  -0.45035
 Alpha  occ. eigenvalues --   -0.44902  -0.44835  -0.44136  -0.44052  -0.43670
 Alpha  occ. eigenvalues --   -0.43659  -0.43156  -0.42742  -0.42711  -0.42160
 Alpha  occ. eigenvalues --   -0.42074  -0.41900  -0.41456  -0.39531  -0.39435
 Alpha  occ. eigenvalues --   -0.38740  -0.37309  -0.35319  -0.35201  -0.34923
 Alpha  occ. eigenvalues --   -0.33603  -0.32908  -0.32451  -0.30331  -0.27222
 Alpha  occ. eigenvalues --   -0.21997
 Alpha virt. eigenvalues --   -0.08686  -0.02517  -0.00494   0.01108   0.01399
 Alpha virt. eigenvalues --    0.01824   0.02237   0.02586   0.04604   0.04920
 Alpha virt. eigenvalues --    0.05918   0.06784   0.07485   0.07817   0.08170

 Mulliken charges:
               1
     1  Mg   0.427917
     2  C   -0.017915
     3  C   -0.043750
     4  C   -0.094031
     5  C   -0.080743
     6  N   -0.271124
     7  C    0.121109
     8  C    0.007922
     9  C   -0.004288
    10  C    0.090776
    11  C   -0.056726
    12  C   -0.012045
    13  C    0.005068
    14  C    0.450425
    15  O   -0.508735
    16  O   -0.272743
    17  N   -0.334564
    18  C    0.069973
    19  C    0.060690
    20  C   -0.058923
    21  C    0.122017
    22  C   -0.036837
    23  C    0.324946
    24  O   -0.547470
    25  C   -0.028516
    26  N   -0.261155
    27  C    0.129567
    28  C    0.001048
    29  C   -0.009021
    30  C    0.140663
    31  C   -0.047519
    32  C   -0.040330
    33  C   -0.057399
    34  N   -0.336307
    35  C    0.118116
    36  C    0.035314
    37  C   -0.027126
    38  C    0.121557
    39  C   -0.045239
    40  C    0.330484
    41  O   -0.506214
    42  C    0.056623
    43  C    0.487549
    44  O   -0.511156
    45  O   -0.261229
    46  C    0.078020
    47  C    0.101462
    48  C   -0.126036
    49  C    0.017607
    50  C   -0.032097
    51  C   -0.008688
    52  C   -0.029030
    53  C   -0.034146
    54  C   -0.010587
    55  C   -0.058994
    56  C   -0.030163
    57  C   -0.034203
    58  C   -0.039366
    59  C   -0.011501
    60  C   -0.054293
    61  C   -0.030725
    62  C   -0.040229
    63  C   -0.041524
    64  C    0.000831
    65  C   -0.048234
    66  C   -0.053571
    67  H    0.031333
    68  H    0.017795
    69  H    0.034546
    70  H    0.025798
    71  H    0.022052
    72  H    0.014993
    73  H    0.030621
    74  H    0.018101
    75  H    0.034285
    76  H    0.026007
    77  H    0.038445
    78  H    0.052867
    79  H    0.033197
    80  H    0.016925
    81  H    0.040879
    82  H    0.049316
    83  H    0.034679
    84  H    0.041150
    85  H    0.034251
    86  H    0.032048
    87  H    0.021863
    88  H    0.019867
    89  H    0.025952
    90  H    0.016920
    91  H    0.024615
    92  H    0.019301
    93  H    0.028090
    94  H    0.018743
    95  H    0.025241
    96  H    0.035689
    97  H    0.039068
    98  H    0.065547
    99  H    0.027151
   100  H    0.049136
   101  H    0.031851
   102  H    0.050236
   103  H    0.054343
   104  H    0.029866
   105  H    0.032931
   106  H    0.021862
   107  H    0.026512
   108  H    0.029137
   109  H    0.005773
   110  H    0.011931
   111  H    0.018917
   112  H    0.025647
   113  H    0.020118
   114  H    0.024343
   115  H    0.018701
   116  H    0.014417
   117  H    0.013014
   118  H    0.014520
   119  H    0.015763
   120  H    0.019325
   121  H    0.019874
   122  H    0.015373
   123  H    0.007184
   124  H    0.017577
   125  H    0.012306
   126  H    0.009264
   127  H    0.020164
   128  H    0.030155
   129  H    0.023791
   130  H    0.015031
   131  H    0.024298
   132  H    0.024372
   133  H    0.008173
   134  H    0.018379
   135  H    0.015214
   136  H    0.011452
   137  H    0.014932
   138  H    0.011321
   139  H    0.014572
   140  H    0.015698
 Sum of Mulliken charges =  -0.00000

 Dipole moment (field-independent basis, Debye):
    X=             -3.7058    Y=              2.4471    Z=              0.2407  Tot=              4.4474
 N-N= 4.453884760574D+03 E-N= 0.000000000000D+00  KE=-9.582032479232D+03
 Leave Link  601 at Fri Apr 29 02:52:36 2022, MaxMem=  6710886400 cpu:               0.8 elap:               0.0
 (Enter /sw/apps/gaussian-16.0/g16/l9999.exe)
 1\1\GINC-BP1-COMPUTE148\SP\RZINDO CIS\STO-3G\C55H74Mg1N4O6\OF15641\29-
 Apr-2022\0\\#p ZINDO=(nstates=5)\\step_1801_chromophore_8 ZINDO\\0,1\M
 g,0,44.037,3.313,47.566\C,0,42.158,6.289,47.434\C,0,41.036,1.553,47.62
 9\C,0,45.853,0.568,47.328\C,0,46.925,5.303,47.\N,0,41.891,3.904,47.357
 \C,0,41.342,5.16,47.491\C,0,39.781,5.113,47.469\C,0,39.532,3.55,47.636
 \C,0,40.926,2.964,47.706\C,0,38.633,3.081,48.77\C,0,39.059,5.693,46.31
 2\C,0,39.621,5.142,44.984\C,0,40.05,6.322,43.998\O,0,40.258,7.489,44.2

 Normal termination of Gaussian 16 at Fri Apr 29 02:52:36 2022.
