 Gaussian 16, Revision A.03,
 Gaussian 16:  ES64L-G16RevA.03 25-Dec-2016

 ------------------------------
 #p blyp/Def2SVP td=(nstates=5)
 ------------------------------

 -------------------------------------------------
 step_851_chromophore_7 TDDFT with blyp functional
 -------------------------------------------------
 Symbolic Z-matrix:
 Charge =  0 Multiplicity = 1

                         Standard orientation:
 ---------------------------------------------------------------------
 Center     Atomic      Atomic             Coordinates (Angstroms)
 Number     Number       Type             X           Y           Z
 ---------------------------------------------------------------------
      1         12           0        6.224615    0.432165    0.050457
      2          6           0        3.562257   -1.876057   -0.153060
      3          6           0        4.149861    2.755868   -1.499238
      4          6           0        8.739838    2.500642    0.211003
      5          6           0        8.298403   -2.156873    1.310122
      6          7           0        4.022600    0.476984   -0.660069
      7          6           0        3.143440   -0.593164   -0.674845
      8          6           0        1.769584   -0.121043   -1.211523
      9          6           0        2.159649    1.192675   -1.981275
     10          6           0        3.474422    1.546672   -1.297899
     11          6           0        2.248991    0.902685   -3.471897
     12          6           0        0.650409    0.020010   -0.148910
     13          6           0       -0.797847    0.239415   -0.714293
     14          6           0       -1.837821   -0.478522    0.094951
     15          8           0       -1.765561   -0.452386    1.303325
     16          8           0       -2.729765   -1.147580   -0.721102
     17          7           0        6.355702    2.441289   -0.383279
     18          6           0        5.468795    3.176460   -1.077388
     19          6           0        6.021324    4.463271   -1.244905
     20          6           0        7.275527    4.488201   -0.615696
     21          6           0        7.556550    3.089007   -0.257605
     22          6           0        5.296432    5.566376   -2.041257
     23          6           0        8.244808    5.655531   -0.323705
     24          8           0        9.366596    5.589348    0.208784
     25          6           0        7.721386    6.970529   -0.658898
     26          7           0        8.188745    0.212825    0.680272
     27          6           0        9.100241    1.236464    0.575309
     28          6           0       10.562490    0.772938    0.847172
     29          6           0       10.359504   -0.639345    1.515039
     30          6           0        8.873415   -0.898078    1.104781
     31          6           0       11.575458    0.784122   -0.398779
     32          6           0       10.533316   -0.717215    3.056154
     33          6           0       10.822635   -2.149367    3.584659
     34          7           0        6.092975   -1.677656    0.299276
     35          6           0        6.926077   -2.563061    0.926635
     36          6           0        6.287981   -3.808425    1.113165
     37          6           0        4.960043   -3.590244    0.735920
     38          6           0        4.856120   -2.277294    0.243042
     39          6           0        6.984694   -5.099926    1.545348
     40          6           0        3.640950   -4.253284    0.663012
     41          8           0        3.192581   -5.352774    0.968320
     42          6           0        2.648922   -3.075313    0.189038
     43          6           0        1.906221   -3.485487   -0.959428
     44          8           0        2.417763   -3.880243   -2.004098
     45          8           0        0.597084   -3.237800   -0.808391
     46          6           0       -0.374388   -3.757311   -1.809496
     47          6           0       -3.686582   -2.045488   -0.001284
     48          6           0       -5.203650   -1.886875   -0.194554
     49          6           0       -6.137765   -2.755279   -0.589199
     50          6           0       -5.823762   -4.241952   -0.905001
     51          6           0       -7.647636   -2.436185   -0.678994
     52          6           0       -8.214121   -1.712888   -1.915358
     53          6           0       -8.806396   -0.275945   -1.511172
     54          6           0      -10.266236   -0.160103   -1.988705
     55          6           0      -10.615232    1.155017   -2.638796
     56          6           0      -11.270234   -0.463136   -0.807873
     57          6           0      -12.761170   -0.487559   -1.319446
     58          6           0      -13.646697    0.759442   -0.931615
     59          6           0      -14.524328    0.510271    0.292153
     60          6           0      -15.721208   -0.478726    0.046800
     61          6           0      -15.032432    1.953931    0.904461
     62          6           0      -14.446456    2.155448    2.356302
     63          6           0      -13.166895    3.116203    2.394436
     64          6           0      -12.090785    2.748247    3.467956
     65          6           0      -11.997915    3.580527    4.705095
     66          6           0      -10.617251    2.524459    2.791585
     67          1           0        3.481791    3.439497   -2.028644
     68          1           0        9.546623    3.231871    0.301490
     69          1           0        8.780004   -2.865748    1.987104
     70          1           0        1.379741   -0.857077   -1.915385
     71          1           0        1.412595    1.986061   -1.992198
     72          1           0        2.941352    1.592903   -3.954780
     73          1           0        1.287481    1.121657   -3.935966
     74          1           0        2.479466   -0.143020   -3.676098
     75          1           0        0.951363    0.875956    0.453913
     76          1           0        0.686353   -0.895206    0.441077
     77          1           0       -0.764536   -0.052889   -1.764114
     78          1           0       -1.073893    1.291000   -0.644694
     79          1           0        4.530866    5.284690   -2.764673
     80          1           0        5.950525    6.073624   -2.751039
     81          1           0        4.796070    6.255062   -1.361564
     82          1           0        8.370891    7.748386   -0.256583
     83          1           0        6.712189    6.993245   -0.247795
     84          1           0        7.656983    7.154073   -1.732110
     85          1           0       10.936264    1.465697    1.601612
     86          1           0       11.083930   -1.281409    1.014285
     87          1           0       11.588406   -0.215491   -0.833854
     88          1           0       12.537263    1.140194   -0.031006
     89          1           0       11.280177    1.389162   -1.255887
     90          1           0        9.697319   -0.207320    3.533469
     91          1           0       11.368927   -0.086545    3.360583
     92          1           0       11.770753   -2.243391    4.115020
     93          1           0       10.910226   -2.881484    2.782448
     94          1           0       10.121010   -2.534688    4.324702
     95          1           0        7.630413   -4.848050    2.387040
     96          1           0        7.533259   -5.506334    0.695068
     97          1           0        6.237323   -5.755543    1.992194
     98          1           0        2.000961   -2.899760    1.047534
     99          1           0       -0.258165   -3.151748   -2.707720
    100          1           0       -1.402612   -3.917160   -1.485670
    101          1           0        0.033705   -4.748266   -2.011016
    102          1           0       -3.516269   -2.173499    1.067442
    103          1           0       -3.597547   -3.025598   -0.471066
    104          1           0       -5.575581   -0.862807   -0.166510
    105          1           0       -5.972136   -4.803602    0.017201
    106          1           0       -4.867340   -4.518466   -1.348946
    107          1           0       -6.530844   -4.708216   -1.592309
    108          1           0       -7.872367   -1.996928    0.293564
    109          1           0       -8.198084   -3.376962   -0.655812
    110          1           0       -8.915175   -2.377683   -2.420657
    111          1           0       -7.391067   -1.534931   -2.607222
    112          1           0       -8.165138    0.495309   -1.937693
    113          1           0       -8.844083   -0.043505   -0.446580
    114          1           0      -10.543546   -0.911543   -2.728242
    115          1           0      -11.332275    0.855986   -3.403513
    116          1           0       -9.719209    1.630172   -3.036344
    117          1           0      -11.054441    1.707137   -1.807991
    118          1           0      -11.287571    0.325860   -0.056211
    119          1           0      -11.140767   -1.320750   -0.147724
    120          1           0      -13.262348   -1.431865   -1.107166
    121          1           0      -12.693919   -0.473980   -2.407399
    122          1           0      -14.285930    1.077421   -1.755166
    123          1           0      -12.976299    1.602547   -0.765132
    124          1           0      -13.862293   -0.008300    0.984949
    125          1           0      -15.845301   -0.686108   -1.017029
    126          1           0      -16.676307   -0.143885    0.449548
    127          1           0      -15.381021   -1.400033    0.518681
    128          1           0      -16.105146    1.862811    1.076622
    129          1           0      -14.713483    2.730239    0.207250
    130          1           0      -14.088665    1.250580    2.846536
    131          1           0      -15.192677    2.669017    2.961612
    132          1           0      -13.462793    4.123343    2.689227
    133          1           0      -12.656234    3.140265    1.431958
    134          1           0      -12.382199    1.819174    3.958920
    135          1           0      -10.967554    3.726553    5.028580
    136          1           0      -12.506969    3.147296    5.566345
    137          1           0      -12.451499    4.543928    4.470344
    138          1           0      -10.063111    1.741189    3.308382
    139          1           0      -10.041709    3.444645    2.889726
    140          1           0      -10.798847    2.163025    1.779230
 ---------------------------------------------------------------------

 SCF Done:  E(RB-LYP) =  -3007.37398998     A.U. after   20 cycles

 Excitation energies and oscillator strengths:

 Excited State   1:      Singlet-A      1.8376 eV  674.72 nm  f=0.3112  <S**2>=0.000
     245 -> 248       -0.20317
     246 -> 247        0.68516
     246 <- 247       -0.14520
 This state for optimization and/or second-order correction.
 Total Energy, E(TD-HF/TD-DFT) =  -3007.30646103
 Copying the excited state density for this state as the 1-particle RhoCI density.

 Excited State   2:      Singlet-A      1.9170 eV  646.77 nm  f=0.0070  <S**2>=0.000
     244 -> 247        0.68192
     245 -> 247        0.15646

 Excited State   3:      Singlet-A      1.9511 eV  635.47 nm  f=0.0399  <S**2>=0.000
     243 -> 247        0.49603
     244 -> 247       -0.17135
     245 -> 247        0.44706
     246 -> 248        0.13869

 Excited State   4:      Singlet-A      2.0214 eV  613.35 nm  f=0.0503  <S**2>=0.000
     243 -> 247        0.49206
     245 -> 247       -0.45715
     246 -> 248       -0.18697

 Excited State   5:      Singlet-A      2.5092 eV  494.12 nm  f=0.0000  <S**2>=0.000
     240 -> 247        0.65267
     241 -> 247       -0.26951

 The electronic state is 1-A.
 Alpha  occ. eigenvalues --  -46.27277 -18.83329 -18.82025 -18.77125 -18.76194
 Alpha  occ. eigenvalues --  -18.75670 -18.75397 -14.03465 -14.03243 -14.00944
 Alpha  occ. eigenvalues --  -14.00773 -10.04275 -10.02952 -10.00046  -9.99748
 Alpha  occ. eigenvalues --   -9.98489  -9.98175  -9.97284  -9.96563  -9.96266
 Alpha  occ. eigenvalues --   -9.96176  -9.95751  -9.95580  -9.95325  -9.94697
 Alpha  occ. eigenvalues --   -9.94572  -9.94237  -9.94099  -9.94078  -9.94013
 Alpha  occ. eigenvalues --   -9.93892  -9.93666  -9.93517  -9.93220  -9.93205
 Alpha  occ. eigenvalues --   -9.93137  -9.93122  -9.93076  -9.92810  -9.92804
 Alpha  occ. eigenvalues --   -9.92709  -9.92696  -9.92620  -9.92580  -9.92409
 Alpha  occ. eigenvalues --   -9.92335  -9.92231  -9.92206  -9.92201  -9.92044
 Alpha  occ. eigenvalues --   -9.92014  -9.91793  -9.91745  -9.91639  -9.91614
 Alpha  occ. eigenvalues --   -9.91590  -9.91563  -9.91377  -9.91331  -9.91308
 Alpha  occ. eigenvalues --   -9.91236  -9.91214  -9.91114  -9.91002  -9.90814
 Alpha  occ. eigenvalues --   -9.90421  -2.91838  -1.72280  -1.71738  -1.71525
 Alpha  occ. eigenvalues --   -0.97861  -0.97643  -0.91211  -0.90841  -0.90498
 Alpha  occ. eigenvalues --   -0.88820  -0.86514  -0.85922  -0.85516  -0.84944
 Alpha  occ. eigenvalues --   -0.74891  -0.73571  -0.72777  -0.72485  -0.72078
 Alpha  occ. eigenvalues --   -0.71479  -0.71297  -0.70494  -0.70398  -0.70136
 Alpha  occ. eigenvalues --   -0.69506  -0.69117  -0.68005  -0.67509  -0.66962
 Alpha  occ. eigenvalues --   -0.66261  -0.66005  -0.65377  -0.64921  -0.64217
 Alpha  occ. eigenvalues --   -0.63786  -0.62535  -0.62211  -0.61655  -0.60838
 Alpha  occ. eigenvalues --   -0.60564  -0.60279  -0.59854  -0.59630  -0.58850
 Alpha  occ. eigenvalues --   -0.58543  -0.57901  -0.56670  -0.55702  -0.55078
 Alpha  occ. eigenvalues --   -0.54196  -0.53798  -0.52740  -0.52409  -0.51435
 Alpha  occ. eigenvalues --   -0.51101  -0.50908  -0.50748  -0.49980  -0.49747
 Alpha  occ. eigenvalues --   -0.49596  -0.48974  -0.48418  -0.48294  -0.46472
 Alpha  occ. eigenvalues --   -0.46305  -0.45981  -0.45658  -0.45211  -0.44526
 Alpha  occ. eigenvalues --   -0.44077  -0.43842  -0.43125  -0.42827  -0.42189
 Alpha  occ. eigenvalues --   -0.41967  -0.41823  -0.41558  -0.41369  -0.41015
 Alpha  occ. eigenvalues --   -0.40863  -0.40735  -0.40303  -0.40075  -0.40021
 Alpha  occ. eigenvalues --   -0.39733  -0.39581  -0.39487  -0.39226  -0.38924
 Alpha  occ. eigenvalues --   -0.38577  -0.38504  -0.38351  -0.38238  -0.38032
 Alpha  occ. eigenvalues --   -0.37945  -0.37838  -0.37794  -0.37569  -0.37165
 Alpha  occ. eigenvalues --   -0.37008  -0.36807  -0.36630  -0.36372  -0.36361
 Alpha  occ. eigenvalues --   -0.36149  -0.36030  -0.35984  -0.35622  -0.35407
 Alpha  occ. eigenvalues --   -0.35230  -0.35044  -0.34854  -0.34722  -0.34547
 Alpha  occ. eigenvalues --   -0.34364  -0.34341  -0.34252  -0.34092  -0.33820
 Alpha  occ. eigenvalues --   -0.33521  -0.33475  -0.33382  -0.33235  -0.33178
 Alpha  occ. eigenvalues --   -0.33054  -0.32854  -0.32796  -0.32524  -0.32253
 Alpha  occ. eigenvalues --   -0.32156  -0.32051  -0.31838  -0.31574  -0.31406
 Alpha  occ. eigenvalues --   -0.31203  -0.30986  -0.30911  -0.30846  -0.30585
 Alpha  occ. eigenvalues --   -0.30357  -0.30303  -0.30240  -0.29833  -0.29526
 Alpha  occ. eigenvalues --   -0.29442  -0.29393  -0.29172  -0.29121  -0.28922
 Alpha  occ. eigenvalues --   -0.28884  -0.28611  -0.28473  -0.28350  -0.28091
 Alpha  occ. eigenvalues --   -0.28055  -0.27479  -0.27142  -0.26448  -0.26371
 Alpha  occ. eigenvalues --   -0.25951  -0.25818  -0.25575  -0.25543  -0.25448
 Alpha  occ. eigenvalues --   -0.24814  -0.24749  -0.24486  -0.23857  -0.23772
 Alpha  occ. eigenvalues --   -0.23554  -0.22538  -0.22154  -0.20998  -0.20916
 Alpha  occ. eigenvalues --   -0.20887  -0.20520  -0.18866  -0.18663  -0.17132
 Alpha  occ. eigenvalues --   -0.16083
 Alpha virt. eigenvalues --   -0.11691  -0.06829  -0.06190  -0.04532  -0.02733
 Alpha virt. eigenvalues --   -0.02442  -0.02208  -0.02006  -0.00799   0.00048
 Alpha virt. eigenvalues --    0.00656   0.01012   0.01892   0.01972   0.02603

 Mulliken charges:
               1
     1  Mg   0.684961
     2  C   -0.009317
     3  C   -0.063427
     4  C   -0.035142
     5  C   -0.073431
     6  N   -0.195884
     7  C   -0.061152
     8  C    0.003857
     9  C    0.000116
    10  C    0.014038
    11  C    0.119049
    12  C    0.135709
    13  C    0.145127
    14  C    0.075205
    15  O   -0.176159
    16  O   -0.273313
    17  N   -0.292571
    18  C    0.170845
    19  C   -0.128640
    20  C    0.007342
    21  C    0.084792
    22  C    0.149835
    23  C   -0.052898
    24  O   -0.173240
    25  C    0.149369
    26  N   -0.247470
    27  C    0.037097
    28  C    0.023188
    29  C    0.003154
    30  C    0.079749
    31  C    0.125680
    32  C    0.116274
    33  C    0.067194
    34  N   -0.252725
    35  C    0.060214
    36  C   -0.194414
    37  C    0.055442
    38  C    0.105002
    39  C    0.184055
    40  C   -0.002426
    41  O   -0.124661
    42  C    0.043209
    43  C    0.087397
    44  O   -0.199077
    45  O   -0.272372
    46  C    0.221075
    47  C    0.344709
    48  C   -0.113968
    49  C   -0.140212
    50  C    0.102695
    51  C    0.118271
    52  C    0.097642
    53  C    0.129578
    54  C   -0.118937
    55  C    0.145204
    56  C    0.078449
    57  C    0.056889
    58  C    0.080873
    59  C   -0.092976
    60  C    0.108842
    61  C    0.120178
    62  C    0.053297
    63  C    0.098664
    64  C   -0.124905
    65  C    0.114358
    66  C    0.067930
    67  H   -0.068026
    68  H   -0.049714
    69  H   -0.061456
    70  H   -0.024688
    71  H   -0.041498
    72  H   -0.019619
    73  H   -0.015425
    74  H    0.010624
    75  H   -0.027578
    76  H    0.002383
    77  H   -0.020136
    78  H    0.004565
    79  H   -0.018914
    80  H   -0.004236
    81  H    0.004905
    82  H   -0.010338
    83  H    0.003172
    84  H    0.007236
    85  H   -0.026390
    86  H   -0.029433
    87  H   -0.008577
    88  H    0.008697
    89  H   -0.003996
    90  H   -0.020171
    91  H   -0.023972
    92  H   -0.018575
    93  H    0.002735
    94  H   -0.003912
    95  H   -0.011062
    96  H    0.023370
    97  H    0.003035
    98  H    0.010148
    99  H    0.018116
   100  H    0.028414
   101  H    0.012797
   102  H    0.021497
   103  H   -0.029670
   104  H   -0.046856
   105  H    0.005071
   106  H   -0.001309
   107  H   -0.019658
   108  H   -0.009689
   109  H   -0.048046
   110  H   -0.013727
   111  H   -0.021425
   112  H   -0.036718
   113  H   -0.022490
   114  H   -0.032348
   115  H   -0.009107
   116  H   -0.014909
   117  H   -0.014188
   118  H   -0.036836
   119  H   -0.039333
   120  H   -0.036803
   121  H   -0.046844
   122  H   -0.036385
   123  H   -0.029238
   124  H   -0.034461
   125  H   -0.018087
   126  H   -0.009057
   127  H   -0.013601
   128  H   -0.033064
   129  H   -0.013538
   130  H   -0.016016
   131  H   -0.027282
   132  H   -0.036646
   133  H   -0.033689
   134  H   -0.036813
   135  H   -0.022950
   136  H   -0.016758
   137  H   -0.026647
   138  H   -0.016166
   139  H   -0.003170
   140  H   -0.002761
 Sum of Mulliken charges =  -0.00000

 Dipole moment (field-independent basis, Debye):
    X=             -2.7971    Y=              1.6352    Z=             -1.9289  Tot=              3.7707
 Quadrupole moment (field-independent basis, Debye-Ang):
   XX=           -370.8058   YY=           -423.2858   ZZ=           -402.0368
   XY=              1.4139   XZ=             11.9764   YZ=            -11.9755

 Normal termination of Gaussian 16 at Sat Apr 30 20:20:15 2022.
