 Gaussian 16, Revision A.03,
 Gaussian 16:  ES64L-G16RevA.03 25-Dec-2016

 -----------------------------------
 #p cam-b3lyp/Def2SVP td=(nstates=5)
 -----------------------------------

 ------------------------------------------------------
 step_851_chromophore_7 TDDFT with cam-b3lyp functional
 ------------------------------------------------------
 Symbolic Z-matrix:
 Charge =  0 Multiplicity = 1

                         Standard orientation:
 ---------------------------------------------------------------------
 Center     Atomic      Atomic             Coordinates (Angstroms)
 Number     Number       Type             X           Y           Z
 ---------------------------------------------------------------------
      1         12           0        6.224615    0.432165    0.050457
      2          6           0        3.562257   -1.876057   -0.153060
      3          6           0        4.149861    2.755868   -1.499238
      4          6           0        8.739838    2.500642    0.211003
      5          6           0        8.298403   -2.156873    1.310122
      6          7           0        4.022600    0.476984   -0.660069
      7          6           0        3.143440   -0.593164   -0.674845
      8          6           0        1.769584   -0.121043   -1.211523
      9          6           0        2.159649    1.192675   -1.981275
     10          6           0        3.474422    1.546672   -1.297899
     11          6           0        2.248991    0.902685   -3.471897
     12          6           0        0.650409    0.020010   -0.148910
     13          6           0       -0.797847    0.239415   -0.714293
     14          6           0       -1.837821   -0.478522    0.094951
     15          8           0       -1.765561   -0.452386    1.303325
     16          8           0       -2.729765   -1.147580   -0.721102
     17          7           0        6.355702    2.441289   -0.383279
     18          6           0        5.468795    3.176460   -1.077388
     19          6           0        6.021324    4.463271   -1.244905
     20          6           0        7.275527    4.488201   -0.615696
     21          6           0        7.556550    3.089007   -0.257605
     22          6           0        5.296432    5.566376   -2.041257
     23          6           0        8.244808    5.655531   -0.323705
     24          8           0        9.366596    5.589348    0.208784
     25          6           0        7.721386    6.970529   -0.658898
     26          7           0        8.188745    0.212825    0.680272
     27          6           0        9.100241    1.236464    0.575309
     28          6           0       10.562490    0.772938    0.847172
     29          6           0       10.359504   -0.639345    1.515039
     30          6           0        8.873415   -0.898078    1.104781
     31          6           0       11.575458    0.784122   -0.398779
     32          6           0       10.533316   -0.717215    3.056154
     33          6           0       10.822635   -2.149367    3.584659
     34          7           0        6.092975   -1.677656    0.299276
     35          6           0        6.926077   -2.563061    0.926635
     36          6           0        6.287981   -3.808425    1.113165
     37          6           0        4.960043   -3.590244    0.735920
     38          6           0        4.856120   -2.277294    0.243042
     39          6           0        6.984694   -5.099926    1.545348
     40          6           0        3.640950   -4.253284    0.663012
     41          8           0        3.192581   -5.352774    0.968320
     42          6           0        2.648922   -3.075313    0.189038
     43          6           0        1.906221   -3.485487   -0.959428
     44          8           0        2.417763   -3.880243   -2.004098
     45          8           0        0.597084   -3.237800   -0.808391
     46          6           0       -0.374388   -3.757311   -1.809496
     47          6           0       -3.686582   -2.045488   -0.001284
     48          6           0       -5.203650   -1.886875   -0.194554
     49          6           0       -6.137765   -2.755279   -0.589199
     50          6           0       -5.823762   -4.241952   -0.905001
     51          6           0       -7.647636   -2.436185   -0.678994
     52          6           0       -8.214121   -1.712888   -1.915358
     53          6           0       -8.806396   -0.275945   -1.511172
     54          6           0      -10.266236   -0.160103   -1.988705
     55          6           0      -10.615232    1.155017   -2.638796
     56          6           0      -11.270234   -0.463136   -0.807873
     57          6           0      -12.761170   -0.487559   -1.319446
     58          6           0      -13.646697    0.759442   -0.931615
     59          6           0      -14.524328    0.510271    0.292153
     60          6           0      -15.721208   -0.478726    0.046800
     61          6           0      -15.032432    1.953931    0.904461
     62          6           0      -14.446456    2.155448    2.356302
     63          6           0      -13.166895    3.116203    2.394436
     64          6           0      -12.090785    2.748247    3.467956
     65          6           0      -11.997915    3.580527    4.705095
     66          6           0      -10.617251    2.524459    2.791585
     67          1           0        3.481791    3.439497   -2.028644
     68          1           0        9.546623    3.231871    0.301490
     69          1           0        8.780004   -2.865748    1.987104
     70          1           0        1.379741   -0.857077   -1.915385
     71          1           0        1.412595    1.986061   -1.992198
     72          1           0        2.941352    1.592903   -3.954780
     73          1           0        1.287481    1.121657   -3.935966
     74          1           0        2.479466   -0.143020   -3.676098
     75          1           0        0.951363    0.875956    0.453913
     76          1           0        0.686353   -0.895206    0.441077
     77          1           0       -0.764536   -0.052889   -1.764114
     78          1           0       -1.073893    1.291000   -0.644694
     79          1           0        4.530866    5.284690   -2.764673
     80          1           0        5.950525    6.073624   -2.751039
     81          1           0        4.796070    6.255062   -1.361564
     82          1           0        8.370891    7.748386   -0.256583
     83          1           0        6.712189    6.993245   -0.247795
     84          1           0        7.656983    7.154073   -1.732110
     85          1           0       10.936264    1.465697    1.601612
     86          1           0       11.083930   -1.281409    1.014285
     87          1           0       11.588406   -0.215491   -0.833854
     88          1           0       12.537263    1.140194   -0.031006
     89          1           0       11.280177    1.389162   -1.255887
     90          1           0        9.697319   -0.207320    3.533469
     91          1           0       11.368927   -0.086545    3.360583
     92          1           0       11.770753   -2.243391    4.115020
     93          1           0       10.910226   -2.881484    2.782448
     94          1           0       10.121010   -2.534688    4.324702
     95          1           0        7.630413   -4.848050    2.387040
     96          1           0        7.533259   -5.506334    0.695068
     97          1           0        6.237323   -5.755543    1.992194
     98          1           0        2.000961   -2.899760    1.047534
     99          1           0       -0.258165   -3.151748   -2.707720
    100          1           0       -1.402612   -3.917160   -1.485670
    101          1           0        0.033705   -4.748266   -2.011016
    102          1           0       -3.516269   -2.173499    1.067442
    103          1           0       -3.597547   -3.025598   -0.471066
    104          1           0       -5.575581   -0.862807   -0.166510
    105          1           0       -5.972136   -4.803602    0.017201
    106          1           0       -4.867340   -4.518466   -1.348946
    107          1           0       -6.530844   -4.708216   -1.592309
    108          1           0       -7.872367   -1.996928    0.293564
    109          1           0       -8.198084   -3.376962   -0.655812
    110          1           0       -8.915175   -2.377683   -2.420657
    111          1           0       -7.391067   -1.534931   -2.607222
    112          1           0       -8.165138    0.495309   -1.937693
    113          1           0       -8.844083   -0.043505   -0.446580
    114          1           0      -10.543546   -0.911543   -2.728242
    115          1           0      -11.332275    0.855986   -3.403513
    116          1           0       -9.719209    1.630172   -3.036344
    117          1           0      -11.054441    1.707137   -1.807991
    118          1           0      -11.287571    0.325860   -0.056211
    119          1           0      -11.140767   -1.320750   -0.147724
    120          1           0      -13.262348   -1.431865   -1.107166
    121          1           0      -12.693919   -0.473980   -2.407399
    122          1           0      -14.285930    1.077421   -1.755166
    123          1           0      -12.976299    1.602547   -0.765132
    124          1           0      -13.862293   -0.008300    0.984949
    125          1           0      -15.845301   -0.686108   -1.017029
    126          1           0      -16.676307   -0.143885    0.449548
    127          1           0      -15.381021   -1.400033    0.518681
    128          1           0      -16.105146    1.862811    1.076622
    129          1           0      -14.713483    2.730239    0.207250
    130          1           0      -14.088665    1.250580    2.846536
    131          1           0      -15.192677    2.669017    2.961612
    132          1           0      -13.462793    4.123343    2.689227
    133          1           0      -12.656234    3.140265    1.431958
    134          1           0      -12.382199    1.819174    3.958920
    135          1           0      -10.967554    3.726553    5.028580
    136          1           0      -12.506969    3.147296    5.566345
    137          1           0      -12.451499    4.543928    4.470344
    138          1           0      -10.063111    1.741189    3.308382
    139          1           0      -10.041709    3.444645    2.889726
    140          1           0      -10.798847    2.163025    1.779230
 ---------------------------------------------------------------------

 SCF Done:  E(RCAM-B3LYP) =  -3007.15719083     A.U. after   17 cycles

 Excitation energies and oscillator strengths:

 Excited State   1:      Singlet-A      1.7184 eV  721.52 nm  f=0.3880  <S**2>=0.000
     245 -> 248        0.18766
     246 -> 247        0.68376
     245 <- 248        0.10970
 This state for optimization and/or second-order correction.
 Total Energy, E(TD-HF/TD-DFT) =  -3007.09404200
 Copying the excited state density for this state as the 1-particle RhoCI density.

 Excited State   2:      Singlet-A      2.1761 eV  569.76 nm  f=0.1481  <S**2>=0.000
     245 -> 247        0.65347
     246 -> 248       -0.26033

 Excited State   3:      Singlet-A      3.3567 eV  369.37 nm  f=0.0028  <S**2>=0.000
     244 -> 247        0.68291

 Excited State   4:      Singlet-A      3.4946 eV  354.79 nm  f=0.0457  <S**2>=0.000
     240 -> 249        0.10832
     242 -> 247        0.20919
     243 -> 247        0.57197
     246 -> 248        0.28360

 Excited State   5:      Singlet-A      3.5214 eV  352.08 nm  f=0.0054  <S**2>=0.000
     239 -> 247       -0.14145
     240 -> 247        0.13663
     242 -> 247        0.51666
     242 -> 249        0.22974
     242 -> 250        0.16767
     243 -> 247       -0.21951

 The electronic state is 1-A.
 Alpha  occ. eigenvalues --  -46.88786 -19.26291 -19.25108 -19.20101 -19.19434
 Alpha  occ. eigenvalues --  -19.18874 -19.18551 -14.42533 -14.41957 -14.39374
 Alpha  occ. eigenvalues --  -14.39154 -10.39583 -10.38411 -10.35501 -10.34992
 Alpha  occ. eigenvalues --  -10.32714 -10.32386 -10.31876 -10.30928 -10.30694
 Alpha  occ. eigenvalues --  -10.30637 -10.30202 -10.29831 -10.29543 -10.29090
 Alpha  occ. eigenvalues --  -10.28969 -10.28269 -10.28181 -10.28181 -10.28140
 Alpha  occ. eigenvalues --  -10.28000 -10.27967 -10.27506 -10.27484 -10.27445
 Alpha  occ. eigenvalues --  -10.27423 -10.27128 -10.27099 -10.26859 -10.26697
 Alpha  occ. eigenvalues --  -10.26651 -10.26459 -10.26356 -10.26301 -10.26216
 Alpha  occ. eigenvalues --  -10.26102 -10.26089 -10.25928 -10.25864 -10.25777
 Alpha  occ. eigenvalues --  -10.25747 -10.25523 -10.25517 -10.25480 -10.25445
 Alpha  occ. eigenvalues --  -10.25401 -10.25353 -10.25321 -10.25309 -10.25129
 Alpha  occ. eigenvalues --  -10.24938 -10.24924 -10.24855 -10.24617 -10.24409
 Alpha  occ. eigenvalues --  -10.24005  -3.17252  -1.92172  -1.91724  -1.91533
 Alpha  occ. eigenvalues --   -1.16521  -1.16134  -1.09655  -1.08861  -1.08743
 Alpha  occ. eigenvalues --   -1.06868  -1.04219  -1.03525  -1.03168  -1.02442
 Alpha  occ. eigenvalues --   -0.92060  -0.90459  -0.89586  -0.89256  -0.88717
 Alpha  occ. eigenvalues --   -0.88180  -0.87881  -0.87107  -0.86988  -0.86780
 Alpha  occ. eigenvalues --   -0.85947  -0.85483  -0.84250  -0.83684  -0.83084
 Alpha  occ. eigenvalues --   -0.82322  -0.82196  -0.81291  -0.80735  -0.80080
 Alpha  occ. eigenvalues --   -0.79562  -0.78183  -0.77935  -0.77164  -0.76265
 Alpha  occ. eigenvalues --   -0.75937  -0.75567  -0.75223  -0.74936  -0.74040
 Alpha  occ. eigenvalues --   -0.73692  -0.72930  -0.71554  -0.70501  -0.69615
 Alpha  occ. eigenvalues --   -0.68838  -0.68435  -0.67127  -0.66865  -0.65510
 Alpha  occ. eigenvalues --   -0.65253  -0.64985  -0.64907  -0.63873  -0.63757
 Alpha  occ. eigenvalues --   -0.63356  -0.62941  -0.62187  -0.62140  -0.60092
 Alpha  occ. eigenvalues --   -0.59981  -0.59465  -0.59158  -0.58615  -0.58027
 Alpha  occ. eigenvalues --   -0.57636  -0.57271  -0.56418  -0.56065  -0.55491
 Alpha  occ. eigenvalues --   -0.55188  -0.55039  -0.54773  -0.54104  -0.53776
 Alpha  occ. eigenvalues --   -0.53643  -0.53378  -0.53129  -0.52936  -0.52862
 Alpha  occ. eigenvalues --   -0.52448  -0.52150  -0.51982  -0.51935  -0.51445
 Alpha  occ. eigenvalues --   -0.51186  -0.50903  -0.50767  -0.50560  -0.50488
 Alpha  occ. eigenvalues --   -0.50310  -0.50259  -0.50042  -0.50012  -0.49543
 Alpha  occ. eigenvalues --   -0.49357  -0.49239  -0.49144  -0.48978  -0.48907
 Alpha  occ. eigenvalues --   -0.48386  -0.48231  -0.48100  -0.47921  -0.47528
 Alpha  occ. eigenvalues --   -0.47418  -0.47118  -0.46831  -0.46598  -0.46306
 Alpha  occ. eigenvalues --   -0.46229  -0.46181  -0.46131  -0.46012  -0.45974
 Alpha  occ. eigenvalues --   -0.45396  -0.45294  -0.45048  -0.44869  -0.44819
 Alpha  occ. eigenvalues --   -0.44661  -0.44589  -0.44497  -0.44202  -0.44088
 Alpha  occ. eigenvalues --   -0.43670  -0.43550  -0.43397  -0.43341  -0.43012
 Alpha  occ. eigenvalues --   -0.42831  -0.42486  -0.42356  -0.42222  -0.42051
 Alpha  occ. eigenvalues --   -0.41747  -0.41542  -0.41363  -0.41144  -0.41026
 Alpha  occ. eigenvalues --   -0.40897  -0.40645  -0.40625  -0.40293  -0.40051
 Alpha  occ. eigenvalues --   -0.39989  -0.39751  -0.39672  -0.39499  -0.39068
 Alpha  occ. eigenvalues --   -0.39013  -0.38355  -0.37927  -0.37608  -0.37113
 Alpha  occ. eigenvalues --   -0.36778  -0.36735  -0.36615  -0.36437  -0.36214
 Alpha  occ. eigenvalues --   -0.36119  -0.35283  -0.34973  -0.34746  -0.34525
 Alpha  occ. eigenvalues --   -0.34195  -0.33768  -0.32770  -0.31533  -0.31104
 Alpha  occ. eigenvalues --   -0.30764  -0.30649  -0.30193  -0.29781  -0.23773
 Alpha  occ. eigenvalues --   -0.21481
 Alpha virt. eigenvalues --   -0.08880  -0.01627   0.00392   0.02475   0.03768
 Alpha virt. eigenvalues --    0.04715   0.04810   0.05439   0.05710   0.06504
 Alpha virt. eigenvalues --    0.07639   0.07958   0.08150   0.08371   0.08922

 Mulliken charges:
               1
     1  Mg   0.817819
     2  C   -0.034084
     3  C   -0.072833
     4  C   -0.062718
     5  C   -0.078223
     6  N   -0.258514
     7  C   -0.019100
     8  C   -0.044105
     9  C   -0.058040
    10  C    0.029796
    11  C    0.065035
    12  C    0.088816
    13  C    0.076973
    14  C    0.157471
    15  O   -0.218050
    16  O   -0.338342
    17  N   -0.381865
    18  C    0.178071
    19  C   -0.138469
    20  C   -0.060160
    21  C    0.111621
    22  C    0.092061
    23  C    0.034145
    24  O   -0.214568
    25  C    0.059201
    26  N   -0.323326
    27  C    0.058658
    28  C   -0.029832
    29  C   -0.047289
    30  C    0.093575
    31  C    0.068898
    32  C    0.060596
    33  C   -0.001390
    34  N   -0.338172
    35  C    0.067547
    36  C   -0.193961
    37  C   -0.028554
    38  C    0.137707
    39  C    0.136495
    40  C    0.105855
    41  O   -0.163643
    42  C   -0.041902
    43  C    0.177056
    44  O   -0.235448
    45  O   -0.336702
    46  C    0.185796
    47  C    0.313390
    48  C   -0.129956
    49  C   -0.165161
    50  C    0.037818
    51  C    0.059846
    52  C    0.042253
    53  C    0.074500
    54  C   -0.170538
    55  C    0.084859
    56  C    0.034264
    57  C   -0.004402
    58  C    0.034545
    59  C   -0.141406
    60  C    0.049551
    61  C    0.064251
    62  C    0.001921
    63  C    0.047790
    64  C   -0.184254
    65  C    0.054936
    66  C    0.019209
    67  H   -0.031916
    68  H   -0.008970
    69  H   -0.028706
    70  H    0.006576
    71  H   -0.005827
    72  H    0.006673
    73  H    0.009146
    74  H    0.034546
    75  H    0.003099
    76  H    0.030188
    77  H    0.012567
    78  H    0.035323
    79  H    0.010409
    80  H    0.021618
    81  H    0.031828
    82  H    0.026032
    83  H    0.029349
    84  H    0.035588
    85  H    0.009218
    86  H    0.006319
    87  H    0.014823
    88  H    0.031864
    89  H    0.021889
    90  H    0.009783
    91  H    0.005339
    92  H    0.008088
    93  H    0.023668
    94  H    0.020085
    95  H    0.012055
    96  H    0.048647
    97  H    0.029950
    98  H    0.053767
    99  H    0.040642
   100  H    0.048661
   101  H    0.038777
   102  H    0.054349
   103  H   -0.007448
   104  H   -0.014593
   105  H    0.030201
   106  H    0.022411
   107  H    0.006793
   108  H    0.019267
   109  H   -0.015128
   110  H    0.013592
   111  H    0.008503
   112  H   -0.006807
   113  H    0.003521
   114  H   -0.002067
   115  H    0.014076
   116  H    0.010971
   117  H    0.007062
   118  H   -0.014463
   119  H   -0.009681
   120  H   -0.006650
   121  H   -0.016878
   122  H   -0.006986
   123  H   -0.007092
   124  H   -0.006248
   125  H    0.005765
   126  H    0.014915
   127  H    0.009088
   128  H   -0.003619
   129  H    0.013897
   130  H    0.009886
   131  H    0.001337
   132  H   -0.008706
   133  H   -0.008262
   134  H   -0.005613
   135  H    0.002520
   136  H    0.007601
   137  H   -0.003555
   138  H    0.007725
   139  H    0.019083
   140  H    0.012821
 Sum of Mulliken charges =  -0.00000

 Dipole moment (field-independent basis, Debye):
    X=             -3.0768    Y=              2.0306    Z=             -2.1684  Tot=              4.2769
 Quadrupole moment (field-independent basis, Debye-Ang):
   XX=           -371.5271   YY=           -418.9590   ZZ=           -401.6745
   XY=              4.6129   XZ=             11.5813   YZ=            -13.3049

 Normal termination of Gaussian 16 at Sat Apr 30 19:27:48 2022.
