 Gaussian 16, Revision A.03,
 Gaussian 16:  ES64L-G16RevA.03 25-Dec-2016

 ---------------------------------
 #p PBE1PBE/Def2SVP td=(nstates=5)
 ---------------------------------

 ----------------------------------------------------
 step_851_chromophore_7 TDDFT with PBE1PBE functional
 ----------------------------------------------------
 Symbolic Z-matrix:
 Charge =  0 Multiplicity = 1

                         Standard orientation:
 ---------------------------------------------------------------------
 Center     Atomic      Atomic             Coordinates (Angstroms)
 Number     Number       Type             X           Y           Z
 ---------------------------------------------------------------------
      1         12           0        6.224615    0.432165    0.050457
      2          6           0        3.562257   -1.876057   -0.153060
      3          6           0        4.149861    2.755868   -1.499238
      4          6           0        8.739838    2.500642    0.211003
      5          6           0        8.298403   -2.156873    1.310122
      6          7           0        4.022600    0.476984   -0.660069
      7          6           0        3.143440   -0.593164   -0.674845
      8          6           0        1.769584   -0.121043   -1.211523
      9          6           0        2.159649    1.192675   -1.981275
     10          6           0        3.474422    1.546672   -1.297899
     11          6           0        2.248991    0.902685   -3.471897
     12          6           0        0.650409    0.020010   -0.148910
     13          6           0       -0.797847    0.239415   -0.714293
     14          6           0       -1.837821   -0.478522    0.094951
     15          8           0       -1.765561   -0.452386    1.303325
     16          8           0       -2.729765   -1.147580   -0.721102
     17          7           0        6.355702    2.441289   -0.383279
     18          6           0        5.468795    3.176460   -1.077388
     19          6           0        6.021324    4.463271   -1.244905
     20          6           0        7.275527    4.488201   -0.615696
     21          6           0        7.556550    3.089007   -0.257605
     22          6           0        5.296432    5.566376   -2.041257
     23          6           0        8.244808    5.655531   -0.323705
     24          8           0        9.366596    5.589348    0.208784
     25          6           0        7.721386    6.970529   -0.658898
     26          7           0        8.188745    0.212825    0.680272
     27          6           0        9.100241    1.236464    0.575309
     28          6           0       10.562490    0.772938    0.847172
     29          6           0       10.359504   -0.639345    1.515039
     30          6           0        8.873415   -0.898078    1.104781
     31          6           0       11.575458    0.784122   -0.398779
     32          6           0       10.533316   -0.717215    3.056154
     33          6           0       10.822635   -2.149367    3.584659
     34          7           0        6.092975   -1.677656    0.299276
     35          6           0        6.926077   -2.563061    0.926635
     36          6           0        6.287981   -3.808425    1.113165
     37          6           0        4.960043   -3.590244    0.735920
     38          6           0        4.856120   -2.277294    0.243042
     39          6           0        6.984694   -5.099926    1.545348
     40          6           0        3.640950   -4.253284    0.663012
     41          8           0        3.192581   -5.352774    0.968320
     42          6           0        2.648922   -3.075313    0.189038
     43          6           0        1.906221   -3.485487   -0.959428
     44          8           0        2.417763   -3.880243   -2.004098
     45          8           0        0.597084   -3.237800   -0.808391
     46          6           0       -0.374388   -3.757311   -1.809496
     47          6           0       -3.686582   -2.045488   -0.001284
     48          6           0       -5.203650   -1.886875   -0.194554
     49          6           0       -6.137765   -2.755279   -0.589199
     50          6           0       -5.823762   -4.241952   -0.905001
     51          6           0       -7.647636   -2.436185   -0.678994
     52          6           0       -8.214121   -1.712888   -1.915358
     53          6           0       -8.806396   -0.275945   -1.511172
     54          6           0      -10.266236   -0.160103   -1.988705
     55          6           0      -10.615232    1.155017   -2.638796
     56          6           0      -11.270234   -0.463136   -0.807873
     57          6           0      -12.761170   -0.487559   -1.319446
     58          6           0      -13.646697    0.759442   -0.931615
     59          6           0      -14.524328    0.510271    0.292153
     60          6           0      -15.721208   -0.478726    0.046800
     61          6           0      -15.032432    1.953931    0.904461
     62          6           0      -14.446456    2.155448    2.356302
     63          6           0      -13.166895    3.116203    2.394436
     64          6           0      -12.090785    2.748247    3.467956
     65          6           0      -11.997915    3.580527    4.705095
     66          6           0      -10.617251    2.524459    2.791585
     67          1           0        3.481791    3.439497   -2.028644
     68          1           0        9.546623    3.231871    0.301490
     69          1           0        8.780004   -2.865748    1.987104
     70          1           0        1.379741   -0.857077   -1.915385
     71          1           0        1.412595    1.986061   -1.992198
     72          1           0        2.941352    1.592903   -3.954780
     73          1           0        1.287481    1.121657   -3.935966
     74          1           0        2.479466   -0.143020   -3.676098
     75          1           0        0.951363    0.875956    0.453913
     76          1           0        0.686353   -0.895206    0.441077
     77          1           0       -0.764536   -0.052889   -1.764114
     78          1           0       -1.073893    1.291000   -0.644694
     79          1           0        4.530866    5.284690   -2.764673
     80          1           0        5.950525    6.073624   -2.751039
     81          1           0        4.796070    6.255062   -1.361564
     82          1           0        8.370891    7.748386   -0.256583
     83          1           0        6.712189    6.993245   -0.247795
     84          1           0        7.656983    7.154073   -1.732110
     85          1           0       10.936264    1.465697    1.601612
     86          1           0       11.083930   -1.281409    1.014285
     87          1           0       11.588406   -0.215491   -0.833854
     88          1           0       12.537263    1.140194   -0.031006
     89          1           0       11.280177    1.389162   -1.255887
     90          1           0        9.697319   -0.207320    3.533469
     91          1           0       11.368927   -0.086545    3.360583
     92          1           0       11.770753   -2.243391    4.115020
     93          1           0       10.910226   -2.881484    2.782448
     94          1           0       10.121010   -2.534688    4.324702
     95          1           0        7.630413   -4.848050    2.387040
     96          1           0        7.533259   -5.506334    0.695068
     97          1           0        6.237323   -5.755543    1.992194
     98          1           0        2.000961   -2.899760    1.047534
     99          1           0       -0.258165   -3.151748   -2.707720
    100          1           0       -1.402612   -3.917160   -1.485670
    101          1           0        0.033705   -4.748266   -2.011016
    102          1           0       -3.516269   -2.173499    1.067442
    103          1           0       -3.597547   -3.025598   -0.471066
    104          1           0       -5.575581   -0.862807   -0.166510
    105          1           0       -5.972136   -4.803602    0.017201
    106          1           0       -4.867340   -4.518466   -1.348946
    107          1           0       -6.530844   -4.708216   -1.592309
    108          1           0       -7.872367   -1.996928    0.293564
    109          1           0       -8.198084   -3.376962   -0.655812
    110          1           0       -8.915175   -2.377683   -2.420657
    111          1           0       -7.391067   -1.534931   -2.607222
    112          1           0       -8.165138    0.495309   -1.937693
    113          1           0       -8.844083   -0.043505   -0.446580
    114          1           0      -10.543546   -0.911543   -2.728242
    115          1           0      -11.332275    0.855986   -3.403513
    116          1           0       -9.719209    1.630172   -3.036344
    117          1           0      -11.054441    1.707137   -1.807991
    118          1           0      -11.287571    0.325860   -0.056211
    119          1           0      -11.140767   -1.320750   -0.147724
    120          1           0      -13.262348   -1.431865   -1.107166
    121          1           0      -12.693919   -0.473980   -2.407399
    122          1           0      -14.285930    1.077421   -1.755166
    123          1           0      -12.976299    1.602547   -0.765132
    124          1           0      -13.862293   -0.008300    0.984949
    125          1           0      -15.845301   -0.686108   -1.017029
    126          1           0      -16.676307   -0.143885    0.449548
    127          1           0      -15.381021   -1.400033    0.518681
    128          1           0      -16.105146    1.862811    1.076622
    129          1           0      -14.713483    2.730239    0.207250
    130          1           0      -14.088665    1.250580    2.846536
    131          1           0      -15.192677    2.669017    2.961612
    132          1           0      -13.462793    4.123343    2.689227
    133          1           0      -12.656234    3.140265    1.431958
    134          1           0      -12.382199    1.819174    3.958920
    135          1           0      -10.967554    3.726553    5.028580
    136          1           0      -12.506969    3.147296    5.566345
    137          1           0      -12.451499    4.543928    4.470344
    138          1           0      -10.063111    1.741189    3.308382
    139          1           0      -10.041709    3.444645    2.889726
    140          1           0      -10.798847    2.163025    1.779230
 ---------------------------------------------------------------------

 SCF Done:  E(RPBE1PBE) =  -3005.34440271     A.U. after   15 cycles

 Excitation energies and oscillator strengths:

 Excited State   1:      Singlet-A      1.8819 eV  658.82 nm  f=0.3773  <S**2>=0.000
     245 -> 248       -0.18188
     246 -> 247        0.69034
     246 <- 247       -0.10351
 This state for optimization and/or second-order correction.
 Total Energy, E(TD-HF/TD-DFT) =  -3005.27524341
 Copying the excited state density for this state as the 1-particle RhoCI density.

 Excited State   2:      Singlet-A      2.1894 eV  566.28 nm  f=0.1379  <S**2>=0.000
     245 -> 247        0.66140
     246 -> 248        0.24106

 Excited State   3:      Singlet-A      2.9731 eV  417.02 nm  f=0.0011  <S**2>=0.000
     242 -> 247        0.23983
     243 -> 247       -0.22226
     244 -> 247        0.60028

 Excited State   4:      Singlet-A      3.0232 eV  410.11 nm  f=0.0014  <S**2>=0.000
     242 -> 247       -0.25456
     243 -> 247        0.54666
     244 -> 247        0.31999

 Excited State   5:      Singlet-A      3.1129 eV  398.29 nm  f=0.0026  <S**2>=0.000
     240 -> 247        0.16757
     242 -> 247        0.56510
     243 -> 247        0.32861
     244 -> 247       -0.13755

 The electronic state is 1-A.
 Alpha  occ. eigenvalues --  -46.92197 -19.26981 -19.25669 -19.20382 -19.19665
 Alpha  occ. eigenvalues --  -19.19094 -19.18722 -14.41947 -14.41583 -14.39025
 Alpha  occ. eigenvalues --  -14.38841 -10.36601 -10.35328 -10.32680 -10.32096
 Alpha  occ. eigenvalues --  -10.30110 -10.29667 -10.29540 -10.28724 -10.28397
 Alpha  occ. eigenvalues --  -10.28344 -10.27850 -10.27512 -10.27298 -10.26844
 Alpha  occ. eigenvalues --  -10.26704 -10.26052 -10.26010 -10.25890 -10.25850
 Alpha  occ. eigenvalues --  -10.25793 -10.25779 -10.25168 -10.25083 -10.25068
 Alpha  occ. eigenvalues --  -10.24953 -10.24823 -10.24541 -10.24529 -10.24434
 Alpha  occ. eigenvalues --  -10.24325 -10.23980 -10.23872 -10.23751 -10.23735
 Alpha  occ. eigenvalues --  -10.23647 -10.23587 -10.23561 -10.23460 -10.23389
 Alpha  occ. eigenvalues --  -10.23272 -10.23216 -10.23161 -10.23135 -10.23111
 Alpha  occ. eigenvalues --  -10.23092 -10.22959 -10.22887 -10.22723 -10.22565
 Alpha  occ. eigenvalues --  -10.22510 -10.22431 -10.22350 -10.22019 -10.21813
 Alpha  occ. eigenvalues --  -10.21368  -3.14247  -1.87109  -1.86638  -1.86450
 Alpha  occ. eigenvalues --   -1.11224  -1.10932  -1.04398  -1.03620  -1.03564
 Alpha  occ. eigenvalues --   -1.01609  -0.98863  -0.98224  -0.97763  -0.97121
 Alpha  occ. eigenvalues --   -0.86383  -0.84561  -0.83723  -0.83448  -0.83027
 Alpha  occ. eigenvalues --   -0.82263  -0.82206  -0.81387  -0.81102  -0.81051
 Alpha  occ. eigenvalues --   -0.80313  -0.79731  -0.78444  -0.77948  -0.77331
 Alpha  occ. eigenvalues --   -0.76508  -0.76360  -0.75591  -0.74992  -0.74374
 Alpha  occ. eigenvalues --   -0.73731  -0.72438  -0.72212  -0.71465  -0.70564
 Alpha  occ. eigenvalues --   -0.70105  -0.69921  -0.69313  -0.69070  -0.68252
 Alpha  occ. eigenvalues --   -0.67949  -0.67371  -0.65970  -0.64861  -0.64003
 Alpha  occ. eigenvalues --   -0.63110  -0.62849  -0.61479  -0.61217  -0.59957
 Alpha  occ. eigenvalues --   -0.59691  -0.59487  -0.59199  -0.58455  -0.57919
 Alpha  occ. eigenvalues --   -0.57885  -0.57078  -0.56703  -0.56388  -0.54617
 Alpha  occ. eigenvalues --   -0.54462  -0.53821  -0.53718  -0.53240  -0.52604
 Alpha  occ. eigenvalues --   -0.52103  -0.51703  -0.50976  -0.50580  -0.49987
 Alpha  occ. eigenvalues --   -0.49695  -0.49542  -0.49308  -0.48501  -0.48340
 Alpha  occ. eigenvalues --   -0.48081  -0.47766  -0.47711  -0.47513  -0.47331
 Alpha  occ. eigenvalues --   -0.46933  -0.46775  -0.46520  -0.46438  -0.45934
 Alpha  occ. eigenvalues --   -0.45725  -0.45516  -0.45327  -0.45094  -0.45017
 Alpha  occ. eigenvalues --   -0.44896  -0.44869  -0.44637  -0.44603  -0.44060
 Alpha  occ. eigenvalues --   -0.43953  -0.43805  -0.43702  -0.43546  -0.43435
 Alpha  occ. eigenvalues --   -0.43007  -0.42843  -0.42766  -0.42578  -0.42175
 Alpha  occ. eigenvalues --   -0.42000  -0.41739  -0.41544  -0.41294  -0.41000
 Alpha  occ. eigenvalues --   -0.40955  -0.40885  -0.40809  -0.40698  -0.40642
 Alpha  occ. eigenvalues --   -0.40180  -0.40044  -0.39637  -0.39595  -0.39480
 Alpha  occ. eigenvalues --   -0.39386  -0.39310  -0.39250  -0.38954  -0.38765
 Alpha  occ. eigenvalues --   -0.38387  -0.38374  -0.38256  -0.38153  -0.37883
 Alpha  occ. eigenvalues --   -0.37654  -0.37220  -0.37164  -0.36975  -0.36918
 Alpha  occ. eigenvalues --   -0.36635  -0.36298  -0.36286  -0.35962  -0.35847
 Alpha  occ. eigenvalues --   -0.35691  -0.35498  -0.35406  -0.35110  -0.34995
 Alpha  occ. eigenvalues --   -0.34768  -0.34643  -0.34538  -0.34361  -0.34027
 Alpha  occ. eigenvalues --   -0.33839  -0.33175  -0.32728  -0.32628  -0.31916
 Alpha  occ. eigenvalues --   -0.31841  -0.31685  -0.31547  -0.31316  -0.31154
 Alpha  occ. eigenvalues --   -0.31064  -0.30193  -0.29937  -0.29913  -0.29382
 Alpha  occ. eigenvalues --   -0.29203  -0.28748  -0.28104  -0.27096  -0.26135
 Alpha  occ. eigenvalues --   -0.26013  -0.25725  -0.25556  -0.25305  -0.20759
 Alpha  occ. eigenvalues --   -0.19076
 Alpha virt. eigenvalues --   -0.11316  -0.05154  -0.03872  -0.01953   0.00319
 Alpha virt. eigenvalues --    0.00389   0.00833   0.01014   0.01524   0.02928
 Alpha virt. eigenvalues --    0.03380   0.04127   0.04714   0.04795   0.05507

 Mulliken charges:
               1
     1  Mg   0.969107
     2  C   -0.053322
     3  C   -0.068982
     4  C   -0.062626
     5  C   -0.066299
     6  N   -0.359346
     7  C    0.065250
     8  C   -0.121083
     9  C   -0.138096
    10  C    0.076193
    11  C    0.011211
    12  C    0.038613
    13  C   -0.001636
    14  C    0.226443
    15  O   -0.249942
    16  O   -0.369508
    17  N   -0.501202
    18  C    0.206990
    19  C   -0.176650
    20  C   -0.102299
    21  C    0.144448
    22  C    0.035828
    23  C    0.086824
    24  O   -0.253792
    25  C   -0.015803
    26  N   -0.424059
    27  C    0.089238
    28  C   -0.099283
    29  C   -0.121574
    30  C    0.120252
    31  C    0.010020
    32  C    0.003451
    33  C   -0.074654
    34  N   -0.460523
    35  C    0.094180
    36  C   -0.210746
    37  C   -0.087237
    38  C    0.187306
    39  C    0.080331
    40  C    0.209414
    41  O   -0.209734
    42  C   -0.159711
    43  C    0.276788
    44  O   -0.271481
    45  O   -0.371517
    46  C    0.128915
    47  C    0.260035
    48  C   -0.133832
    49  C   -0.211424
    50  C   -0.026354
    51  C   -0.001075
    52  C   -0.020625
    53  C    0.021286
    54  C   -0.258422
    55  C    0.021123
    56  C   -0.025605
    57  C   -0.066112
    58  C   -0.026090
    59  C   -0.218694
    60  C   -0.009202
    61  C    0.004245
    62  C   -0.063611
    63  C   -0.006471
    64  C   -0.267727
    65  C   -0.004184
    66  C   -0.053161
    67  H   -0.000239
    68  H    0.023640
    69  H    0.007702
    70  H    0.048585
    71  H    0.030249
    72  H    0.035439
    73  H    0.037443
    74  H    0.061165
    75  H    0.036941
    76  H    0.067023
    77  H    0.044588
    78  H    0.067653
    79  H    0.036454
    80  H    0.048553
    81  H    0.059347
    82  H    0.053686
    83  H    0.057045
    84  H    0.062472
    85  H    0.046076
    86  H    0.042821
    87  H    0.041851
    88  H    0.058768
    89  H    0.049579
    90  H    0.042155
    91  H    0.038869
    92  H    0.037089
    93  H    0.048462
    94  H    0.047841
    95  H    0.039222
    96  H    0.076064
    97  H    0.058151
    98  H    0.089176
    99  H    0.061272
   100  H    0.072263
   101  H    0.059626
   102  H    0.080488
   103  H    0.026252
   104  H    0.017373
   105  H    0.059163
   106  H    0.046838
   107  H    0.034652
   108  H    0.050605
   109  H    0.017672
   110  H    0.043477
   111  H    0.042035
   112  H    0.024972
   113  H    0.034184
   114  H    0.036864
   115  H    0.041055
   116  H    0.039679
   117  H    0.036436
   118  H    0.027823
   119  H    0.022989
   120  H    0.026410
   121  H    0.017522
   122  H    0.025735
   123  H    0.027713
   124  H    0.032468
   125  H    0.032999
   126  H    0.041458
   127  H    0.035894
   128  H    0.029561
   129  H    0.044698
   130  H    0.040879
   131  H    0.034441
   132  H    0.024342
   133  H    0.024322
   134  H    0.032521
   135  H    0.029958
   136  H    0.034796
   137  H    0.023576
   138  H    0.035910
   139  H    0.046592
   140  H    0.044819
 Sum of Mulliken charges =  -0.00000

 Dipole moment (field-independent basis, Debye):
    X=             -2.9264    Y=              1.9599    Z=             -2.1152  Tot=              4.1084
 Quadrupole moment (field-independent basis, Debye-Ang):
   XX=           -364.6310   YY=           -416.4266   ZZ=           -398.7093
   XY=              3.6128   XZ=             12.8071   YZ=            -13.7648

 Normal termination of Gaussian 16 at Sat Apr 30 19:43:34 2022.
