 Gaussian 16, Revision A.03,
 Gaussian 16:  ES64L-G16RevA.03 25-Dec-2016

 --------------------------------
 #p wB97XD/Def2SVP td=(nstates=5)
 --------------------------------

 ---------------------------------------------------
 step_851_chromophore_7 TDDFT with wB97XD functional
 ---------------------------------------------------
 Symbolic Z-matrix:
 Charge =  0 Multiplicity = 1

                         Standard orientation:
 ---------------------------------------------------------------------
 Center     Atomic      Atomic             Coordinates (Angstroms)
 Number     Number       Type             X           Y           Z
 ---------------------------------------------------------------------
      1         12           0        6.224615    0.432165    0.050457
      2          6           0        3.562257   -1.876057   -0.153060
      3          6           0        4.149861    2.755868   -1.499238
      4          6           0        8.739838    2.500642    0.211003
      5          6           0        8.298403   -2.156873    1.310122
      6          7           0        4.022600    0.476984   -0.660069
      7          6           0        3.143440   -0.593164   -0.674845
      8          6           0        1.769584   -0.121043   -1.211523
      9          6           0        2.159649    1.192675   -1.981275
     10          6           0        3.474422    1.546672   -1.297899
     11          6           0        2.248991    0.902685   -3.471897
     12          6           0        0.650409    0.020010   -0.148910
     13          6           0       -0.797847    0.239415   -0.714293
     14          6           0       -1.837821   -0.478522    0.094951
     15          8           0       -1.765561   -0.452386    1.303325
     16          8           0       -2.729765   -1.147580   -0.721102
     17          7           0        6.355702    2.441289   -0.383279
     18          6           0        5.468795    3.176460   -1.077388
     19          6           0        6.021324    4.463271   -1.244905
     20          6           0        7.275527    4.488201   -0.615696
     21          6           0        7.556550    3.089007   -0.257605
     22          6           0        5.296432    5.566376   -2.041257
     23          6           0        8.244808    5.655531   -0.323705
     24          8           0        9.366596    5.589348    0.208784
     25          6           0        7.721386    6.970529   -0.658898
     26          7           0        8.188745    0.212825    0.680272
     27          6           0        9.100241    1.236464    0.575309
     28          6           0       10.562490    0.772938    0.847172
     29          6           0       10.359504   -0.639345    1.515039
     30          6           0        8.873415   -0.898078    1.104781
     31          6           0       11.575458    0.784122   -0.398779
     32          6           0       10.533316   -0.717215    3.056154
     33          6           0       10.822635   -2.149367    3.584659
     34          7           0        6.092975   -1.677656    0.299276
     35          6           0        6.926077   -2.563061    0.926635
     36          6           0        6.287981   -3.808425    1.113165
     37          6           0        4.960043   -3.590244    0.735920
     38          6           0        4.856120   -2.277294    0.243042
     39          6           0        6.984694   -5.099926    1.545348
     40          6           0        3.640950   -4.253284    0.663012
     41          8           0        3.192581   -5.352774    0.968320
     42          6           0        2.648922   -3.075313    0.189038
     43          6           0        1.906221   -3.485487   -0.959428
     44          8           0        2.417763   -3.880243   -2.004098
     45          8           0        0.597084   -3.237800   -0.808391
     46          6           0       -0.374388   -3.757311   -1.809496
     47          6           0       -3.686582   -2.045488   -0.001284
     48          6           0       -5.203650   -1.886875   -0.194554
     49          6           0       -6.137765   -2.755279   -0.589199
     50          6           0       -5.823762   -4.241952   -0.905001
     51          6           0       -7.647636   -2.436185   -0.678994
     52          6           0       -8.214121   -1.712888   -1.915358
     53          6           0       -8.806396   -0.275945   -1.511172
     54          6           0      -10.266236   -0.160103   -1.988705
     55          6           0      -10.615232    1.155017   -2.638796
     56          6           0      -11.270234   -0.463136   -0.807873
     57          6           0      -12.761170   -0.487559   -1.319446
     58          6           0      -13.646697    0.759442   -0.931615
     59          6           0      -14.524328    0.510271    0.292153
     60          6           0      -15.721208   -0.478726    0.046800
     61          6           0      -15.032432    1.953931    0.904461
     62          6           0      -14.446456    2.155448    2.356302
     63          6           0      -13.166895    3.116203    2.394436
     64          6           0      -12.090785    2.748247    3.467956
     65          6           0      -11.997915    3.580527    4.705095
     66          6           0      -10.617251    2.524459    2.791585
     67          1           0        3.481791    3.439497   -2.028644
     68          1           0        9.546623    3.231871    0.301490
     69          1           0        8.780004   -2.865748    1.987104
     70          1           0        1.379741   -0.857077   -1.915385
     71          1           0        1.412595    1.986061   -1.992198
     72          1           0        2.941352    1.592903   -3.954780
     73          1           0        1.287481    1.121657   -3.935966
     74          1           0        2.479466   -0.143020   -3.676098
     75          1           0        0.951363    0.875956    0.453913
     76          1           0        0.686353   -0.895206    0.441077
     77          1           0       -0.764536   -0.052889   -1.764114
     78          1           0       -1.073893    1.291000   -0.644694
     79          1           0        4.530866    5.284690   -2.764673
     80          1           0        5.950525    6.073624   -2.751039
     81          1           0        4.796070    6.255062   -1.361564
     82          1           0        8.370891    7.748386   -0.256583
     83          1           0        6.712189    6.993245   -0.247795
     84          1           0        7.656983    7.154073   -1.732110
     85          1           0       10.936264    1.465697    1.601612
     86          1           0       11.083930   -1.281409    1.014285
     87          1           0       11.588406   -0.215491   -0.833854
     88          1           0       12.537263    1.140194   -0.031006
     89          1           0       11.280177    1.389162   -1.255887
     90          1           0        9.697319   -0.207320    3.533469
     91          1           0       11.368927   -0.086545    3.360583
     92          1           0       11.770753   -2.243391    4.115020
     93          1           0       10.910226   -2.881484    2.782448
     94          1           0       10.121010   -2.534688    4.324702
     95          1           0        7.630413   -4.848050    2.387040
     96          1           0        7.533259   -5.506334    0.695068
     97          1           0        6.237323   -5.755543    1.992194
     98          1           0        2.000961   -2.899760    1.047534
     99          1           0       -0.258165   -3.151748   -2.707720
    100          1           0       -1.402612   -3.917160   -1.485670
    101          1           0        0.033705   -4.748266   -2.011016
    102          1           0       -3.516269   -2.173499    1.067442
    103          1           0       -3.597547   -3.025598   -0.471066
    104          1           0       -5.575581   -0.862807   -0.166510
    105          1           0       -5.972136   -4.803602    0.017201
    106          1           0       -4.867340   -4.518466   -1.348946
    107          1           0       -6.530844   -4.708216   -1.592309
    108          1           0       -7.872367   -1.996928    0.293564
    109          1           0       -8.198084   -3.376962   -0.655812
    110          1           0       -8.915175   -2.377683   -2.420657
    111          1           0       -7.391067   -1.534931   -2.607222
    112          1           0       -8.165138    0.495309   -1.937693
    113          1           0       -8.844083   -0.043505   -0.446580
    114          1           0      -10.543546   -0.911543   -2.728242
    115          1           0      -11.332275    0.855986   -3.403513
    116          1           0       -9.719209    1.630172   -3.036344
    117          1           0      -11.054441    1.707137   -1.807991
    118          1           0      -11.287571    0.325860   -0.056211
    119          1           0      -11.140767   -1.320750   -0.147724
    120          1           0      -13.262348   -1.431865   -1.107166
    121          1           0      -12.693919   -0.473980   -2.407399
    122          1           0      -14.285930    1.077421   -1.755166
    123          1           0      -12.976299    1.602547   -0.765132
    124          1           0      -13.862293   -0.008300    0.984949
    125          1           0      -15.845301   -0.686108   -1.017029
    126          1           0      -16.676307   -0.143885    0.449548
    127          1           0      -15.381021   -1.400033    0.518681
    128          1           0      -16.105146    1.862811    1.076622
    129          1           0      -14.713483    2.730239    0.207250
    130          1           0      -14.088665    1.250580    2.846536
    131          1           0      -15.192677    2.669017    2.961612
    132          1           0      -13.462793    4.123343    2.689227
    133          1           0      -12.656234    3.140265    1.431958
    134          1           0      -12.382199    1.819174    3.958920
    135          1           0      -10.967554    3.726553    5.028580
    136          1           0      -12.506969    3.147296    5.566345
    137          1           0      -12.451499    4.543928    4.470344
    138          1           0      -10.063111    1.741189    3.308382
    139          1           0      -10.041709    3.444645    2.889726
    140          1           0      -10.798847    2.163025    1.779230
 ---------------------------------------------------------------------

 SCF Done:  E(RwB97XD) =  -3007.85605919     A.U. after   17 cycles

 Excitation energies and oscillator strengths:

 Excited State   1:      Singlet-A      1.6580 eV  747.80 nm  f=0.3864  <S**2>=0.000
     245 -> 248        0.19328
     246 -> 247        0.68181
     245 <- 248        0.11930
 This state for optimization and/or second-order correction.
 Total Energy, E(TD-HF/TD-DFT) =  -3007.79512946
 Copying the excited state density for this state as the 1-particle RhoCI density.

 Excited State   2:      Singlet-A      2.1212 eV  584.49 nm  f=0.1439  <S**2>=0.000
     245 -> 247        0.65157
     246 -> 248       -0.26314

 Excited State   3:      Singlet-A      3.3755 eV  367.31 nm  f=0.0036  <S**2>=0.000
     244 -> 247        0.67936

 Excited State   4:      Singlet-A      3.5140 eV  352.83 nm  f=0.0747  <S**2>=0.000
     243 -> 247        0.57212
     246 -> 248       -0.33133

 Excited State   5:      Singlet-A      3.5567 eV  348.60 nm  f=0.0035  <S**2>=0.000
     239 -> 247       -0.11662
     240 -> 247        0.11166
     242 -> 247        0.54625
     242 -> 249        0.25740
     242 -> 250        0.19072
     243 -> 247        0.10050

 The electronic state is 1-A.
 Alpha  occ. eigenvalues --  -46.95128 -19.31557 -19.30312 -19.25067 -19.24516
 Alpha  occ. eigenvalues --  -19.23906 -19.23504 -14.47165 -14.46556 -14.43967
 Alpha  occ. eigenvalues --  -14.43774 -10.43409 -10.42234 -10.39569 -10.38951
 Alpha  occ. eigenvalues --  -10.36647 -10.36130 -10.35946 -10.34966 -10.34726
 Alpha  occ. eigenvalues --  -10.34668 -10.34258 -10.33861 -10.33587 -10.33278
 Alpha  occ. eigenvalues --  -10.33005 -10.32419 -10.32277 -10.32238 -10.32166
 Alpha  occ. eigenvalues --  -10.32054 -10.32025 -10.31604 -10.31546 -10.31538
 Alpha  occ. eigenvalues --  -10.31375 -10.31193 -10.31095 -10.30796 -10.30704
 Alpha  occ. eigenvalues --  -10.30702 -10.30319 -10.30247 -10.30218 -10.30152
 Alpha  occ. eigenvalues --  -10.30041 -10.29987 -10.29863 -10.29794 -10.29733
 Alpha  occ. eigenvalues --  -10.29626 -10.29553 -10.29480 -10.29470 -10.29459
 Alpha  occ. eigenvalues --  -10.29347 -10.29300 -10.29245 -10.29162 -10.29082
 Alpha  occ. eigenvalues --  -10.28891 -10.28784 -10.28760 -10.28450 -10.28254
 Alpha  occ. eigenvalues --  -10.27791  -3.21040  -1.94650  -1.94180  -1.93991
 Alpha  occ. eigenvalues --   -1.18691  -1.18335  -1.11921  -1.11068  -1.10975
 Alpha  occ. eigenvalues --   -1.09055  -1.06248  -1.05580  -1.05179  -1.04485
 Alpha  occ. eigenvalues --   -0.94055  -0.92257  -0.91397  -0.91107  -0.90606
 Alpha  occ. eigenvalues --   -0.89941  -0.89792  -0.89044  -0.88774  -0.88707
 Alpha  occ. eigenvalues --   -0.87905  -0.87385  -0.86119  -0.85613  -0.84969
 Alpha  occ. eigenvalues --   -0.84183  -0.84075  -0.83216  -0.82644  -0.82024
 Alpha  occ. eigenvalues --   -0.81404  -0.80099  -0.79899  -0.79100  -0.78189
 Alpha  occ. eigenvalues --   -0.77791  -0.77510  -0.77011  -0.76762  -0.75910
 Alpha  occ. eigenvalues --   -0.75591  -0.74922  -0.73524  -0.72456  -0.71531
 Alpha  occ. eigenvalues --   -0.70736  -0.70434  -0.69065  -0.68826  -0.67455
 Alpha  occ. eigenvalues --   -0.67211  -0.66937  -0.66834  -0.65887  -0.65587
 Alpha  occ. eigenvalues --   -0.65359  -0.64753  -0.64141  -0.64019  -0.62067
 Alpha  occ. eigenvalues --   -0.61964  -0.61365  -0.61145  -0.60607  -0.60025
 Alpha  occ. eigenvalues --   -0.59630  -0.59191  -0.58411  -0.58020  -0.57433
 Alpha  occ. eigenvalues --   -0.57118  -0.57001  -0.56728  -0.55973  -0.55699
 Alpha  occ. eigenvalues --   -0.55530  -0.55209  -0.55056  -0.54907  -0.54795
 Alpha  occ. eigenvalues --   -0.54376  -0.54083  -0.53902  -0.53825  -0.53329
 Alpha  occ. eigenvalues --   -0.53143  -0.52820  -0.52669  -0.52428  -0.52390
 Alpha  occ. eigenvalues --   -0.52242  -0.52204  -0.51955  -0.51925  -0.51450
 Alpha  occ. eigenvalues --   -0.51315  -0.51131  -0.51037  -0.50952  -0.50760
 Alpha  occ. eigenvalues --   -0.50306  -0.50174  -0.50015  -0.49855  -0.49452
 Alpha  occ. eigenvalues --   -0.49356  -0.49002  -0.48791  -0.48521  -0.48209
 Alpha  occ. eigenvalues --   -0.48134  -0.48109  -0.48038  -0.47950  -0.47865
 Alpha  occ. eigenvalues --   -0.47318  -0.47242  -0.46885  -0.46751  -0.46713
 Alpha  occ. eigenvalues --   -0.46569  -0.46474  -0.46426  -0.46184  -0.45973
 Alpha  occ. eigenvalues --   -0.45555  -0.45464  -0.45331  -0.45291  -0.44962
 Alpha  occ. eigenvalues --   -0.44747  -0.44402  -0.44274  -0.44099  -0.43993
 Alpha  occ. eigenvalues --   -0.43686  -0.43414  -0.43281  -0.43071  -0.42988
 Alpha  occ. eigenvalues --   -0.42912  -0.42554  -0.42509  -0.42185  -0.41939
 Alpha  occ. eigenvalues --   -0.41847  -0.41647  -0.41573  -0.41402  -0.40970
 Alpha  occ. eigenvalues --   -0.40894  -0.40208  -0.39769  -0.39533  -0.38969
 Alpha  occ. eigenvalues --   -0.38792  -0.38707  -0.38598  -0.38312  -0.38225
 Alpha  occ. eigenvalues --   -0.38055  -0.37137  -0.36852  -0.36730  -0.36467
 Alpha  occ. eigenvalues --   -0.36060  -0.35737  -0.35005  -0.33720  -0.33094
 Alpha  occ. eigenvalues --   -0.32791  -0.32692  -0.32335  -0.31958  -0.25695
 Alpha  occ. eigenvalues --   -0.23297
 Alpha virt. eigenvalues --   -0.07245   0.00275   0.02437   0.04555   0.06767
 Alpha virt. eigenvalues --    0.07008   0.07296   0.07592   0.08044   0.09246
 Alpha virt. eigenvalues --    0.10101   0.10994   0.11205   0.11568   0.12269

 Mulliken charges:
               1
     1  Mg   0.958534
     2  C   -0.048802
     3  C   -0.081802
     4  C   -0.077334
     5  C   -0.079771
     6  N   -0.324343
     7  C    0.022888
     8  C   -0.081325
     9  C   -0.113077
    10  C    0.055282
    11  C    0.019584
    12  C    0.051113
    13  C    0.015685
    14  C    0.216892
    15  O   -0.248328
    16  O   -0.368648
    17  N   -0.468195
    18  C    0.196539
    19  C   -0.162081
    20  C   -0.098990
    21  C    0.136664
    22  C    0.046418
    23  C    0.082574
    24  O   -0.246846
    25  C   -0.002872
    26  N   -0.396581
    27  C    0.078561
    28  C   -0.078658
    29  C   -0.092699
    30  C    0.111827
    31  C    0.021279
    32  C    0.013291
    33  C   -0.059734
    34  N   -0.424247
    35  C    0.084791
    36  C   -0.207644
    37  C   -0.078738
    38  C    0.170679
    39  C    0.092766
    40  C    0.187158
    41  O   -0.200380
    42  C   -0.118280
    43  C    0.248255
    44  O   -0.264721
    45  O   -0.367618
    46  C    0.144892
    47  C    0.284961
    48  C   -0.148952
    49  C   -0.195278
    50  C   -0.013440
    51  C    0.016130
    52  C   -0.005743
    53  C    0.033746
    54  C   -0.223110
    55  C    0.036904
    56  C   -0.002330
    57  C   -0.050079
    58  C   -0.001387
    59  C   -0.191840
    60  C    0.000914
    61  C    0.020628
    62  C   -0.042505
    63  C    0.009263
    64  C   -0.242944
    65  C    0.007076
    66  C   -0.029814
    67  H   -0.006764
    68  H    0.017809
    69  H   -0.007031
    70  H    0.027316
    71  H    0.022120
    72  H    0.029020
    73  H    0.031704
    74  H    0.055617
    75  H    0.029521
    76  H    0.051730
    77  H    0.037280
    78  H    0.062361
    79  H    0.032777
    80  H    0.042836
    81  H    0.054913
    82  H    0.052806
    83  H    0.048903
    84  H    0.057101
    85  H    0.036701
    86  H    0.031777
    87  H    0.035219
    88  H    0.053891
    89  H    0.044028
    90  H    0.034878
    91  H    0.030861
    92  H    0.032301
    93  H    0.041909
    94  H    0.042352
    95  H    0.033259
    96  H    0.071809
    97  H    0.054312
    98  H    0.084661
    99  H    0.058317
   100  H    0.068821
   101  H    0.055644
   102  H    0.077287
   103  H    0.011044
   104  H    0.013132
   105  H    0.053108
   106  H    0.042660
   107  H    0.029100
   108  H    0.042149
   109  H    0.010700
   110  H    0.036649
   111  H    0.033931
   112  H    0.017951
   113  H    0.024311
   114  H    0.021057
   115  H    0.034960
   116  H    0.034398
   117  H    0.026014
   118  H    0.004888
   119  H    0.015705
   120  H    0.018662
   121  H    0.005176
   122  H    0.017652
   123  H    0.008497
   124  H    0.016430
   125  H    0.026756
   126  H    0.036326
   127  H    0.030309
   128  H    0.021262
   129  H    0.036791
   130  H    0.029696
   131  H    0.027542
   132  H    0.014903
   133  H    0.011792
   134  H    0.019385
   135  H    0.024072
   136  H    0.029775
   137  H    0.016092
   138  H    0.030063
   139  H    0.040088
   140  H    0.032767
 Sum of Mulliken charges =  -0.00000

 Dipole moment (field-independent basis, Debye):
    X=             -3.1066    Y=              2.0809    Z=             -2.2110  Tot=              4.3439
 Quadrupole moment (field-independent basis, Debye-Ang):
   XX=           -366.8639   YY=           -414.6384   ZZ=           -398.5310
   XY=              5.0114   XZ=             12.1955   YZ=            -13.9181

 Normal termination of Gaussian 16 at Sat Apr 30 20:07:54 2022.
