 Gaussian 16, Revision A.03,
 Gaussian 16:  ES64L-G16RevA.03 25-Dec-2016

 --------------------
 #p ZINDO=(nstates=5)
 --------------------

 ----------------------------
 step_851_chromophore_7 ZINDO
 ----------------------------
 Symbolic Z-matrix:
 Charge =  0 Multiplicity = 1

                         Standard orientation:
 ---------------------------------------------------------------------
 Center     Atomic      Atomic             Coordinates (Angstroms)
 Number     Number       Type             X           Y           Z
 ---------------------------------------------------------------------
      1         12           0        6.224615    0.432165    0.050457
      2          6           0        3.562257   -1.876057   -0.153060
      3          6           0        4.149861    2.755868   -1.499238
      4          6           0        8.739838    2.500642    0.211003
      5          6           0        8.298403   -2.156873    1.310122
      6          7           0        4.022600    0.476984   -0.660069
      7          6           0        3.143440   -0.593164   -0.674845
      8          6           0        1.769584   -0.121043   -1.211523
      9          6           0        2.159649    1.192675   -1.981275
     10          6           0        3.474422    1.546672   -1.297899
     11          6           0        2.248991    0.902685   -3.471897
     12          6           0        0.650409    0.020010   -0.148910
     13          6           0       -0.797847    0.239415   -0.714293
     14          6           0       -1.837821   -0.478522    0.094951
     15          8           0       -1.765561   -0.452386    1.303325
     16          8           0       -2.729765   -1.147580   -0.721102
     17          7           0        6.355702    2.441289   -0.383279
     18          6           0        5.468795    3.176460   -1.077388
     19          6           0        6.021324    4.463271   -1.244905
     20          6           0        7.275527    4.488201   -0.615696
     21          6           0        7.556550    3.089007   -0.257605
     22          6           0        5.296432    5.566376   -2.041257
     23          6           0        8.244808    5.655531   -0.323705
     24          8           0        9.366596    5.589348    0.208784
     25          6           0        7.721386    6.970529   -0.658898
     26          7           0        8.188745    0.212825    0.680272
     27          6           0        9.100241    1.236464    0.575309
     28          6           0       10.562490    0.772938    0.847172
     29          6           0       10.359504   -0.639345    1.515039
     30          6           0        8.873415   -0.898078    1.104781
     31          6           0       11.575458    0.784122   -0.398779
     32          6           0       10.533316   -0.717215    3.056154
     33          6           0       10.822635   -2.149367    3.584659
     34          7           0        6.092975   -1.677656    0.299276
     35          6           0        6.926077   -2.563061    0.926635
     36          6           0        6.287981   -3.808425    1.113165
     37          6           0        4.960043   -3.590244    0.735920
     38          6           0        4.856120   -2.277294    0.243042
     39          6           0        6.984694   -5.099926    1.545348
     40          6           0        3.640950   -4.253284    0.663012
     41          8           0        3.192581   -5.352774    0.968320
     42          6           0        2.648922   -3.075313    0.189038
     43          6           0        1.906221   -3.485487   -0.959428
     44          8           0        2.417763   -3.880243   -2.004098
     45          8           0        0.597084   -3.237800   -0.808391
     46          6           0       -0.374388   -3.757311   -1.809496
     47          6           0       -3.686582   -2.045488   -0.001284
     48          6           0       -5.203650   -1.886875   -0.194554
     49          6           0       -6.137765   -2.755279   -0.589199
     50          6           0       -5.823762   -4.241952   -0.905001
     51          6           0       -7.647636   -2.436185   -0.678994
     52          6           0       -8.214121   -1.712888   -1.915358
     53          6           0       -8.806396   -0.275945   -1.511172
     54          6           0      -10.266236   -0.160103   -1.988705
     55          6           0      -10.615232    1.155017   -2.638796
     56          6           0      -11.270234   -0.463136   -0.807873
     57          6           0      -12.761170   -0.487559   -1.319446
     58          6           0      -13.646697    0.759442   -0.931615
     59          6           0      -14.524328    0.510271    0.292153
     60          6           0      -15.721208   -0.478726    0.046800
     61          6           0      -15.032432    1.953931    0.904461
     62          6           0      -14.446456    2.155448    2.356302
     63          6           0      -13.166895    3.116203    2.394436
     64          6           0      -12.090785    2.748247    3.467956
     65          6           0      -11.997915    3.580527    4.705095
     66          6           0      -10.617251    2.524459    2.791585
     67          1           0        3.481791    3.439497   -2.028644
     68          1           0        9.546623    3.231871    0.301490
     69          1           0        8.780004   -2.865748    1.987104
     70          1           0        1.379741   -0.857077   -1.915385
     71          1           0        1.412595    1.986061   -1.992198
     72          1           0        2.941352    1.592903   -3.954780
     73          1           0        1.287481    1.121657   -3.935966
     74          1           0        2.479466   -0.143020   -3.676098
     75          1           0        0.951363    0.875956    0.453913
     76          1           0        0.686353   -0.895206    0.441077
     77          1           0       -0.764536   -0.052889   -1.764114
     78          1           0       -1.073893    1.291000   -0.644694
     79          1           0        4.530866    5.284690   -2.764673
     80          1           0        5.950525    6.073624   -2.751039
     81          1           0        4.796070    6.255062   -1.361564
     82          1           0        8.370891    7.748386   -0.256583
     83          1           0        6.712189    6.993245   -0.247795
     84          1           0        7.656983    7.154073   -1.732110
     85          1           0       10.936264    1.465697    1.601612
     86          1           0       11.083930   -1.281409    1.014285
     87          1           0       11.588406   -0.215491   -0.833854
     88          1           0       12.537263    1.140194   -0.031006
     89          1           0       11.280177    1.389162   -1.255887
     90          1           0        9.697319   -0.207320    3.533469
     91          1           0       11.368927   -0.086545    3.360583
     92          1           0       11.770753   -2.243391    4.115020
     93          1           0       10.910226   -2.881484    2.782448
     94          1           0       10.121010   -2.534688    4.324702
     95          1           0        7.630413   -4.848050    2.387040
     96          1           0        7.533259   -5.506334    0.695068
     97          1           0        6.237323   -5.755543    1.992194
     98          1           0        2.000961   -2.899760    1.047534
     99          1           0       -0.258165   -3.151748   -2.707720
    100          1           0       -1.402612   -3.917160   -1.485670
    101          1           0        0.033705   -4.748266   -2.011016
    102          1           0       -3.516269   -2.173499    1.067442
    103          1           0       -3.597547   -3.025598   -0.471066
    104          1           0       -5.575581   -0.862807   -0.166510
    105          1           0       -5.972136   -4.803602    0.017201
    106          1           0       -4.867340   -4.518466   -1.348946
    107          1           0       -6.530844   -4.708216   -1.592309
    108          1           0       -7.872367   -1.996928    0.293564
    109          1           0       -8.198084   -3.376962   -0.655812
    110          1           0       -8.915175   -2.377683   -2.420657
    111          1           0       -7.391067   -1.534931   -2.607222
    112          1           0       -8.165138    0.495309   -1.937693
    113          1           0       -8.844083   -0.043505   -0.446580
    114          1           0      -10.543546   -0.911543   -2.728242
    115          1           0      -11.332275    0.855986   -3.403513
    116          1           0       -9.719209    1.630172   -3.036344
    117          1           0      -11.054441    1.707137   -1.807991
    118          1           0      -11.287571    0.325860   -0.056211
    119          1           0      -11.140767   -1.320750   -0.147724
    120          1           0      -13.262348   -1.431865   -1.107166
    121          1           0      -12.693919   -0.473980   -2.407399
    122          1           0      -14.285930    1.077421   -1.755166
    123          1           0      -12.976299    1.602547   -0.765132
    124          1           0      -13.862293   -0.008300    0.984949
    125          1           0      -15.845301   -0.686108   -1.017029
    126          1           0      -16.676307   -0.143885    0.449548
    127          1           0      -15.381021   -1.400033    0.518681
    128          1           0      -16.105146    1.862811    1.076622
    129          1           0      -14.713483    2.730239    0.207250
    130          1           0      -14.088665    1.250580    2.846536
    131          1           0      -15.192677    2.669017    2.961612
    132          1           0      -13.462793    4.123343    2.689227
    133          1           0      -12.656234    3.140265    1.431958
    134          1           0      -12.382199    1.819174    3.958920
    135          1           0      -10.967554    3.726553    5.028580
    136          1           0      -12.506969    3.147296    5.566345
    137          1           0      -12.451499    4.543928    4.470344
    138          1           0      -10.063111    1.741189    3.308382
    139          1           0      -10.041709    3.444645    2.889726
    140          1           0      -10.798847    2.163025    1.779230
 ---------------------------------------------------------------------

 SCF Done:  E(RZINDO/S) =  -473.945340347     A.U. after   20 cycles

 Excitation energies and oscillator strengths:

 Excited State   1:      Singlet-A      1.2352 eV 1003.78 nm  f=0.6123  <S**2>=0.000
     175 ->178         0.19450
     176 ->177         0.66177
 This state for optimization and/or second-order correction.
 Total Energy, E(CIS/TDA) =  -473.899948659
 Copying the excited state density for this state as the 1-particle RhoCI density.

 Excited State   2:      Singlet-A      1.8888 eV  656.42 nm  f=0.0846  <S**2>=0.000
     175 ->177         0.57323
     176 ->178        -0.38609

 Excited State   3:      Singlet-A      2.9995 eV  413.35 nm  f=0.2076  <S**2>=0.000
     168 ->177         0.20311
     168 ->179         0.10782
     168 ->180        -0.23186
     168 ->187         0.10699
     169 ->177         0.16377
     169 ->178        -0.11329
     169 ->179        -0.27108
     169 ->180        -0.14622
     169 ->186        -0.18011
     173 ->177        -0.17610
     174 ->177         0.10079
     175 ->177         0.14547
     176 ->178         0.24311
     176 ->179         0.11632

 Excited State   4:      Singlet-A      3.0022 eV  412.97 nm  f=0.0019  <S**2>=0.000
     168 ->177        -0.10564
     168 ->179        -0.35251
     168 ->180         0.15150
     168 ->186        -0.19476
     168 ->187        -0.10096
     169 ->177         0.27131
     169 ->178        -0.13622
     169 ->180        -0.27144
     169 ->187         0.10431
     174 ->177        -0.15225

 Excited State   5:      Singlet-A      3.0283 eV  409.42 nm  f=0.7028  <S**2>=0.000
     168 ->177        -0.12396
     168 ->180         0.14432
     169 ->177        -0.10072
     169 ->179         0.15845
     169 ->186         0.10356
     171 ->177         0.13367
     175 ->177         0.27916
     176 ->178         0.45755
     176 ->179         0.16433

 The electronic state is 1-A.
 Alpha  occ. eigenvalues --   -1.83207  -1.82341  -1.79340  -1.73557  -1.72096
 Alpha  occ. eigenvalues --   -1.70227  -1.64914  -1.58241  -1.58141  -1.57862
 Alpha  occ. eigenvalues --   -1.54138  -1.51668  -1.48863  -1.47252  -1.46511
 Alpha  occ. eigenvalues --   -1.43545  -1.42732  -1.39195  -1.37650  -1.37497
 Alpha  occ. eigenvalues --   -1.35344  -1.33151  -1.32505  -1.31682  -1.28670
 Alpha  occ. eigenvalues --   -1.25549  -1.24341  -1.22116  -1.20818  -1.18485
 Alpha  occ. eigenvalues --   -1.16641  -1.14954  -1.14910  -1.13735  -1.12606
 Alpha  occ. eigenvalues --   -1.12248  -1.10839  -1.10636  -1.05269  -1.04159
 Alpha  occ. eigenvalues --   -1.03606  -1.01039  -0.99675  -0.98084  -0.97735
 Alpha  occ. eigenvalues --   -0.96667  -0.94500  -0.92964  -0.92212  -0.91322
 Alpha  occ. eigenvalues --   -0.90424  -0.90150  -0.88551  -0.87724  -0.86592
 Alpha  occ. eigenvalues --   -0.86424  -0.83916  -0.83066  -0.82126  -0.80756
 Alpha  occ. eigenvalues --   -0.79788  -0.79684  -0.77304  -0.76573  -0.75770
 Alpha  occ. eigenvalues --   -0.75214  -0.74978  -0.74269  -0.74002  -0.73562
 Alpha  occ. eigenvalues --   -0.73220  -0.72544  -0.71352  -0.71042  -0.70969
 Alpha  occ. eigenvalues --   -0.70614  -0.69749  -0.68561  -0.68141  -0.67865
 Alpha  occ. eigenvalues --   -0.67163  -0.67031  -0.66874  -0.66039  -0.65614
 Alpha  occ. eigenvalues --   -0.65422  -0.64996  -0.64819  -0.64345  -0.63501
 Alpha  occ. eigenvalues --   -0.63250  -0.62910  -0.62709  -0.62388  -0.61711
 Alpha  occ. eigenvalues --   -0.61351  -0.60888  -0.60344  -0.60043  -0.59564
 Alpha  occ. eigenvalues --   -0.59222  -0.58924  -0.58604  -0.58566  -0.58113
 Alpha  occ. eigenvalues --   -0.57470  -0.57000  -0.56982  -0.56700  -0.56536
 Alpha  occ. eigenvalues --   -0.56067  -0.55448  -0.55389  -0.55185  -0.54595
 Alpha  occ. eigenvalues --   -0.54499  -0.54195  -0.54126  -0.53414  -0.52876
 Alpha  occ. eigenvalues --   -0.52855  -0.52377  -0.52334  -0.52046  -0.51682
 Alpha  occ. eigenvalues --   -0.51176  -0.50929  -0.50795  -0.50594  -0.50178
 Alpha  occ. eigenvalues --   -0.49960  -0.49687  -0.49374  -0.49325  -0.48914
 Alpha  occ. eigenvalues --   -0.48728  -0.48331  -0.48247  -0.48074  -0.47950
 Alpha  occ. eigenvalues --   -0.47737  -0.47149  -0.46860  -0.46704  -0.46435
 Alpha  occ. eigenvalues --   -0.46231  -0.46124  -0.45843  -0.45525  -0.45342
 Alpha  occ. eigenvalues --   -0.45262  -0.45083  -0.45031  -0.44416  -0.44070
 Alpha  occ. eigenvalues --   -0.43486  -0.43447  -0.43215  -0.42648  -0.42432
 Alpha  occ. eigenvalues --   -0.41931  -0.41878  -0.41355  -0.39113  -0.38479
 Alpha  occ. eigenvalues --   -0.37819  -0.37519  -0.35397  -0.35180  -0.34474
 Alpha  occ. eigenvalues --   -0.33266  -0.33146  -0.32704  -0.32551  -0.26546
 Alpha  occ. eigenvalues --   -0.22094
 Alpha virt. eigenvalues --   -0.08896  -0.02136  -0.00375   0.01552   0.01817
 Alpha virt. eigenvalues --    0.02702   0.02750   0.03402   0.04504   0.04664
 Alpha virt. eigenvalues --    0.05961   0.06287   0.07226   0.07346   0.08077

 Mulliken charges:
               1
     1  Mg   0.430820
     2  C   -0.024618
     3  C   -0.076325
     4  C   -0.061614
     5  C   -0.096489
     6  N   -0.279083
     7  C    0.114333
     8  C    0.007207
     9  C    0.006304
    10  C    0.122886
    11  C   -0.046747
    12  C   -0.020374
    13  C    0.003406
    14  C    0.479136
    15  O   -0.513647
    16  O   -0.262075
    17  N   -0.315088
    18  C    0.110762
    19  C    0.015141
    20  C   -0.049387
    21  C    0.138131
    22  C   -0.051283
    23  C    0.332295
    24  O   -0.530643
    25  C   -0.028082
    26  N   -0.276318
    27  C    0.142434
    28  C   -0.003191
    29  C    0.001111
    30  C    0.134279
    31  C   -0.050710
    32  C   -0.019324
    33  C   -0.057140
    34  N   -0.327124
    35  C    0.109008
    36  C    0.026567
    37  C   -0.039275
    38  C    0.111439
    39  C   -0.040360
    40  C    0.329951
    41  O   -0.507311
    42  C    0.055003
    43  C    0.505600
    44  O   -0.546849
    45  O   -0.279723
    46  C    0.068675
    47  C    0.094874
    48  C   -0.082811
    49  C    0.003171
    50  C   -0.051258
    51  C   -0.021542
    52  C   -0.027728
    53  C   -0.035622
    54  C   -0.007900
    55  C   -0.062624
    56  C   -0.043632
    57  C   -0.049889
    58  C   -0.030407
    59  C   -0.022805
    60  C   -0.059891
    61  C   -0.045375
    62  C   -0.043511
    63  C   -0.042441
    64  C   -0.025883
    65  C   -0.050608
    66  C   -0.065910
    67  H    0.024198
    68  H    0.033961
    69  H    0.033207
    70  H    0.028657
    71  H    0.027135
    72  H    0.018879
    73  H    0.011326
    74  H    0.030681
    75  H    0.027253
    76  H    0.034711
    77  H    0.032059
    78  H    0.045460
    79  H    0.020449
    80  H    0.022955
    81  H    0.031421
    82  H    0.035181
    83  H    0.035360
    84  H    0.040161
    85  H    0.028708
    86  H    0.033352
    87  H    0.022402
    88  H    0.028614
    89  H    0.026718
    90  H    0.028272
    91  H    0.014953
    92  H    0.014780
    93  H    0.020084
    94  H    0.021599
    95  H    0.022354
    96  H    0.044555
    97  H    0.033571
    98  H    0.055177
    99  H    0.043975
   100  H    0.049076
   101  H    0.042663
   102  H    0.065713
   103  H    0.032699
   104  H    0.020859
   105  H    0.027397
   106  H    0.025667
   107  H    0.015638
   108  H    0.026424
   109  H    0.011215
   110  H    0.030335
   111  H    0.019458
   112  H    0.018188
   113  H    0.026038
   114  H    0.017367
   115  H    0.025458
   116  H    0.022045
   117  H    0.028649
   118  H    0.012886
   119  H    0.020567
   120  H    0.020461
   121  H    0.008137
   122  H    0.014574
   123  H    0.016451
   124  H    0.021608
   125  H    0.018836
   126  H    0.025770
   127  H    0.017177
   128  H    0.023516
   129  H    0.035065
   130  H    0.031893
   131  H    0.018197
   132  H    0.019034
   133  H    0.023206
   134  H    0.013821
   135  H    0.016548
   136  H    0.015632
   137  H    0.014666
   138  H    0.016485
   139  H    0.027293
   140  H    0.021206
 Sum of Mulliken charges =  -0.00000

 Dipole moment (field-independent basis, Debye):
    X=             -3.7269    Y=              3.8748    Z=             -3.2706  Tot=              6.2929
 N-N= 4.227861726741D+03 E-N= 0.000000000000D+00  KE=-9.129708404336D+03
 Leave Link  601 at Sat Apr 30 20:20:22 2022, MaxMem=  6710886400 cpu:               0.8 elap:               0.1
 (Enter /sw/apps/gaussian-16.0/g16/l9999.exe)
 1\1\GINC-BP1-COMPUTE103\SP\RZINDO CIS\STO-3G\C55H74Mg1N4O6\OF15641\30-
 Apr-2022\0\\#p ZINDO=(nstates=5)\\step_851_chromophore_7 ZINDO\\0,1\Mg
 ,0,25.68,-0.758,28.866\C,0,27.402,-0.834,31.946\C,0,22.712,-0.708,30.6
 81\C,0,24.144,-0.751,25.99\C,0,28.781,-1.152,27.187\N,0,25.106,-0.665,
 31.106\C,0,25.977,-0.744,32.18\C,0,25.176,-0.624,33.5\C,0,23.725,-1.00
 5,33.031\C,0,23.817,-0.706,31.54\C,0,23.435,-2.453,33.396\C,0,25.317,0
 .727,34.246\C,0,24.728,0.763,35.701\C,0,25.57,1.583,36.634\O,0,26.014,

 Normal termination of Gaussian 16 at Sat Apr 30 20:20:22 2022.
