 Gaussian 16, Revision A.03,
 Gaussian 16:  ES64L-G16RevA.03 25-Dec-2016

 ------------------------------
 #p blyp/Def2SVP td=(nstates=5)
 ------------------------------

 ---------------------------------------------------
 step_1701_chromophore_20 TDDFT with blyp functional
 ---------------------------------------------------
 Symbolic Z-matrix:
 Charge =  0 Multiplicity = 1

                         Standard orientation:
 ---------------------------------------------------------------------
 Center     Atomic      Atomic             Coordinates (Angstroms)
 Number     Number       Type             X           Y           Z
 ---------------------------------------------------------------------
      1         12           0        3.968454    1.250775   -0.599711
      2          6           0        3.389336   -2.315231   -0.967235
      3          6           0        1.375213    1.840335   -2.524124
      4          6           0        4.314009    4.481208    0.303820
      5          6           0        6.841046    0.448724    1.254798
      6          7           0        2.468361   -0.185134   -1.497807
      7          6           0        2.363214   -1.521234   -1.476623
      8          6           0        1.238594   -1.901633   -2.488507
      9          6           0        0.844145   -0.498997   -3.176800
     10          6           0        1.687169    0.476388   -2.392310
     11          6           0        1.035235   -0.377090   -4.680981
     12          6           0       -0.100084   -2.643175   -1.872220
     13          6           0       -0.767981   -3.603115   -2.868919
     14          6           0       -1.678705   -4.771106   -2.352450
     15          8           0       -1.544603   -5.964587   -2.606288
     16          8           0       -2.497242   -4.376817   -1.306438
     17          7           0        2.869398    2.988584   -0.963155
     18          6           0        1.860821    3.008087   -1.822332
     19          6           0        1.434974    4.380334   -1.980771
     20          6           0        2.236220    5.207321   -1.090352
     21          6           0        3.201640    4.218439   -0.540964
     22          6           0        0.221154    4.937345   -2.827911
     23          6           0        1.952329    6.685853   -0.720592
     24          8           0        1.088384    7.270007   -1.353403
     25          6           0        2.594096    7.378889    0.453259
     26          7           0        5.186221    2.356921    0.749437
     27          6           0        5.252432    3.665754    0.977154
     28          6           0        6.401791    4.117746    1.841835
     29          6           0        7.112343    2.805385    2.203034
     30          6           0        6.371394    1.766098    1.369839
     31          6           0        7.308644    5.183731    1.143177
     32          6           0        7.266491    2.450764    3.700152
     33          6           0        8.722685    2.251478    4.155290
     34          7           0        4.995108   -0.532380    0.000178
     35          6           0        6.201202   -0.734094    0.677139
     36          6           0        6.623738   -2.060266    0.716163
     37          6           0        5.529434   -2.748454    0.127056
     38          6           0        4.576323   -1.793973   -0.316581
     39          6           0        7.909884   -2.626966    1.254324
     40          6           0        4.956519   -4.013419   -0.227035
     41          8           0        5.328889   -5.147520    0.086181
     42          6           0        3.711581   -3.754384   -1.128526
     43          6           0        2.649340   -4.709544   -0.748354
     44          8           0        2.027938   -4.688041    0.282408
     45          8           0        2.617931   -5.620097   -1.726067
     46          6           0        1.638131   -6.662602   -1.531176
     47          6           0       -3.647215   -5.294705   -1.115666
     48          6           0       -4.400529   -4.768275    0.104180
     49          6           0       -4.096050   -4.977675    1.384697
     50          6           0       -2.958092   -5.809225    1.815188
     51          6           0       -5.028015   -4.459022    2.426560
     52          6           0       -5.393737   -2.967843    2.312720
     53          6           0       -6.076066   -2.355213    3.599673
     54          6           0       -5.228925   -1.106335    4.114722
     55          6           0       -4.666972   -1.503474    5.399253
     56          6           0       -6.059923    0.196254    4.077857
     57          6           0       -6.350311    0.574630    2.615094
     58          6           0       -7.888262    0.621610    2.346139
     59          6           0       -8.268216    1.867983    1.409931
     60          6           0       -9.638794    2.414195    1.862960
     61          6           0       -8.377129    1.400674    0.001012
     62          6           0       -8.165222    2.626883   -1.068676
     63          6           0       -9.452683    2.848931   -1.822526
     64          6           0      -10.020712    4.328751   -1.703143
     65          6           0      -11.243068    4.326414   -0.762351
     66          6           0      -10.444404    5.009118   -3.079689
     67          1           0        0.610388    1.988132   -3.289125
     68          1           0        4.422373    5.520913    0.618127
     69          1           0        7.823405    0.298480    1.707972
     70          1           0        1.701198   -2.548064   -3.234509
     71          1           0       -0.187677   -0.237759   -2.942493
     72          1           0        1.380461   -1.282271   -5.181323
     73          1           0        1.765927    0.418857   -4.830053
     74          1           0        0.062283   -0.225963   -5.148428
     75          1           0       -0.825332   -1.887257   -1.570472
     76          1           0       -0.068975   -3.108092   -0.886807
     77          1           0        0.069380   -3.872626   -3.511718
     78          1           0       -1.414639   -3.081283   -3.574944
     79          1           0       -0.526379    5.331924   -2.140594
     80          1           0       -0.224897    4.153008   -3.440125
     81          1           0        0.566802    5.721073   -3.501305
     82          1           0        2.504481    6.846318    1.400323
     83          1           0        2.054254    8.292972    0.702373
     84          1           0        3.666608    7.557678    0.370229
     85          1           0        6.026644    4.549487    2.769935
     86          1           0        8.135730    2.840352    1.828827
     87          1           0        8.314038    4.773910    1.049777
     88          1           0        7.272468    6.012727    1.850263
     89          1           0        6.944162    5.547694    0.182486
     90          1           0        6.740845    1.501117    3.797601
     91          1           0        6.800729    3.226399    4.308580
     92          1           0        8.656115    1.608362    5.032307
     93          1           0        9.175344    3.148337    4.577325
     94          1           0        9.333437    1.816243    3.363964
     95          1           0        8.414915   -3.158506    0.448248
     96          1           0        7.674381   -3.442794    1.938422
     97          1           0        8.527834   -1.854159    1.711555
     98          1           0        4.121727   -3.887448   -2.130546
     99          1           0        2.175622   -7.420864   -0.963636
    100          1           0        1.366668   -7.038515   -2.517099
    101          1           0        0.731939   -6.478295   -0.953653
    102          1           0       -3.460101   -6.331956   -0.837004
    103          1           0       -4.237281   -5.259921   -2.031775
    104          1           0       -5.334077   -4.292306   -0.197964
    105          1           0       -2.389771   -6.289766    1.019858
    106          1           0       -3.391044   -6.594414    2.435998
    107          1           0       -2.245150   -5.149628    2.311277
    108          1           0       -4.753254   -4.709815    3.451350
    109          1           0       -5.939962   -4.970223    2.116479
    110          1           0       -6.118704   -2.756094    1.526589
    111          1           0       -4.457164   -2.451713    2.101132
    112          1           0       -6.525771   -2.937870    4.403845
    113          1           0       -7.002382   -1.937322    3.204962
    114          1           0       -4.318470   -0.819322    3.588777
    115          1           0       -5.436816   -1.838570    6.095394
    116          1           0       -4.149389   -0.635886    5.808881
    117          1           0       -3.901490   -2.277737    5.351563
    118          1           0       -5.489843    1.071133    4.390120
    119          1           0       -6.934812    0.084124    4.719399
    120          1           0       -5.904602   -0.073562    1.861001
    121          1           0       -5.954272    1.551553    2.337651
    122          1           0       -8.480666    0.694457    3.258087
    123          1           0       -8.194641   -0.265122    1.791829
    124          1           0       -7.549466    2.687159    1.406316
    125          1           0      -10.523521    1.924770    1.456076
    126          1           0       -9.687118    3.460159    1.560917
    127          1           0       -9.904540    2.329301    2.916401
    128          1           0       -9.375647    0.983131   -0.123457
    129          1           0       -7.572873    0.668004   -0.059817
    130          1           0       -7.260394    2.461484   -1.652163
    131          1           0       -7.919629    3.541731   -0.528026
    132          1           0      -10.292664    2.166570   -1.692426
    133          1           0       -9.202433    2.629267   -2.860528
    134          1           0       -9.227799    4.877080   -1.196331
    135          1           0      -12.009146    5.086532   -0.917982
    136          1           0      -11.027088    4.505016    0.290402
    137          1           0      -11.735101    3.359046   -0.865586
    138          1           0      -11.331752    5.626788   -2.941455
    139          1           0      -10.579069    4.231483   -3.831525
    140          1           0       -9.619958    5.579896   -3.506188
 ---------------------------------------------------------------------

 SCF Done:  E(RB-LYP) =  -3007.33524952     A.U. after   21 cycles

 Excitation energies and oscillator strengths:

 Excited State   1:      Singlet-A      1.6736 eV  740.84 nm  f=0.0154  <S**2>=0.000
     244 -> 247        0.54964
     245 -> 247        0.43957
 This state for optimization and/or second-order correction.
 Total Energy, E(TD-HF/TD-DFT) =  -3007.27374723
 Copying the excited state density for this state as the 1-particle RhoCI density.

 Excited State   2:      Singlet-A      1.8290 eV  677.87 nm  f=0.3047  <S**2>=0.000
     245 -> 247        0.13058
     245 -> 248        0.18847
     246 -> 247        0.67134
     246 <- 247       -0.14064

 Excited State   3:      Singlet-A      1.9850 eV  624.61 nm  f=0.0040  <S**2>=0.000
     243 -> 247        0.68841
     245 -> 247        0.10594

 Excited State   4:      Singlet-A      1.9977 eV  620.64 nm  f=0.0151  <S**2>=0.000
     242 -> 247        0.64826
     244 -> 247        0.17097
     245 -> 247       -0.19701

 Excited State   5:      Singlet-A      2.0057 eV  618.17 nm  f=0.0787  <S**2>=0.000
     242 -> 247        0.27897
     243 -> 247       -0.15529
     244 -> 247       -0.37449
     245 -> 247        0.43338
     246 -> 247       -0.14594
     246 -> 248       -0.18756

 The electronic state is 1-A.
 Alpha  occ. eigenvalues --  -46.28126 -18.81924 -18.81499 -18.76935 -18.76034
 Alpha  occ. eigenvalues --  -18.75953 -18.74884 -14.03567 -14.03405 -14.01429
 Alpha  occ. eigenvalues --  -14.00741 -10.04374 -10.02769 -10.00814  -9.98805
 Alpha  occ. eigenvalues --   -9.97366  -9.97012  -9.96963  -9.96856  -9.96766
 Alpha  occ. eigenvalues --   -9.96661  -9.96320  -9.96067  -9.95355  -9.95277
 Alpha  occ. eigenvalues --   -9.94601  -9.94481  -9.94350  -9.93995  -9.93954
 Alpha  occ. eigenvalues --   -9.93951  -9.93774  -9.93744  -9.93407  -9.93397
 Alpha  occ. eigenvalues --   -9.93391  -9.93291  -9.93255  -9.93013  -9.92929
 Alpha  occ. eigenvalues --   -9.92894  -9.92726  -9.92637  -9.92619  -9.92466
 Alpha  occ. eigenvalues --   -9.92231  -9.92183  -9.92139  -9.91740  -9.91612
 Alpha  occ. eigenvalues --   -9.91576  -9.91400  -9.91229  -9.91213  -9.91187
 Alpha  occ. eigenvalues --   -9.90911  -9.90900  -9.90898  -9.90864  -9.90803
 Alpha  occ. eigenvalues --   -9.90740  -9.90704  -9.90476  -9.90251  -9.90056
 Alpha  occ. eigenvalues --   -9.89873  -2.92568  -1.72998  -1.72456  -1.72272
 Alpha  occ. eigenvalues --   -0.98656  -0.97100  -0.92232  -0.90506  -0.89984
 Alpha  occ. eigenvalues --   -0.88979  -0.87348  -0.86426  -0.85610  -0.84888
 Alpha  occ. eigenvalues --   -0.75620  -0.73945  -0.73398  -0.72979  -0.72382
 Alpha  occ. eigenvalues --   -0.72059  -0.71466  -0.70957  -0.70302  -0.70030
 Alpha  occ. eigenvalues --   -0.69155  -0.68647  -0.67986  -0.67603  -0.67150
 Alpha  occ. eigenvalues --   -0.66229  -0.66073  -0.65385  -0.64807  -0.64606
 Alpha  occ. eigenvalues --   -0.64309  -0.62423  -0.62124  -0.61396  -0.60549
 Alpha  occ. eigenvalues --   -0.60440  -0.59954  -0.59686  -0.59231  -0.58554
 Alpha  occ. eigenvalues --   -0.58422  -0.57095  -0.56729  -0.55505  -0.55042
 Alpha  occ. eigenvalues --   -0.54107  -0.53344  -0.53154  -0.52413  -0.52047
 Alpha  occ. eigenvalues --   -0.51554  -0.51163  -0.51031  -0.50192  -0.50048
 Alpha  occ. eigenvalues --   -0.49766  -0.49109  -0.48556  -0.48503  -0.46895
 Alpha  occ. eigenvalues --   -0.46054  -0.45546  -0.45544  -0.44862  -0.44650
 Alpha  occ. eigenvalues --   -0.44355  -0.43508  -0.43339  -0.42715  -0.42638
 Alpha  occ. eigenvalues --   -0.42270  -0.41903  -0.41682  -0.41121  -0.40910
 Alpha  occ. eigenvalues --   -0.40687  -0.40602  -0.40471  -0.40234  -0.39998
 Alpha  occ. eigenvalues --   -0.39905  -0.39659  -0.39616  -0.39210  -0.38987
 Alpha  occ. eigenvalues --   -0.38779  -0.38580  -0.38387  -0.38345  -0.37858
 Alpha  occ. eigenvalues --   -0.37812  -0.37744  -0.37680  -0.37518  -0.37258
 Alpha  occ. eigenvalues --   -0.36839  -0.36822  -0.36588  -0.36456  -0.36314
 Alpha  occ. eigenvalues --   -0.36231  -0.35894  -0.35710  -0.35665  -0.35501
 Alpha  occ. eigenvalues --   -0.35483  -0.35041  -0.34774  -0.34673  -0.34304
 Alpha  occ. eigenvalues --   -0.34221  -0.33996  -0.33947  -0.33824  -0.33646
 Alpha  occ. eigenvalues --   -0.33582  -0.33393  -0.33261  -0.33073  -0.32938
 Alpha  occ. eigenvalues --   -0.32865  -0.32766  -0.32549  -0.32328  -0.32249
 Alpha  occ. eigenvalues --   -0.31988  -0.31939  -0.31782  -0.31364  -0.31318
 Alpha  occ. eigenvalues --   -0.31263  -0.31041  -0.30904  -0.30594  -0.30511
 Alpha  occ. eigenvalues --   -0.30453  -0.30329  -0.30098  -0.29927  -0.29833
 Alpha  occ. eigenvalues --   -0.29748  -0.29550  -0.29224  -0.29217  -0.29133
 Alpha  occ. eigenvalues --   -0.28968  -0.28758  -0.28255  -0.27960  -0.27875
 Alpha  occ. eigenvalues --   -0.27595  -0.27408  -0.26640  -0.26597  -0.26458
 Alpha  occ. eigenvalues --   -0.26396  -0.25915  -0.25823  -0.25633  -0.24894
 Alpha  occ. eigenvalues --   -0.24671  -0.24343  -0.23928  -0.23803  -0.23599
 Alpha  occ. eigenvalues --   -0.22458  -0.22296  -0.21743  -0.21506  -0.20784
 Alpha  occ. eigenvalues --   -0.20120  -0.19399  -0.19264  -0.18347  -0.17190
 Alpha  occ. eigenvalues --   -0.16447
 Alpha virt. eigenvalues --   -0.12054  -0.06835  -0.06333  -0.04567  -0.03814
 Alpha virt. eigenvalues --   -0.02868  -0.01844  -0.01786  -0.01162  -0.00367
 Alpha virt. eigenvalues --    0.00759   0.01405   0.02199   0.02542   0.02938

 Mulliken charges:
               1
     1  Mg   0.672862
     2  C    0.057254
     3  C   -0.039637
     4  C   -0.048543
     5  C   -0.074455
     6  N   -0.192402
     7  C   -0.060415
     8  C   -0.001851
     9  C   -0.023985
    10  C   -0.007180
    11  C    0.137176
    12  C    0.106965
    13  C    0.115670
    14  C    0.105487
    15  O   -0.194855
    16  O   -0.283645
    17  N   -0.242649
    18  C    0.141312
    19  C   -0.164772
    20  C    0.021172
    21  C    0.106230
    22  C    0.185495
    23  C   -0.041280
    24  O   -0.160086
    25  C    0.110966
    26  N   -0.241528
    27  C   -0.019747
    28  C    0.056926
    29  C    0.008754
    30  C    0.042504
    31  C    0.127876
    32  C    0.109389
    33  C    0.053117
    34  N   -0.249083
    35  C    0.098090
    36  C   -0.170919
    37  C    0.122591
    38  C    0.019249
    39  C    0.195910
    40  C   -0.102693
    41  O   -0.151717
    42  C    0.090550
    43  C    0.094489
    44  O   -0.165120
    45  O   -0.237844
    46  C    0.211035
    47  C    0.306491
    48  C   -0.134266
    49  C   -0.134359
    50  C    0.159682
    51  C    0.172785
    52  C    0.046877
    53  C    0.120382
    54  C   -0.084389
    55  C    0.132831
    56  C    0.123360
    57  C    0.067620
    58  C    0.083402
    59  C   -0.104159
    60  C    0.087540
    61  C    0.111932
    62  C    0.082038
    63  C    0.109321
    64  C   -0.090030
    65  C    0.083900
    66  C    0.104670
    67  H   -0.055572
    68  H   -0.097885
    69  H   -0.069731
    70  H   -0.017808
    71  H   -0.014160
    72  H   -0.013814
    73  H    0.001915
    74  H   -0.008820
    75  H   -0.032184
    76  H    0.006074
    77  H   -0.019462
    78  H   -0.010638
    79  H    0.014500
    80  H   -0.030891
    81  H    0.008181
    82  H    0.001789
    83  H   -0.008680
    84  H    0.026687
    85  H   -0.023349
    86  H   -0.030458
    87  H   -0.003010
    88  H   -0.007863
    89  H    0.004067
    90  H   -0.013059
    91  H   -0.024768
    92  H   -0.010192
    93  H   -0.008669
    94  H    0.005314
    95  H    0.002498
    96  H    0.008154
    97  H   -0.012216
    98  H    0.005909
    99  H    0.003001
   100  H    0.018730
   101  H    0.024865
   102  H    0.009975
   103  H   -0.020715
   104  H   -0.047956
   105  H   -0.010192
   106  H    0.002641
   107  H    0.010531
   108  H   -0.031973
   109  H   -0.020180
   110  H   -0.013307
   111  H   -0.011769
   112  H   -0.033635
   113  H   -0.057789
   114  H   -0.035416
   115  H   -0.030605
   116  H   -0.038794
   117  H   -0.022975
   118  H   -0.041018
   119  H   -0.026005
   120  H   -0.027817
   121  H   -0.036442
   122  H   -0.032915
   123  H   -0.025023
   124  H   -0.029876
   125  H   -0.028383
   126  H   -0.011018
   127  H   -0.027630
   128  H   -0.024993
   129  H   -0.039610
   130  H   -0.029106
   131  H   -0.030407
   132  H   -0.030538
   133  H   -0.045640
   134  H   -0.033542
   135  H   -0.029559
   136  H   -0.017011
   137  H   -0.018505
   138  H   -0.006889
   139  H   -0.017964
   140  H   -0.018700
 Sum of Mulliken charges =  -0.00000

 Dipole moment (field-independent basis, Debye):
    X=              1.1527    Y=              3.8162    Z=              0.2427  Tot=              3.9939
 Quadrupole moment (field-independent basis, Debye-Ang):
   XX=           -369.7223   YY=           -444.5546   ZZ=           -393.6019
   XY=             45.8574   XZ=              6.8136   YZ=             15.8328

 Normal termination of Gaussian 16 at Thu Apr 28 20:04:06 2022.
