 Gaussian 16, Revision A.03,
 Gaussian 16:  ES64L-G16RevA.03 25-Dec-2016

 -----------------------------------
 #p cam-b3lyp/Def2SVP td=(nstates=5)
 -----------------------------------

 --------------------------------------------------------
 step_1701_chromophore_20 TDDFT with cam-b3lyp functional
 --------------------------------------------------------
 Symbolic Z-matrix:
 Charge =  0 Multiplicity = 1

                         Standard orientation:
 ---------------------------------------------------------------------
 Center     Atomic      Atomic             Coordinates (Angstroms)
 Number     Number       Type             X           Y           Z
 ---------------------------------------------------------------------
      1         12           0        3.968454    1.250775   -0.599711
      2          6           0        3.389336   -2.315231   -0.967235
      3          6           0        1.375213    1.840335   -2.524124
      4          6           0        4.314009    4.481208    0.303820
      5          6           0        6.841046    0.448724    1.254798
      6          7           0        2.468361   -0.185134   -1.497807
      7          6           0        2.363214   -1.521234   -1.476623
      8          6           0        1.238594   -1.901633   -2.488507
      9          6           0        0.844145   -0.498997   -3.176800
     10          6           0        1.687169    0.476388   -2.392310
     11          6           0        1.035235   -0.377090   -4.680981
     12          6           0       -0.100084   -2.643175   -1.872220
     13          6           0       -0.767981   -3.603115   -2.868919
     14          6           0       -1.678705   -4.771106   -2.352450
     15          8           0       -1.544603   -5.964587   -2.606288
     16          8           0       -2.497242   -4.376817   -1.306438
     17          7           0        2.869398    2.988584   -0.963155
     18          6           0        1.860821    3.008087   -1.822332
     19          6           0        1.434974    4.380334   -1.980771
     20          6           0        2.236220    5.207321   -1.090352
     21          6           0        3.201640    4.218439   -0.540964
     22          6           0        0.221154    4.937345   -2.827911
     23          6           0        1.952329    6.685853   -0.720592
     24          8           0        1.088384    7.270007   -1.353403
     25          6           0        2.594096    7.378889    0.453259
     26          7           0        5.186221    2.356921    0.749437
     27          6           0        5.252432    3.665754    0.977154
     28          6           0        6.401791    4.117746    1.841835
     29          6           0        7.112343    2.805385    2.203034
     30          6           0        6.371394    1.766098    1.369839
     31          6           0        7.308644    5.183731    1.143177
     32          6           0        7.266491    2.450764    3.700152
     33          6           0        8.722685    2.251478    4.155290
     34          7           0        4.995108   -0.532380    0.000178
     35          6           0        6.201202   -0.734094    0.677139
     36          6           0        6.623738   -2.060266    0.716163
     37          6           0        5.529434   -2.748454    0.127056
     38          6           0        4.576323   -1.793973   -0.316581
     39          6           0        7.909884   -2.626966    1.254324
     40          6           0        4.956519   -4.013419   -0.227035
     41          8           0        5.328889   -5.147520    0.086181
     42          6           0        3.711581   -3.754384   -1.128526
     43          6           0        2.649340   -4.709544   -0.748354
     44          8           0        2.027938   -4.688041    0.282408
     45          8           0        2.617931   -5.620097   -1.726067
     46          6           0        1.638131   -6.662602   -1.531176
     47          6           0       -3.647215   -5.294705   -1.115666
     48          6           0       -4.400529   -4.768275    0.104180
     49          6           0       -4.096050   -4.977675    1.384697
     50          6           0       -2.958092   -5.809225    1.815188
     51          6           0       -5.028015   -4.459022    2.426560
     52          6           0       -5.393737   -2.967843    2.312720
     53          6           0       -6.076066   -2.355213    3.599673
     54          6           0       -5.228925   -1.106335    4.114722
     55          6           0       -4.666972   -1.503474    5.399253
     56          6           0       -6.059923    0.196254    4.077857
     57          6           0       -6.350311    0.574630    2.615094
     58          6           0       -7.888262    0.621610    2.346139
     59          6           0       -8.268216    1.867983    1.409931
     60          6           0       -9.638794    2.414195    1.862960
     61          6           0       -8.377129    1.400674    0.001012
     62          6           0       -8.165222    2.626883   -1.068676
     63          6           0       -9.452683    2.848931   -1.822526
     64          6           0      -10.020712    4.328751   -1.703143
     65          6           0      -11.243068    4.326414   -0.762351
     66          6           0      -10.444404    5.009118   -3.079689
     67          1           0        0.610388    1.988132   -3.289125
     68          1           0        4.422373    5.520913    0.618127
     69          1           0        7.823405    0.298480    1.707972
     70          1           0        1.701198   -2.548064   -3.234509
     71          1           0       -0.187677   -0.237759   -2.942493
     72          1           0        1.380461   -1.282271   -5.181323
     73          1           0        1.765927    0.418857   -4.830053
     74          1           0        0.062283   -0.225963   -5.148428
     75          1           0       -0.825332   -1.887257   -1.570472
     76          1           0       -0.068975   -3.108092   -0.886807
     77          1           0        0.069380   -3.872626   -3.511718
     78          1           0       -1.414639   -3.081283   -3.574944
     79          1           0       -0.526379    5.331924   -2.140594
     80          1           0       -0.224897    4.153008   -3.440125
     81          1           0        0.566802    5.721073   -3.501305
     82          1           0        2.504481    6.846318    1.400323
     83          1           0        2.054254    8.292972    0.702373
     84          1           0        3.666608    7.557678    0.370229
     85          1           0        6.026644    4.549487    2.769935
     86          1           0        8.135730    2.840352    1.828827
     87          1           0        8.314038    4.773910    1.049777
     88          1           0        7.272468    6.012727    1.850263
     89          1           0        6.944162    5.547694    0.182486
     90          1           0        6.740845    1.501117    3.797601
     91          1           0        6.800729    3.226399    4.308580
     92          1           0        8.656115    1.608362    5.032307
     93          1           0        9.175344    3.148337    4.577325
     94          1           0        9.333437    1.816243    3.363964
     95          1           0        8.414915   -3.158506    0.448248
     96          1           0        7.674381   -3.442794    1.938422
     97          1           0        8.527834   -1.854159    1.711555
     98          1           0        4.121727   -3.887448   -2.130546
     99          1           0        2.175622   -7.420864   -0.963636
    100          1           0        1.366668   -7.038515   -2.517099
    101          1           0        0.731939   -6.478295   -0.953653
    102          1           0       -3.460101   -6.331956   -0.837004
    103          1           0       -4.237281   -5.259921   -2.031775
    104          1           0       -5.334077   -4.292306   -0.197964
    105          1           0       -2.389771   -6.289766    1.019858
    106          1           0       -3.391044   -6.594414    2.435998
    107          1           0       -2.245150   -5.149628    2.311277
    108          1           0       -4.753254   -4.709815    3.451350
    109          1           0       -5.939962   -4.970223    2.116479
    110          1           0       -6.118704   -2.756094    1.526589
    111          1           0       -4.457164   -2.451713    2.101132
    112          1           0       -6.525771   -2.937870    4.403845
    113          1           0       -7.002382   -1.937322    3.204962
    114          1           0       -4.318470   -0.819322    3.588777
    115          1           0       -5.436816   -1.838570    6.095394
    116          1           0       -4.149389   -0.635886    5.808881
    117          1           0       -3.901490   -2.277737    5.351563
    118          1           0       -5.489843    1.071133    4.390120
    119          1           0       -6.934812    0.084124    4.719399
    120          1           0       -5.904602   -0.073562    1.861001
    121          1           0       -5.954272    1.551553    2.337651
    122          1           0       -8.480666    0.694457    3.258087
    123          1           0       -8.194641   -0.265122    1.791829
    124          1           0       -7.549466    2.687159    1.406316
    125          1           0      -10.523521    1.924770    1.456076
    126          1           0       -9.687118    3.460159    1.560917
    127          1           0       -9.904540    2.329301    2.916401
    128          1           0       -9.375647    0.983131   -0.123457
    129          1           0       -7.572873    0.668004   -0.059817
    130          1           0       -7.260394    2.461484   -1.652163
    131          1           0       -7.919629    3.541731   -0.528026
    132          1           0      -10.292664    2.166570   -1.692426
    133          1           0       -9.202433    2.629267   -2.860528
    134          1           0       -9.227799    4.877080   -1.196331
    135          1           0      -12.009146    5.086532   -0.917982
    136          1           0      -11.027088    4.505016    0.290402
    137          1           0      -11.735101    3.359046   -0.865586
    138          1           0      -11.331752    5.626788   -2.941455
    139          1           0      -10.579069    4.231483   -3.831525
    140          1           0       -9.619958    5.579896   -3.506188
 ---------------------------------------------------------------------

 SCF Done:  E(RCAM-B3LYP) =  -3007.12726165     A.U. after   17 cycles

 Excitation energies and oscillator strengths:

 Excited State   1:      Singlet-A      1.7833 eV  695.24 nm  f=0.3907  <S**2>=0.000
     245 -> 248       -0.16999
     246 -> 247        0.68474
     245 <- 248       -0.10048
 This state for optimization and/or second-order correction.
 Total Energy, E(TD-HF/TD-DFT) =  -3007.06172576
 Copying the excited state density for this state as the 1-particle RhoCI density.

 Excited State   2:      Singlet-A      2.1586 eV  574.38 nm  f=0.1697  <S**2>=0.000
     245 -> 247        0.66101
     246 -> 248        0.22995

 Excited State   3:      Singlet-A      3.2176 eV  385.33 nm  f=0.0041  <S**2>=0.000
     241 -> 247       -0.21627
     244 -> 247        0.65057

 Excited State   4:      Singlet-A      3.3734 eV  367.54 nm  f=0.0134  <S**2>=0.000
     241 -> 247        0.64936
     244 -> 247        0.21192
     246 -> 248       -0.10743

 Excited State   5:      Singlet-A      3.4122 eV  363.36 nm  f=0.0070  <S**2>=0.000
     242 -> 247        0.59201
     242 -> 249        0.20296
     242 -> 251       -0.21124

 The electronic state is 1-A.
 Alpha  occ. eigenvalues --  -46.89787 -19.24645 -19.24349 -19.19916 -19.19768
 Alpha  occ. eigenvalues --  -19.18794 -19.17448 -14.42528 -14.42339 -14.40199
 Alpha  occ. eigenvalues --  -14.38868 -10.39693 -10.37904 -10.36480 -10.33605
 Alpha  occ. eigenvalues --  -10.31968 -10.31826 -10.31737 -10.31459 -10.31399
 Alpha  occ. eigenvalues --  -10.31118 -10.30906 -10.29830 -10.29731 -10.29419
 Alpha  occ. eigenvalues --  -10.28891 -10.28668 -10.28374 -10.28303 -10.28195
 Alpha  occ. eigenvalues --  -10.28191 -10.28068 -10.27975 -10.27555 -10.27331
 Alpha  occ. eigenvalues --  -10.27291 -10.27219 -10.27116 -10.27037 -10.27012
 Alpha  occ. eigenvalues --  -10.26930 -10.26621 -10.26576 -10.26461 -10.26231
 Alpha  occ. eigenvalues --  -10.26041 -10.26013 -10.25855 -10.25389 -10.25157
 Alpha  occ. eigenvalues --  -10.25156 -10.25109 -10.24923 -10.24901 -10.24843
 Alpha  occ. eigenvalues --  -10.24572 -10.24569 -10.24565 -10.24537 -10.24483
 Alpha  occ. eigenvalues --  -10.24432 -10.24312 -10.24250 -10.23910 -10.23710
 Alpha  occ. eigenvalues --  -10.23379  -3.18124  -1.93034  -1.92584  -1.92415
 Alpha  occ. eigenvalues --   -1.17032  -1.15522  -1.11129  -1.08324  -1.07787
 Alpha  occ. eigenvalues --   -1.06771  -1.05532  -1.04180  -1.03294  -1.02035
 Alpha  occ. eigenvalues --   -0.92498  -0.90797  -0.90117  -0.89804  -0.89174
 Alpha  occ. eigenvalues --   -0.88783  -0.88256  -0.87564  -0.86891  -0.86096
 Alpha  occ. eigenvalues --   -0.85791  -0.85600  -0.84159  -0.83709  -0.83323
 Alpha  occ. eigenvalues --   -0.82391  -0.82252  -0.81392  -0.80592  -0.80405
 Alpha  occ. eigenvalues --   -0.80104  -0.77883  -0.77662  -0.77180  -0.75897
 Alpha  occ. eigenvalues --   -0.75802  -0.75294  -0.75079  -0.74551  -0.73660
 Alpha  occ. eigenvalues --   -0.73498  -0.72061  -0.71635  -0.70334  -0.69622
 Alpha  occ. eigenvalues --   -0.68686  -0.67916  -0.67908  -0.66767  -0.66249
 Alpha  occ. eigenvalues --   -0.65612  -0.65401  -0.65118  -0.64177  -0.64061
 Alpha  occ. eigenvalues --   -0.63514  -0.63043  -0.62438  -0.62174  -0.60700
 Alpha  occ. eigenvalues --   -0.59691  -0.59218  -0.59025  -0.58262  -0.58022
 Alpha  occ. eigenvalues --   -0.57762  -0.56943  -0.56560  -0.55904  -0.55612
 Alpha  occ. eigenvalues --   -0.55391  -0.54738  -0.54401  -0.53966  -0.53813
 Alpha  occ. eigenvalues --   -0.53418  -0.53379  -0.53261  -0.53098  -0.52850
 Alpha  occ. eigenvalues --   -0.52695  -0.52523  -0.52195  -0.52144  -0.51568
 Alpha  occ. eigenvalues --   -0.51560  -0.51058  -0.50778  -0.50695  -0.50493
 Alpha  occ. eigenvalues --   -0.50359  -0.50077  -0.49969  -0.49909  -0.49759
 Alpha  occ. eigenvalues --   -0.49558  -0.49078  -0.48984  -0.48602  -0.48529
 Alpha  occ. eigenvalues --   -0.48377  -0.48211  -0.47940  -0.47725  -0.47678
 Alpha  occ. eigenvalues --   -0.47357  -0.47317  -0.46961  -0.46550  -0.46464
 Alpha  occ. eigenvalues --   -0.46098  -0.45931  -0.45656  -0.45587  -0.45566
 Alpha  occ. eigenvalues --   -0.45132  -0.45009  -0.44965  -0.44690  -0.44583
 Alpha  occ. eigenvalues --   -0.44504  -0.44420  -0.44301  -0.43898  -0.43889
 Alpha  occ. eigenvalues --   -0.43858  -0.43492  -0.43263  -0.42972  -0.42812
 Alpha  occ. eigenvalues --   -0.42741  -0.42660  -0.42538  -0.42139  -0.41954
 Alpha  occ. eigenvalues --   -0.41731  -0.41692  -0.41669  -0.41237  -0.41122
 Alpha  occ. eigenvalues --   -0.40961  -0.40844  -0.40465  -0.40335  -0.40197
 Alpha  occ. eigenvalues --   -0.40065  -0.39847  -0.39294  -0.39097  -0.38881
 Alpha  occ. eigenvalues --   -0.38489  -0.38295  -0.37995  -0.37467  -0.37246
 Alpha  occ. eigenvalues --   -0.37156  -0.36750  -0.36663  -0.36342  -0.36040
 Alpha  occ. eigenvalues --   -0.35663  -0.35518  -0.34603  -0.34385  -0.34004
 Alpha  occ. eigenvalues --   -0.33692  -0.32876  -0.32701  -0.32105  -0.31374
 Alpha  occ. eigenvalues --   -0.30680  -0.29782  -0.29092  -0.28881  -0.24039
 Alpha  occ. eigenvalues --   -0.22008
 Alpha virt. eigenvalues --   -0.09308  -0.01567   0.00156   0.02033   0.02589
 Alpha virt. eigenvalues --    0.04193   0.05042   0.05729   0.06452   0.06856
 Alpha virt. eigenvalues --    0.07309   0.08354   0.08495   0.08641   0.09121

 Mulliken charges:
               1
     1  Mg   0.805596
     2  C    0.039637
     3  C   -0.057045
     4  C   -0.074663
     5  C   -0.075191
     6  N   -0.263165
     7  C   -0.011401
     8  C   -0.052600
     9  C   -0.079928
    10  C    0.019223
    11  C    0.074411
    12  C    0.054034
    13  C    0.054044
    14  C    0.180259
    15  O   -0.234749
    16  O   -0.344783
    17  N   -0.337341
    18  C    0.152737
    19  C   -0.168461
    20  C   -0.040149
    21  C    0.141752
    22  C    0.137541
    23  C    0.032308
    24  O   -0.196838
    25  C    0.028630
    26  N   -0.313125
    27  C    0.014106
    28  C   -0.001030
    29  C   -0.043855
    30  C    0.052776
    31  C    0.068307
    32  C    0.050023
    33  C   -0.007281
    34  N   -0.334646
    35  C    0.094826
    36  C   -0.171889
    37  C    0.043305
    38  C    0.045386
    39  C    0.148212
    40  C   -0.000285
    41  O   -0.195779
    42  C    0.005893
    43  C    0.178448
    44  O   -0.202963
    45  O   -0.299373
    46  C    0.169362
    47  C    0.273136
    48  C   -0.157446
    49  C   -0.153028
    50  C    0.096685
    51  C    0.111706
    52  C   -0.001064
    53  C    0.057883
    54  C   -0.141556
    55  C    0.077027
    56  C    0.069332
    57  C    0.016489
    58  C    0.030845
    59  C   -0.155987
    60  C    0.032715
    61  C    0.059173
    62  C    0.029804
    63  C    0.048990
    64  C   -0.149008
    65  C    0.026720
    66  C    0.048000
    67  H   -0.020555
    68  H   -0.064025
    69  H   -0.037240
    70  H    0.014347
    71  H    0.020765
    72  H    0.013486
    73  H    0.028070
    74  H    0.016065
    75  H   -0.000720
    76  H    0.038672
    77  H    0.012326
    78  H    0.017742
    79  H    0.042667
    80  H   -0.003438
    81  H    0.037387
    82  H    0.032565
    83  H    0.028314
    84  H    0.052972
    85  H    0.013097
    86  H    0.004591
    87  H    0.022922
    88  H    0.016226
    89  H    0.029372
    90  H    0.019517
    91  H    0.002370
    92  H    0.015166
    93  H    0.014417
    94  H    0.024764
    95  H    0.026654
    96  H    0.032847
    97  H    0.008518
    98  H    0.049313
    99  H    0.027881
   100  H    0.041509
   101  H    0.046675
   102  H    0.037430
   103  H    0.009051
   104  H   -0.014921
   105  H    0.014712
   106  H    0.025680
   107  H    0.035275
   108  H   -0.001545
   109  H    0.010632
   110  H    0.009951
   111  H    0.016114
   112  H   -0.002519
   113  H   -0.028057
   114  H   -0.004578
   115  H   -0.007479
   116  H   -0.012950
   117  H    0.002603
   118  H   -0.010272
   119  H    0.000908
   120  H   -0.001714
   121  H   -0.007009
   122  H   -0.004630
   123  H    0.000954
   124  H   -0.000109
   125  H   -0.004975
   126  H    0.008884
   127  H   -0.001544
   128  H    0.001762
   129  H   -0.010474
   130  H    0.000769
   131  H   -0.004953
   132  H   -0.002265
   133  H   -0.014420
   134  H   -0.002699
   135  H   -0.003278
   136  H    0.005880
   137  H    0.003084
   138  H    0.016153
   139  H    0.004961
   140  H    0.005660
 Sum of Mulliken charges =  -0.00000

 Dipole moment (field-independent basis, Debye):
    X=              0.4831    Y=              5.4422    Z=             -0.1963  Tot=              5.4671
 Quadrupole moment (field-independent basis, Debye-Ang):
   XX=           -372.4987   YY=           -440.1821   ZZ=           -391.4139
   XY=             51.8905   XZ=              7.1729   YZ=             16.6498

 Normal termination of Gaussian 16 at Thu Apr 28 19:05:18 2022.
