 Gaussian 16, Revision A.03,
 Gaussian 16:  ES64L-G16RevA.03 25-Dec-2016

 ---------------------------------
 #p PBE1PBE/Def2SVP td=(nstates=5)
 ---------------------------------

 ------------------------------------------------------
 step_1701_chromophore_20 TDDFT with PBE1PBE functional
 ------------------------------------------------------
 Symbolic Z-matrix:
 Charge =  0 Multiplicity = 1

                         Standard orientation:
 ---------------------------------------------------------------------
 Center     Atomic      Atomic             Coordinates (Angstroms)
 Number     Number       Type             X           Y           Z
 ---------------------------------------------------------------------
      1         12           0        3.968454    1.250775   -0.599711
      2          6           0        3.389336   -2.315231   -0.967235
      3          6           0        1.375213    1.840335   -2.524124
      4          6           0        4.314009    4.481208    0.303820
      5          6           0        6.841046    0.448724    1.254798
      6          7           0        2.468361   -0.185134   -1.497807
      7          6           0        2.363214   -1.521234   -1.476623
      8          6           0        1.238594   -1.901633   -2.488507
      9          6           0        0.844145   -0.498997   -3.176800
     10          6           0        1.687169    0.476388   -2.392310
     11          6           0        1.035235   -0.377090   -4.680981
     12          6           0       -0.100084   -2.643175   -1.872220
     13          6           0       -0.767981   -3.603115   -2.868919
     14          6           0       -1.678705   -4.771106   -2.352450
     15          8           0       -1.544603   -5.964587   -2.606288
     16          8           0       -2.497242   -4.376817   -1.306438
     17          7           0        2.869398    2.988584   -0.963155
     18          6           0        1.860821    3.008087   -1.822332
     19          6           0        1.434974    4.380334   -1.980771
     20          6           0        2.236220    5.207321   -1.090352
     21          6           0        3.201640    4.218439   -0.540964
     22          6           0        0.221154    4.937345   -2.827911
     23          6           0        1.952329    6.685853   -0.720592
     24          8           0        1.088384    7.270007   -1.353403
     25          6           0        2.594096    7.378889    0.453259
     26          7           0        5.186221    2.356921    0.749437
     27          6           0        5.252432    3.665754    0.977154
     28          6           0        6.401791    4.117746    1.841835
     29          6           0        7.112343    2.805385    2.203034
     30          6           0        6.371394    1.766098    1.369839
     31          6           0        7.308644    5.183731    1.143177
     32          6           0        7.266491    2.450764    3.700152
     33          6           0        8.722685    2.251478    4.155290
     34          7           0        4.995108   -0.532380    0.000178
     35          6           0        6.201202   -0.734094    0.677139
     36          6           0        6.623738   -2.060266    0.716163
     37          6           0        5.529434   -2.748454    0.127056
     38          6           0        4.576323   -1.793973   -0.316581
     39          6           0        7.909884   -2.626966    1.254324
     40          6           0        4.956519   -4.013419   -0.227035
     41          8           0        5.328889   -5.147520    0.086181
     42          6           0        3.711581   -3.754384   -1.128526
     43          6           0        2.649340   -4.709544   -0.748354
     44          8           0        2.027938   -4.688041    0.282408
     45          8           0        2.617931   -5.620097   -1.726067
     46          6           0        1.638131   -6.662602   -1.531176
     47          6           0       -3.647215   -5.294705   -1.115666
     48          6           0       -4.400529   -4.768275    0.104180
     49          6           0       -4.096050   -4.977675    1.384697
     50          6           0       -2.958092   -5.809225    1.815188
     51          6           0       -5.028015   -4.459022    2.426560
     52          6           0       -5.393737   -2.967843    2.312720
     53          6           0       -6.076066   -2.355213    3.599673
     54          6           0       -5.228925   -1.106335    4.114722
     55          6           0       -4.666972   -1.503474    5.399253
     56          6           0       -6.059923    0.196254    4.077857
     57          6           0       -6.350311    0.574630    2.615094
     58          6           0       -7.888262    0.621610    2.346139
     59          6           0       -8.268216    1.867983    1.409931
     60          6           0       -9.638794    2.414195    1.862960
     61          6           0       -8.377129    1.400674    0.001012
     62          6           0       -8.165222    2.626883   -1.068676
     63          6           0       -9.452683    2.848931   -1.822526
     64          6           0      -10.020712    4.328751   -1.703143
     65          6           0      -11.243068    4.326414   -0.762351
     66          6           0      -10.444404    5.009118   -3.079689
     67          1           0        0.610388    1.988132   -3.289125
     68          1           0        4.422373    5.520913    0.618127
     69          1           0        7.823405    0.298480    1.707972
     70          1           0        1.701198   -2.548064   -3.234509
     71          1           0       -0.187677   -0.237759   -2.942493
     72          1           0        1.380461   -1.282271   -5.181323
     73          1           0        1.765927    0.418857   -4.830053
     74          1           0        0.062283   -0.225963   -5.148428
     75          1           0       -0.825332   -1.887257   -1.570472
     76          1           0       -0.068975   -3.108092   -0.886807
     77          1           0        0.069380   -3.872626   -3.511718
     78          1           0       -1.414639   -3.081283   -3.574944
     79          1           0       -0.526379    5.331924   -2.140594
     80          1           0       -0.224897    4.153008   -3.440125
     81          1           0        0.566802    5.721073   -3.501305
     82          1           0        2.504481    6.846318    1.400323
     83          1           0        2.054254    8.292972    0.702373
     84          1           0        3.666608    7.557678    0.370229
     85          1           0        6.026644    4.549487    2.769935
     86          1           0        8.135730    2.840352    1.828827
     87          1           0        8.314038    4.773910    1.049777
     88          1           0        7.272468    6.012727    1.850263
     89          1           0        6.944162    5.547694    0.182486
     90          1           0        6.740845    1.501117    3.797601
     91          1           0        6.800729    3.226399    4.308580
     92          1           0        8.656115    1.608362    5.032307
     93          1           0        9.175344    3.148337    4.577325
     94          1           0        9.333437    1.816243    3.363964
     95          1           0        8.414915   -3.158506    0.448248
     96          1           0        7.674381   -3.442794    1.938422
     97          1           0        8.527834   -1.854159    1.711555
     98          1           0        4.121727   -3.887448   -2.130546
     99          1           0        2.175622   -7.420864   -0.963636
    100          1           0        1.366668   -7.038515   -2.517099
    101          1           0        0.731939   -6.478295   -0.953653
    102          1           0       -3.460101   -6.331956   -0.837004
    103          1           0       -4.237281   -5.259921   -2.031775
    104          1           0       -5.334077   -4.292306   -0.197964
    105          1           0       -2.389771   -6.289766    1.019858
    106          1           0       -3.391044   -6.594414    2.435998
    107          1           0       -2.245150   -5.149628    2.311277
    108          1           0       -4.753254   -4.709815    3.451350
    109          1           0       -5.939962   -4.970223    2.116479
    110          1           0       -6.118704   -2.756094    1.526589
    111          1           0       -4.457164   -2.451713    2.101132
    112          1           0       -6.525771   -2.937870    4.403845
    113          1           0       -7.002382   -1.937322    3.204962
    114          1           0       -4.318470   -0.819322    3.588777
    115          1           0       -5.436816   -1.838570    6.095394
    116          1           0       -4.149389   -0.635886    5.808881
    117          1           0       -3.901490   -2.277737    5.351563
    118          1           0       -5.489843    1.071133    4.390120
    119          1           0       -6.934812    0.084124    4.719399
    120          1           0       -5.904602   -0.073562    1.861001
    121          1           0       -5.954272    1.551553    2.337651
    122          1           0       -8.480666    0.694457    3.258087
    123          1           0       -8.194641   -0.265122    1.791829
    124          1           0       -7.549466    2.687159    1.406316
    125          1           0      -10.523521    1.924770    1.456076
    126          1           0       -9.687118    3.460159    1.560917
    127          1           0       -9.904540    2.329301    2.916401
    128          1           0       -9.375647    0.983131   -0.123457
    129          1           0       -7.572873    0.668004   -0.059817
    130          1           0       -7.260394    2.461484   -1.652163
    131          1           0       -7.919629    3.541731   -0.528026
    132          1           0      -10.292664    2.166570   -1.692426
    133          1           0       -9.202433    2.629267   -2.860528
    134          1           0       -9.227799    4.877080   -1.196331
    135          1           0      -12.009146    5.086532   -0.917982
    136          1           0      -11.027088    4.505016    0.290402
    137          1           0      -11.735101    3.359046   -0.865586
    138          1           0      -11.331752    5.626788   -2.941455
    139          1           0      -10.579069    4.231483   -3.831525
    140          1           0       -9.619958    5.579896   -3.506188
 ---------------------------------------------------------------------

 SCF Done:  E(RPBE1PBE) =  -3005.31573628     A.U. after   16 cycles

 Excitation energies and oscillator strengths:

 Excited State   1:      Singlet-A      1.8862 eV  657.32 nm  f=0.3691  <S**2>=0.000
     245 -> 247       -0.10262
     245 -> 248       -0.17152
     246 -> 247        0.68469
     246 <- 247       -0.10096
 This state for optimization and/or second-order correction.
 Total Energy, E(TD-HF/TD-DFT) =  -3005.24641988
 Copying the excited state density for this state as the 1-particle RhoCI density.

 Excited State   2:      Singlet-A      2.1467 eV  577.56 nm  f=0.1575  <S**2>=0.000
     245 -> 247        0.66118
     246 -> 247        0.10570
     246 -> 248        0.21015

 Excited State   3:      Singlet-A      2.7724 eV  447.20 nm  f=0.0046  <S**2>=0.000
     242 -> 247        0.39047
     243 -> 247        0.55628

 Excited State   4:      Singlet-A      2.8607 eV  433.41 nm  f=0.0075  <S**2>=0.000
     242 -> 247        0.56336
     243 -> 247       -0.40476

 Excited State   5:      Singlet-A      3.0464 eV  406.99 nm  f=0.0120  <S**2>=0.000
     240 -> 247       -0.14861
     241 -> 247        0.67355

 The electronic state is 1-A.
 Alpha  occ. eigenvalues --  -46.93130 -19.25408 -19.25035 -19.20201 -19.19665
 Alpha  occ. eigenvalues --  -19.19134 -19.18075 -14.42053 -14.41789 -14.39600
 Alpha  occ. eigenvalues --  -14.38749 -10.36764 -10.34992 -10.33335 -10.31082
 Alpha  occ. eigenvalues --  -10.29331 -10.29160 -10.29054 -10.29026 -10.28955
 Alpha  occ. eigenvalues --  -10.28868 -10.28565 -10.27313 -10.27129 -10.27090
 Alpha  occ. eigenvalues --  -10.26959 -10.26385 -10.26377 -10.26059 -10.25778
 Alpha  occ. eigenvalues --  -10.25715 -10.25710 -10.25462 -10.25457 -10.25208
 Alpha  occ. eigenvalues --  -10.25146 -10.24958 -10.24756 -10.24709 -10.24534
 Alpha  occ. eigenvalues --  -10.24329 -10.24108 -10.23950 -10.23863 -10.23724
 Alpha  occ. eigenvalues --  -10.23592 -10.23590 -10.23520 -10.22969 -10.22703
 Alpha  occ. eigenvalues --  -10.22701 -10.22613 -10.22540 -10.22531 -10.22504
 Alpha  occ. eigenvalues --  -10.22424 -10.22121 -10.22119 -10.22096 -10.22080
 Alpha  occ. eigenvalues --  -10.21992 -10.21941 -10.21895 -10.21295 -10.21095
 Alpha  occ. eigenvalues --  -10.20722  -3.15056  -1.87907  -1.87434  -1.87269
 Alpha  occ. eigenvalues --   -1.11937  -1.10331  -1.05571  -1.03297  -1.02831
 Alpha  occ. eigenvalues --   -1.01650  -0.99891  -0.98764  -0.97869  -0.96989
 Alpha  occ. eigenvalues --   -0.87044  -0.84953  -0.84435  -0.83889  -0.83409
 Alpha  occ. eigenvalues --   -0.82874  -0.82421  -0.81829  -0.80981  -0.80727
 Alpha  occ. eigenvalues --   -0.79819  -0.79713  -0.78426  -0.78002  -0.77533
 Alpha  occ. eigenvalues --   -0.76499  -0.76374  -0.75693  -0.74960  -0.74615
 Alpha  occ. eigenvalues --   -0.74280  -0.72293  -0.71958  -0.71303  -0.70200
 Alpha  occ. eigenvalues --   -0.70004  -0.69622  -0.69126  -0.68653  -0.68053
 Alpha  occ. eigenvalues --   -0.67825  -0.66387  -0.66014  -0.64588  -0.64031
 Alpha  occ. eigenvalues --   -0.63155  -0.62237  -0.62104  -0.60962  -0.60708
 Alpha  occ. eigenvalues --   -0.60081  -0.59599  -0.59592  -0.58688  -0.58267
 Alpha  occ. eigenvalues --   -0.58056  -0.57206  -0.56833  -0.56619  -0.55141
 Alpha  occ. eigenvalues --   -0.54223  -0.53691  -0.53582  -0.52716  -0.52561
 Alpha  occ. eigenvalues --   -0.52429  -0.51414  -0.50886  -0.50409  -0.50262
 Alpha  occ. eigenvalues --   -0.49962  -0.49306  -0.48925  -0.48493  -0.48460
 Alpha  occ. eigenvalues --   -0.48102  -0.47928  -0.47670  -0.47560  -0.47418
 Alpha  occ. eigenvalues --   -0.47241  -0.47023  -0.46592  -0.46442  -0.46066
 Alpha  occ. eigenvalues --   -0.46055  -0.45767  -0.45262  -0.45160  -0.44998
 Alpha  occ. eigenvalues --   -0.44838  -0.44723  -0.44537  -0.44449  -0.44274
 Alpha  occ. eigenvalues --   -0.44013  -0.43805  -0.43585  -0.43357  -0.43266
 Alpha  occ. eigenvalues --   -0.43052  -0.42841  -0.42627  -0.42367  -0.42266
 Alpha  occ. eigenvalues --   -0.41942  -0.41779  -0.41662  -0.41084  -0.40945
 Alpha  occ. eigenvalues --   -0.40856  -0.40648  -0.40527  -0.40245  -0.40170
 Alpha  occ. eigenvalues --   -0.40035  -0.39787  -0.39692  -0.39405  -0.39327
 Alpha  occ. eigenvalues --   -0.39247  -0.39158  -0.39081  -0.38783  -0.38557
 Alpha  occ. eigenvalues --   -0.38506  -0.38385  -0.38045  -0.37802  -0.37484
 Alpha  occ. eigenvalues --   -0.37458  -0.37375  -0.37231  -0.36958  -0.36817
 Alpha  occ. eigenvalues --   -0.36602  -0.36470  -0.36413  -0.36174  -0.36067
 Alpha  occ. eigenvalues --   -0.35791  -0.35695  -0.35474  -0.35141  -0.35031
 Alpha  occ. eigenvalues --   -0.34843  -0.34555  -0.34210  -0.33996  -0.33651
 Alpha  occ. eigenvalues --   -0.33276  -0.33113  -0.32996  -0.32291  -0.32226
 Alpha  occ. eigenvalues --   -0.31974  -0.31805  -0.31461  -0.31206  -0.30976
 Alpha  occ. eigenvalues --   -0.30638  -0.30356  -0.29788  -0.29312  -0.29127
 Alpha  occ. eigenvalues --   -0.28538  -0.28306  -0.27715  -0.27018  -0.26573
 Alpha  occ. eigenvalues --   -0.25881  -0.25028  -0.24835  -0.24380  -0.20935
 Alpha  occ. eigenvalues --   -0.19507
 Alpha virt. eigenvalues --   -0.11738  -0.05144  -0.04023  -0.01943  -0.00649
 Alpha virt. eigenvalues --   -0.00487   0.00921   0.01260   0.02075   0.02563
 Alpha virt. eigenvalues --    0.03698   0.04150   0.05026   0.05419   0.05803

 Mulliken charges:
               1
     1  Mg   0.951367
     2  C    0.031897
     3  C   -0.042184
     4  C   -0.074993
     5  C   -0.070704
     6  N   -0.370961
     7  C    0.084070
     8  C   -0.128587
     9  C   -0.151789
    10  C    0.048762
    11  C    0.017460
    12  C    0.006724
    13  C   -0.016783
    14  C    0.239972
    15  O   -0.267507
    16  O   -0.371350
    17  N   -0.457473
    18  C    0.171706
    19  C   -0.194370
    20  C   -0.077339
    21  C    0.161169
    22  C    0.077745
    23  C    0.073036
    24  O   -0.231762
    25  C   -0.040535
    26  N   -0.411206
    27  C    0.059467
    28  C   -0.080539
    29  C   -0.112238
    30  C    0.079460
    31  C    0.011655
    32  C   -0.010824
    33  C   -0.081287
    34  N   -0.454838
    35  C    0.114954
    36  C   -0.182186
    37  C   -0.008087
    38  C    0.094898
    39  C    0.095187
    40  C    0.097492
    41  O   -0.237711
    42  C   -0.118942
    43  C    0.275908
    44  O   -0.240232
    45  O   -0.333717
    46  C    0.113223
    47  C    0.227018
    48  C   -0.166808
    49  C   -0.196394
    50  C    0.033093
    51  C    0.049115
    52  C   -0.064230
    53  C    0.001463
    54  C   -0.231001
    55  C    0.018123
    56  C    0.011928
    57  C   -0.042277
    58  C   -0.024936
    59  C   -0.244856
    60  C   -0.021287
    61  C    0.001396
    62  C   -0.027154
    63  C   -0.002429
    64  C   -0.243767
    65  C   -0.031038
    66  C   -0.013795
    67  H    0.011004
    68  H   -0.026009
    69  H   -0.002239
    70  H    0.051152
    71  H    0.056838
    72  H    0.039914
    73  H    0.055837
    74  H    0.042752
    75  H    0.031790
    76  H    0.069077
    77  H    0.044135
    78  H    0.050348
    79  H    0.068499
    80  H    0.023366
    81  H    0.063345
    82  H    0.058487
    83  H    0.054986
    84  H    0.076087
    85  H    0.049690
    86  H    0.043141
    87  H    0.048937
    88  H    0.043134
    89  H    0.056431
    90  H    0.052934
    91  H    0.035686
    92  H    0.043734
    93  H    0.043403
    94  H    0.050052
    95  H    0.056371
    96  H    0.061807
    97  H    0.037118
    98  H    0.087665
    99  H    0.051083
   100  H    0.063387
   101  H    0.069226
   102  H    0.062652
   103  H    0.037172
   104  H    0.015459
   105  H    0.041481
   106  H    0.053383
   107  H    0.063303
   108  H    0.029527
   109  H    0.046453
   110  H    0.040211
   111  H    0.048413
   112  H    0.026943
   113  H    0.011391
   114  H    0.032971
   115  H    0.020628
   116  H    0.016042
   117  H    0.031690
   118  H    0.023360
   119  H    0.032183
   120  H    0.032083
   121  H    0.025889
   122  H    0.026905
   123  H    0.032762
   124  H    0.036535
   125  H    0.021173
   126  H    0.038090
   127  H    0.025657
   128  H    0.033820
   129  H    0.024951
   130  H    0.032531
   131  H    0.025484
   132  H    0.027210
   133  H    0.019339
   134  H    0.035310
   135  H    0.024235
   136  H    0.033067
   137  H    0.029924
   138  H    0.042382
   139  H    0.032265
   140  H    0.033790
 Sum of Mulliken charges =  -0.00000

 Dipole moment (field-independent basis, Debye):
    X=              0.9280    Y=              4.7149    Z=              0.1005  Tot=              4.8064
 Quadrupole moment (field-independent basis, Debye-Ang):
   XX=           -364.3108   YY=           -438.9391   ZZ=           -388.2667
   XY=             49.6634   XZ=              8.9216   YZ=             17.4659

 Normal termination of Gaussian 16 at Thu Apr 28 19:25:04 2022.
