 Gaussian 16, Revision A.03,
 Gaussian 16:  ES64L-G16RevA.03 25-Dec-2016

 --------------------------------
 #p wB97XD/Def2SVP td=(nstates=5)
 --------------------------------

 -----------------------------------------------------
 step_1701_chromophore_20 TDDFT with wB97XD functional
 -----------------------------------------------------
 Symbolic Z-matrix:
 Charge =  0 Multiplicity = 1

                         Standard orientation:
 ---------------------------------------------------------------------
 Center     Atomic      Atomic             Coordinates (Angstroms)
 Number     Number       Type             X           Y           Z
 ---------------------------------------------------------------------
      1         12           0        3.968454    1.250775   -0.599711
      2          6           0        3.389336   -2.315231   -0.967235
      3          6           0        1.375213    1.840335   -2.524124
      4          6           0        4.314009    4.481208    0.303820
      5          6           0        6.841046    0.448724    1.254798
      6          7           0        2.468361   -0.185134   -1.497807
      7          6           0        2.363214   -1.521234   -1.476623
      8          6           0        1.238594   -1.901633   -2.488507
      9          6           0        0.844145   -0.498997   -3.176800
     10          6           0        1.687169    0.476388   -2.392310
     11          6           0        1.035235   -0.377090   -4.680981
     12          6           0       -0.100084   -2.643175   -1.872220
     13          6           0       -0.767981   -3.603115   -2.868919
     14          6           0       -1.678705   -4.771106   -2.352450
     15          8           0       -1.544603   -5.964587   -2.606288
     16          8           0       -2.497242   -4.376817   -1.306438
     17          7           0        2.869398    2.988584   -0.963155
     18          6           0        1.860821    3.008087   -1.822332
     19          6           0        1.434974    4.380334   -1.980771
     20          6           0        2.236220    5.207321   -1.090352
     21          6           0        3.201640    4.218439   -0.540964
     22          6           0        0.221154    4.937345   -2.827911
     23          6           0        1.952329    6.685853   -0.720592
     24          8           0        1.088384    7.270007   -1.353403
     25          6           0        2.594096    7.378889    0.453259
     26          7           0        5.186221    2.356921    0.749437
     27          6           0        5.252432    3.665754    0.977154
     28          6           0        6.401791    4.117746    1.841835
     29          6           0        7.112343    2.805385    2.203034
     30          6           0        6.371394    1.766098    1.369839
     31          6           0        7.308644    5.183731    1.143177
     32          6           0        7.266491    2.450764    3.700152
     33          6           0        8.722685    2.251478    4.155290
     34          7           0        4.995108   -0.532380    0.000178
     35          6           0        6.201202   -0.734094    0.677139
     36          6           0        6.623738   -2.060266    0.716163
     37          6           0        5.529434   -2.748454    0.127056
     38          6           0        4.576323   -1.793973   -0.316581
     39          6           0        7.909884   -2.626966    1.254324
     40          6           0        4.956519   -4.013419   -0.227035
     41          8           0        5.328889   -5.147520    0.086181
     42          6           0        3.711581   -3.754384   -1.128526
     43          6           0        2.649340   -4.709544   -0.748354
     44          8           0        2.027938   -4.688041    0.282408
     45          8           0        2.617931   -5.620097   -1.726067
     46          6           0        1.638131   -6.662602   -1.531176
     47          6           0       -3.647215   -5.294705   -1.115666
     48          6           0       -4.400529   -4.768275    0.104180
     49          6           0       -4.096050   -4.977675    1.384697
     50          6           0       -2.958092   -5.809225    1.815188
     51          6           0       -5.028015   -4.459022    2.426560
     52          6           0       -5.393737   -2.967843    2.312720
     53          6           0       -6.076066   -2.355213    3.599673
     54          6           0       -5.228925   -1.106335    4.114722
     55          6           0       -4.666972   -1.503474    5.399253
     56          6           0       -6.059923    0.196254    4.077857
     57          6           0       -6.350311    0.574630    2.615094
     58          6           0       -7.888262    0.621610    2.346139
     59          6           0       -8.268216    1.867983    1.409931
     60          6           0       -9.638794    2.414195    1.862960
     61          6           0       -8.377129    1.400674    0.001012
     62          6           0       -8.165222    2.626883   -1.068676
     63          6           0       -9.452683    2.848931   -1.822526
     64          6           0      -10.020712    4.328751   -1.703143
     65          6           0      -11.243068    4.326414   -0.762351
     66          6           0      -10.444404    5.009118   -3.079689
     67          1           0        0.610388    1.988132   -3.289125
     68          1           0        4.422373    5.520913    0.618127
     69          1           0        7.823405    0.298480    1.707972
     70          1           0        1.701198   -2.548064   -3.234509
     71          1           0       -0.187677   -0.237759   -2.942493
     72          1           0        1.380461   -1.282271   -5.181323
     73          1           0        1.765927    0.418857   -4.830053
     74          1           0        0.062283   -0.225963   -5.148428
     75          1           0       -0.825332   -1.887257   -1.570472
     76          1           0       -0.068975   -3.108092   -0.886807
     77          1           0        0.069380   -3.872626   -3.511718
     78          1           0       -1.414639   -3.081283   -3.574944
     79          1           0       -0.526379    5.331924   -2.140594
     80          1           0       -0.224897    4.153008   -3.440125
     81          1           0        0.566802    5.721073   -3.501305
     82          1           0        2.504481    6.846318    1.400323
     83          1           0        2.054254    8.292972    0.702373
     84          1           0        3.666608    7.557678    0.370229
     85          1           0        6.026644    4.549487    2.769935
     86          1           0        8.135730    2.840352    1.828827
     87          1           0        8.314038    4.773910    1.049777
     88          1           0        7.272468    6.012727    1.850263
     89          1           0        6.944162    5.547694    0.182486
     90          1           0        6.740845    1.501117    3.797601
     91          1           0        6.800729    3.226399    4.308580
     92          1           0        8.656115    1.608362    5.032307
     93          1           0        9.175344    3.148337    4.577325
     94          1           0        9.333437    1.816243    3.363964
     95          1           0        8.414915   -3.158506    0.448248
     96          1           0        7.674381   -3.442794    1.938422
     97          1           0        8.527834   -1.854159    1.711555
     98          1           0        4.121727   -3.887448   -2.130546
     99          1           0        2.175622   -7.420864   -0.963636
    100          1           0        1.366668   -7.038515   -2.517099
    101          1           0        0.731939   -6.478295   -0.953653
    102          1           0       -3.460101   -6.331956   -0.837004
    103          1           0       -4.237281   -5.259921   -2.031775
    104          1           0       -5.334077   -4.292306   -0.197964
    105          1           0       -2.389771   -6.289766    1.019858
    106          1           0       -3.391044   -6.594414    2.435998
    107          1           0       -2.245150   -5.149628    2.311277
    108          1           0       -4.753254   -4.709815    3.451350
    109          1           0       -5.939962   -4.970223    2.116479
    110          1           0       -6.118704   -2.756094    1.526589
    111          1           0       -4.457164   -2.451713    2.101132
    112          1           0       -6.525771   -2.937870    4.403845
    113          1           0       -7.002382   -1.937322    3.204962
    114          1           0       -4.318470   -0.819322    3.588777
    115          1           0       -5.436816   -1.838570    6.095394
    116          1           0       -4.149389   -0.635886    5.808881
    117          1           0       -3.901490   -2.277737    5.351563
    118          1           0       -5.489843    1.071133    4.390120
    119          1           0       -6.934812    0.084124    4.719399
    120          1           0       -5.904602   -0.073562    1.861001
    121          1           0       -5.954272    1.551553    2.337651
    122          1           0       -8.480666    0.694457    3.258087
    123          1           0       -8.194641   -0.265122    1.791829
    124          1           0       -7.549466    2.687159    1.406316
    125          1           0      -10.523521    1.924770    1.456076
    126          1           0       -9.687118    3.460159    1.560917
    127          1           0       -9.904540    2.329301    2.916401
    128          1           0       -9.375647    0.983131   -0.123457
    129          1           0       -7.572873    0.668004   -0.059817
    130          1           0       -7.260394    2.461484   -1.652163
    131          1           0       -7.919629    3.541731   -0.528026
    132          1           0      -10.292664    2.166570   -1.692426
    133          1           0       -9.202433    2.629267   -2.860528
    134          1           0       -9.227799    4.877080   -1.196331
    135          1           0      -12.009146    5.086532   -0.917982
    136          1           0      -11.027088    4.505016    0.290402
    137          1           0      -11.735101    3.359046   -0.865586
    138          1           0      -11.331752    5.626788   -2.941455
    139          1           0      -10.579069    4.231483   -3.831525
    140          1           0       -9.619958    5.579896   -3.506188
 ---------------------------------------------------------------------

 SCF Done:  E(RwB97XD) =  -3007.82608674     A.U. after   17 cycles

 Excitation energies and oscillator strengths:

 Excited State   1:      Singlet-A      1.7552 eV  706.40 nm  f=0.3930  <S**2>=0.000
     245 -> 248       -0.17236
     246 -> 247        0.68394
     245 <- 248       -0.10702
 This state for optimization and/or second-order correction.
 Total Energy, E(TD-HF/TD-DFT) =  -3007.76158605
 Copying the excited state density for this state as the 1-particle RhoCI density.

 Excited State   2:      Singlet-A      2.1159 eV  585.97 nm  f=0.1625  <S**2>=0.000
     245 -> 247        0.65914
     246 -> 248        0.23400

 Excited State   3:      Singlet-A      3.2717 eV  378.97 nm  f=0.0030  <S**2>=0.000
     241 -> 247       -0.32035
     244 -> 247        0.60309

 Excited State   4:      Singlet-A      3.4005 eV  364.60 nm  f=0.0124  <S**2>=0.000
     241 -> 247        0.60015
     244 -> 247        0.29984
     246 -> 248       -0.14710

 Excited State   5:      Singlet-A      3.4886 eV  355.40 nm  f=0.0105  <S**2>=0.000
     242 -> 247        0.57415
     242 -> 249        0.22754
     242 -> 250        0.23838

 The electronic state is 1-A.
 Alpha  occ. eigenvalues --  -46.96130 -19.29830 -19.29566 -19.24856 -19.24832
 Alpha  occ. eigenvalues --  -19.23692 -19.22413 -14.47162 -14.46915 -14.44825
 Alpha  occ. eigenvalues --  -14.43434 -10.43508 -10.41691 -10.40528 -10.37536
 Alpha  occ. eigenvalues --  -10.36052 -10.36000 -10.35839 -10.35572 -10.35355
 Alpha  occ. eigenvalues --  -10.35073 -10.34915 -10.34031 -10.33533 -10.33507
 Alpha  occ. eigenvalues --  -10.32807 -10.32720 -10.32609 -10.32312 -10.32290
 Alpha  occ. eigenvalues --  -10.32230 -10.32132 -10.31863 -10.31593 -10.31337
 Alpha  occ. eigenvalues --  -10.31323 -10.31259 -10.31023 -10.31012 -10.30938
 Alpha  occ. eigenvalues --  -10.30899 -10.30539 -10.30473 -10.30466 -10.30183
 Alpha  occ. eigenvalues --  -10.30024 -10.29829 -10.29650 -10.29337 -10.29090
 Alpha  occ. eigenvalues --  -10.29066 -10.28910 -10.28901 -10.28861 -10.28803
 Alpha  occ. eigenvalues --  -10.28500 -10.28494 -10.28461 -10.28445 -10.28403
 Alpha  occ. eigenvalues --  -10.28368 -10.28230 -10.28195 -10.27764 -10.27574
 Alpha  occ. eigenvalues --  -10.27171  -3.21931  -1.95526  -1.95056  -1.94887
 Alpha  occ. eigenvalues --   -1.19175  -1.17677  -1.13415  -1.10467  -1.09934
 Alpha  occ. eigenvalues --   -1.08963  -1.07661  -1.06188  -1.05311  -1.04012
 Alpha  occ. eigenvalues --   -0.94430  -0.92591  -0.91995  -0.91566  -0.91104
 Alpha  occ. eigenvalues --   -0.90551  -0.90163  -0.89463  -0.88668  -0.87983
 Alpha  occ. eigenvalues --   -0.87856  -0.87490  -0.86039  -0.85570  -0.85203
 Alpha  occ. eigenvalues --   -0.84335  -0.84074  -0.83316  -0.82550  -0.82257
 Alpha  occ. eigenvalues --   -0.81940  -0.79798  -0.79568  -0.79153  -0.77825
 Alpha  occ. eigenvalues --   -0.77649  -0.77238  -0.76873  -0.76364  -0.75509
 Alpha  occ. eigenvalues --   -0.75447  -0.74000  -0.73591  -0.72239  -0.71555
 Alpha  occ. eigenvalues --   -0.70684  -0.69952  -0.69772  -0.68616  -0.68206
 Alpha  occ. eigenvalues --   -0.67535  -0.67252  -0.67133  -0.66040  -0.65982
 Alpha  occ. eigenvalues --   -0.65488  -0.64863  -0.64279  -0.64124  -0.62736
 Alpha  occ. eigenvalues --   -0.61673  -0.61221  -0.60973  -0.60166  -0.59939
 Alpha  occ. eigenvalues --   -0.59756  -0.58954  -0.58394  -0.57816  -0.57525
 Alpha  occ. eigenvalues --   -0.57337  -0.56635  -0.56297  -0.55861  -0.55743
 Alpha  occ. eigenvalues --   -0.55372  -0.55316  -0.55132  -0.54974  -0.54784
 Alpha  occ. eigenvalues --   -0.54635  -0.54460  -0.54184  -0.54006  -0.53512
 Alpha  occ. eigenvalues --   -0.53439  -0.52968  -0.52648  -0.52557  -0.52491
 Alpha  occ. eigenvalues --   -0.52288  -0.52026  -0.51853  -0.51815  -0.51671
 Alpha  occ. eigenvalues --   -0.51494  -0.51014  -0.50876  -0.50523  -0.50441
 Alpha  occ. eigenvalues --   -0.50277  -0.50110  -0.49835  -0.49678  -0.49554
 Alpha  occ. eigenvalues --   -0.49330  -0.49190  -0.48896  -0.48540  -0.48336
 Alpha  occ. eigenvalues --   -0.48012  -0.47841  -0.47541  -0.47502  -0.47446
 Alpha  occ. eigenvalues --   -0.47012  -0.46882  -0.46873  -0.46570  -0.46494
 Alpha  occ. eigenvalues --   -0.46385  -0.46341  -0.46221  -0.45839  -0.45792
 Alpha  occ. eigenvalues --   -0.45731  -0.45398  -0.45174  -0.44929  -0.44769
 Alpha  occ. eigenvalues --   -0.44608  -0.44535  -0.44521  -0.44037  -0.43905
 Alpha  occ. eigenvalues --   -0.43621  -0.43576  -0.43542  -0.43170  -0.43071
 Alpha  occ. eigenvalues --   -0.42822  -0.42722  -0.42366  -0.42200  -0.42069
 Alpha  occ. eigenvalues --   -0.41938  -0.41689  -0.41182  -0.41001  -0.40729
 Alpha  occ. eigenvalues --   -0.40335  -0.40150  -0.39922  -0.39313  -0.39287
 Alpha  occ. eigenvalues --   -0.39005  -0.38831  -0.38519  -0.38219  -0.37976
 Alpha  occ. eigenvalues --   -0.37624  -0.37377  -0.36584  -0.36244  -0.35994
 Alpha  occ. eigenvalues --   -0.35583  -0.35036  -0.34544  -0.34112  -0.33577
 Alpha  occ. eigenvalues --   -0.32966  -0.31690  -0.31100  -0.30968  -0.25979
 Alpha  occ. eigenvalues --   -0.23839
 Alpha virt. eigenvalues --   -0.07635   0.00360   0.02189   0.04677   0.05158
 Alpha virt. eigenvalues --    0.06442   0.07570   0.08007   0.09021   0.09086
 Alpha virt. eigenvalues --    0.10062   0.10983   0.11677   0.12126   0.12469

 Mulliken charges:
               1
     1  Mg   0.943354
     2  C    0.031092
     3  C   -0.067699
     4  C   -0.089577
     5  C   -0.082303
     6  N   -0.332936
     7  C    0.035696
     8  C   -0.097957
     9  C   -0.127858
    10  C    0.043571
    11  C    0.026013
    12  C    0.015314
    13  C    0.000104
    14  C    0.230316
    15  O   -0.264424
    16  O   -0.370777
    17  N   -0.424705
    18  C    0.170415
    19  C   -0.186654
    20  C   -0.075500
    21  C    0.166434
    22  C    0.091952
    23  C    0.073676
    24  O   -0.225667
    25  C   -0.033124
    26  N   -0.384402
    27  C    0.049273
    28  C   -0.057729
    29  C   -0.084969
    30  C    0.071101
    31  C    0.022112
    32  C    0.002088
    33  C   -0.063669
    34  N   -0.420209
    35  C    0.104599
    36  C   -0.184652
    37  C   -0.003606
    38  C    0.076159
    39  C    0.107603
    40  C    0.077075
    41  O   -0.232365
    42  C   -0.069416
    43  C    0.246361
    44  O   -0.233106
    45  O   -0.331099
    46  C    0.127360
    47  C    0.241355
    48  C   -0.176166
    49  C   -0.181671
    50  C    0.045840
    51  C    0.065210
    52  C   -0.044676
    53  C    0.016526
    54  C   -0.198958
    55  C    0.029634
    56  C    0.027095
    57  C   -0.025248
    58  C   -0.007023
    59  C   -0.210358
    60  C   -0.008217
    61  C    0.019821
    62  C   -0.010982
    63  C    0.008607
    64  C   -0.212593
    65  C   -0.018044
    66  C    0.000535
    67  H    0.003936
    68  H   -0.040339
    69  H   -0.012543
    70  H    0.037107
    71  H    0.045610
    72  H    0.036023
    73  H    0.048821
    74  H    0.038325
    75  H    0.024079
    76  H    0.063383
    77  H    0.036696
    78  H    0.043183
    79  H    0.065770
    80  H    0.020020
    81  H    0.060987
    82  H    0.054684
    83  H    0.055050
    84  H    0.073939
    85  H    0.040287
    86  H    0.027111
    87  H    0.044853
    88  H    0.038156
    89  H    0.050199
    90  H    0.044258
    91  H    0.027363
    92  H    0.038129
    93  H    0.036893
    94  H    0.043772
    95  H    0.049254
    96  H    0.055526
    97  H    0.029811
    98  H    0.079894
    99  H    0.047798
   100  H    0.060941
   101  H    0.063504
   102  H    0.056337
   103  H    0.033286
   104  H    0.011221
   105  H    0.036254
   106  H    0.047642
   107  H    0.058279
   108  H    0.022925
   109  H    0.036891
   110  H    0.031588
   111  H    0.037273
   112  H    0.021135
   113  H   -0.004262
   114  H    0.020288
   115  H    0.013299
   116  H    0.009681
   117  H    0.025600
   118  H    0.016036
   119  H    0.023114
   120  H    0.019837
   121  H    0.017108
   122  H    0.016362
   123  H    0.021939
   124  H    0.022874
   125  H    0.013968
   126  H    0.026304
   127  H    0.020551
   128  H    0.021099
   129  H    0.014570
   130  H    0.027141
   131  H    0.012662
   132  H    0.017061
   133  H    0.011291
   134  H    0.023276
   135  H    0.018775
   136  H    0.026194
   137  H    0.021920
   138  H    0.036525
   139  H    0.025388
   140  H    0.028140
 Sum of Mulliken charges =  -0.00000

 Dipole moment (field-independent basis, Debye):
    X=              0.4038    Y=              5.7423    Z=             -0.2400  Tot=              5.7614
 Quadrupole moment (field-independent basis, Debye-Ang):
   XX=           -368.8385   YY=           -435.8109   ZZ=           -387.4398
   XY=             52.6762   XZ=              7.8916   YZ=             16.6869

 Normal termination of Gaussian 16 at Thu Apr 28 19:49:46 2022.
