 Gaussian 16, Revision A.03,
 Gaussian 16:  ES64L-G16RevA.03 25-Dec-2016

 --------------------
 #p ZINDO=(nstates=5)
 --------------------

 ------------------------------
 step_1701_chromophore_20 ZINDO
 ------------------------------
 Symbolic Z-matrix:
 Charge =  0 Multiplicity = 1

                         Standard orientation:
 ---------------------------------------------------------------------
 Center     Atomic      Atomic             Coordinates (Angstroms)
 Number     Number       Type             X           Y           Z
 ---------------------------------------------------------------------
      1         12           0        3.968454    1.250775   -0.599711
      2          6           0        3.389336   -2.315231   -0.967235
      3          6           0        1.375213    1.840335   -2.524124
      4          6           0        4.314009    4.481208    0.303820
      5          6           0        6.841046    0.448724    1.254798
      6          7           0        2.468361   -0.185134   -1.497807
      7          6           0        2.363214   -1.521234   -1.476623
      8          6           0        1.238594   -1.901633   -2.488507
      9          6           0        0.844145   -0.498997   -3.176800
     10          6           0        1.687169    0.476388   -2.392310
     11          6           0        1.035235   -0.377090   -4.680981
     12          6           0       -0.100084   -2.643175   -1.872220
     13          6           0       -0.767981   -3.603115   -2.868919
     14          6           0       -1.678705   -4.771106   -2.352450
     15          8           0       -1.544603   -5.964587   -2.606288
     16          8           0       -2.497242   -4.376817   -1.306438
     17          7           0        2.869398    2.988584   -0.963155
     18          6           0        1.860821    3.008087   -1.822332
     19          6           0        1.434974    4.380334   -1.980771
     20          6           0        2.236220    5.207321   -1.090352
     21          6           0        3.201640    4.218439   -0.540964
     22          6           0        0.221154    4.937345   -2.827911
     23          6           0        1.952329    6.685853   -0.720592
     24          8           0        1.088384    7.270007   -1.353403
     25          6           0        2.594096    7.378889    0.453259
     26          7           0        5.186221    2.356921    0.749437
     27          6           0        5.252432    3.665754    0.977154
     28          6           0        6.401791    4.117746    1.841835
     29          6           0        7.112343    2.805385    2.203034
     30          6           0        6.371394    1.766098    1.369839
     31          6           0        7.308644    5.183731    1.143177
     32          6           0        7.266491    2.450764    3.700152
     33          6           0        8.722685    2.251478    4.155290
     34          7           0        4.995108   -0.532380    0.000178
     35          6           0        6.201202   -0.734094    0.677139
     36          6           0        6.623738   -2.060266    0.716163
     37          6           0        5.529434   -2.748454    0.127056
     38          6           0        4.576323   -1.793973   -0.316581
     39          6           0        7.909884   -2.626966    1.254324
     40          6           0        4.956519   -4.013419   -0.227035
     41          8           0        5.328889   -5.147520    0.086181
     42          6           0        3.711581   -3.754384   -1.128526
     43          6           0        2.649340   -4.709544   -0.748354
     44          8           0        2.027938   -4.688041    0.282408
     45          8           0        2.617931   -5.620097   -1.726067
     46          6           0        1.638131   -6.662602   -1.531176
     47          6           0       -3.647215   -5.294705   -1.115666
     48          6           0       -4.400529   -4.768275    0.104180
     49          6           0       -4.096050   -4.977675    1.384697
     50          6           0       -2.958092   -5.809225    1.815188
     51          6           0       -5.028015   -4.459022    2.426560
     52          6           0       -5.393737   -2.967843    2.312720
     53          6           0       -6.076066   -2.355213    3.599673
     54          6           0       -5.228925   -1.106335    4.114722
     55          6           0       -4.666972   -1.503474    5.399253
     56          6           0       -6.059923    0.196254    4.077857
     57          6           0       -6.350311    0.574630    2.615094
     58          6           0       -7.888262    0.621610    2.346139
     59          6           0       -8.268216    1.867983    1.409931
     60          6           0       -9.638794    2.414195    1.862960
     61          6           0       -8.377129    1.400674    0.001012
     62          6           0       -8.165222    2.626883   -1.068676
     63          6           0       -9.452683    2.848931   -1.822526
     64          6           0      -10.020712    4.328751   -1.703143
     65          6           0      -11.243068    4.326414   -0.762351
     66          6           0      -10.444404    5.009118   -3.079689
     67          1           0        0.610388    1.988132   -3.289125
     68          1           0        4.422373    5.520913    0.618127
     69          1           0        7.823405    0.298480    1.707972
     70          1           0        1.701198   -2.548064   -3.234509
     71          1           0       -0.187677   -0.237759   -2.942493
     72          1           0        1.380461   -1.282271   -5.181323
     73          1           0        1.765927    0.418857   -4.830053
     74          1           0        0.062283   -0.225963   -5.148428
     75          1           0       -0.825332   -1.887257   -1.570472
     76          1           0       -0.068975   -3.108092   -0.886807
     77          1           0        0.069380   -3.872626   -3.511718
     78          1           0       -1.414639   -3.081283   -3.574944
     79          1           0       -0.526379    5.331924   -2.140594
     80          1           0       -0.224897    4.153008   -3.440125
     81          1           0        0.566802    5.721073   -3.501305
     82          1           0        2.504481    6.846318    1.400323
     83          1           0        2.054254    8.292972    0.702373
     84          1           0        3.666608    7.557678    0.370229
     85          1           0        6.026644    4.549487    2.769935
     86          1           0        8.135730    2.840352    1.828827
     87          1           0        8.314038    4.773910    1.049777
     88          1           0        7.272468    6.012727    1.850263
     89          1           0        6.944162    5.547694    0.182486
     90          1           0        6.740845    1.501117    3.797601
     91          1           0        6.800729    3.226399    4.308580
     92          1           0        8.656115    1.608362    5.032307
     93          1           0        9.175344    3.148337    4.577325
     94          1           0        9.333437    1.816243    3.363964
     95          1           0        8.414915   -3.158506    0.448248
     96          1           0        7.674381   -3.442794    1.938422
     97          1           0        8.527834   -1.854159    1.711555
     98          1           0        4.121727   -3.887448   -2.130546
     99          1           0        2.175622   -7.420864   -0.963636
    100          1           0        1.366668   -7.038515   -2.517099
    101          1           0        0.731939   -6.478295   -0.953653
    102          1           0       -3.460101   -6.331956   -0.837004
    103          1           0       -4.237281   -5.259921   -2.031775
    104          1           0       -5.334077   -4.292306   -0.197964
    105          1           0       -2.389771   -6.289766    1.019858
    106          1           0       -3.391044   -6.594414    2.435998
    107          1           0       -2.245150   -5.149628    2.311277
    108          1           0       -4.753254   -4.709815    3.451350
    109          1           0       -5.939962   -4.970223    2.116479
    110          1           0       -6.118704   -2.756094    1.526589
    111          1           0       -4.457164   -2.451713    2.101132
    112          1           0       -6.525771   -2.937870    4.403845
    113          1           0       -7.002382   -1.937322    3.204962
    114          1           0       -4.318470   -0.819322    3.588777
    115          1           0       -5.436816   -1.838570    6.095394
    116          1           0       -4.149389   -0.635886    5.808881
    117          1           0       -3.901490   -2.277737    5.351563
    118          1           0       -5.489843    1.071133    4.390120
    119          1           0       -6.934812    0.084124    4.719399
    120          1           0       -5.904602   -0.073562    1.861001
    121          1           0       -5.954272    1.551553    2.337651
    122          1           0       -8.480666    0.694457    3.258087
    123          1           0       -8.194641   -0.265122    1.791829
    124          1           0       -7.549466    2.687159    1.406316
    125          1           0      -10.523521    1.924770    1.456076
    126          1           0       -9.687118    3.460159    1.560917
    127          1           0       -9.904540    2.329301    2.916401
    128          1           0       -9.375647    0.983131   -0.123457
    129          1           0       -7.572873    0.668004   -0.059817
    130          1           0       -7.260394    2.461484   -1.652163
    131          1           0       -7.919629    3.541731   -0.528026
    132          1           0      -10.292664    2.166570   -1.692426
    133          1           0       -9.202433    2.629267   -2.860528
    134          1           0       -9.227799    4.877080   -1.196331
    135          1           0      -12.009146    5.086532   -0.917982
    136          1           0      -11.027088    4.505016    0.290402
    137          1           0      -11.735101    3.359046   -0.865586
    138          1           0      -11.331752    5.626788   -2.941455
    139          1           0      -10.579069    4.231483   -3.831525
    140          1           0       -9.619958    5.579896   -3.506188
 ---------------------------------------------------------------------

 SCF Done:  E(RZINDO/S) =  -474.232499261     A.U. after   19 cycles

 Excitation energies and oscillator strengths:

 Excited State   1:      Singlet-A      1.3630 eV  909.66 nm  f=0.5343  <S**2>=0.000
     175 ->178         0.15445
     176 ->177         0.67427
 This state for optimization and/or second-order correction.
 Total Energy, E(CIS/TDA) =  -474.182410763
 Copying the excited state density for this state as the 1-particle RhoCI density.

 Excited State   2:      Singlet-A      1.8888 eV  656.40 nm  f=0.1323  <S**2>=0.000
     175 ->177         0.59418
     176 ->178        -0.33980

 Excited State   3:      Singlet-A      2.9902 eV  414.63 nm  f=0.0287  <S**2>=0.000
     166 ->177         0.13133
     166 ->179         0.21500
     166 ->181         0.12628
     167 ->177        -0.11264
     167 ->179        -0.18065
     168 ->177         0.24848
     168 ->179         0.35420
     168 ->181         0.17584
     168 ->184        -0.12511
     168 ->185         0.12939
     170 ->177         0.10546
     176 ->178        -0.10355

 Excited State   4:      Singlet-A      3.0015 eV  413.07 nm  f=0.3243  <S**2>=0.000
     168 ->179         0.10892
     171 ->177         0.19149
     171 ->178        -0.12783
     171 ->179        -0.15012
     171 ->181         0.24912
     171 ->188         0.13154
     175 ->177         0.18355
     176 ->178         0.32850
     176 ->179         0.16743
     176 ->181        -0.14813

 Excited State   5:      Singlet-A      3.0321 eV  408.90 nm  f=0.4737  <S**2>=0.000
     171 ->177        -0.18762
     171 ->178         0.11704
     171 ->179         0.14779
     171 ->181        -0.24277
     171 ->188        -0.13367
     172 ->177         0.10675
     175 ->177         0.22912
     176 ->178         0.41891
     176 ->179         0.11016

 The electronic state is 1-A.
 Alpha  occ. eigenvalues --   -1.83142  -1.82447  -1.79554  -1.74803  -1.72046
 Alpha  occ. eigenvalues --   -1.70990  -1.66291  -1.61541  -1.60333  -1.58330
 Alpha  occ. eigenvalues --   -1.55263  -1.51339  -1.49010  -1.47535  -1.45891
 Alpha  occ. eigenvalues --   -1.44688  -1.43197  -1.39933  -1.38543  -1.36730
 Alpha  occ. eigenvalues --   -1.35778  -1.32769  -1.32562  -1.31071  -1.28441
 Alpha  occ. eigenvalues --   -1.28319  -1.26261  -1.22929  -1.20001  -1.18285
 Alpha  occ. eigenvalues --   -1.17637  -1.15979  -1.15388  -1.14085  -1.12764
 Alpha  occ. eigenvalues --   -1.12037  -1.10135  -1.09319  -1.05139  -1.03331
 Alpha  occ. eigenvalues --   -1.01452  -0.99700  -0.98384  -0.98061  -0.96742
 Alpha  occ. eigenvalues --   -0.96160  -0.95320  -0.94899  -0.93276  -0.92985
 Alpha  occ. eigenvalues --   -0.91248  -0.90983  -0.88826  -0.88605  -0.86920
 Alpha  occ. eigenvalues --   -0.86721  -0.85025  -0.83529  -0.81532  -0.80086
 Alpha  occ. eigenvalues --   -0.79180  -0.77563  -0.77481  -0.76763  -0.76496
 Alpha  occ. eigenvalues --   -0.76213  -0.75254  -0.74809  -0.74058  -0.73542
 Alpha  occ. eigenvalues --   -0.72982  -0.72699  -0.72285  -0.71257  -0.70764
 Alpha  occ. eigenvalues --   -0.70674  -0.69911  -0.68736  -0.68578  -0.68134
 Alpha  occ. eigenvalues --   -0.68055  -0.67163  -0.66724  -0.65979  -0.65454
 Alpha  occ. eigenvalues --   -0.64796  -0.64357  -0.64248  -0.64186  -0.63623
 Alpha  occ. eigenvalues --   -0.62843  -0.62614  -0.62449  -0.61938  -0.61384
 Alpha  occ. eigenvalues --   -0.61003  -0.60919  -0.60320  -0.60231  -0.59869
 Alpha  occ. eigenvalues --   -0.59539  -0.59146  -0.58731  -0.58438  -0.58215
 Alpha  occ. eigenvalues --   -0.57951  -0.57248  -0.57051  -0.56814  -0.56596
 Alpha  occ. eigenvalues --   -0.56264  -0.56056  -0.55628  -0.55246  -0.54872
 Alpha  occ. eigenvalues --   -0.54505  -0.53713  -0.53611  -0.53181  -0.52602
 Alpha  occ. eigenvalues --   -0.52528  -0.52234  -0.51844  -0.51570  -0.51477
 Alpha  occ. eigenvalues --   -0.50809  -0.50763  -0.50604  -0.50181  -0.49925
 Alpha  occ. eigenvalues --   -0.49776  -0.49416  -0.49350  -0.49111  -0.48569
 Alpha  occ. eigenvalues --   -0.48065  -0.47899  -0.47852  -0.47584  -0.47368
 Alpha  occ. eigenvalues --   -0.47300  -0.47176  -0.47000  -0.46742  -0.46351
 Alpha  occ. eigenvalues --   -0.46239  -0.46102  -0.46035  -0.45732  -0.45390
 Alpha  occ. eigenvalues --   -0.45268  -0.44877  -0.44209  -0.44172  -0.43777
 Alpha  occ. eigenvalues --   -0.43378  -0.42649  -0.42592  -0.42501  -0.41706
 Alpha  occ. eigenvalues --   -0.41567  -0.40664  -0.40301  -0.39011  -0.38883
 Alpha  occ. eigenvalues --   -0.37666  -0.37386  -0.36744  -0.34512  -0.34169
 Alpha  occ. eigenvalues --   -0.33694  -0.32621  -0.31407  -0.31314  -0.26797
 Alpha  occ. eigenvalues --   -0.22865
 Alpha virt. eigenvalues --   -0.09077  -0.02151  -0.00934   0.01211   0.01561
 Alpha virt. eigenvalues --    0.01780   0.02676   0.03694   0.04133   0.05167
 Alpha virt. eigenvalues --    0.05646   0.06081   0.06651   0.07225   0.07669

 Mulliken charges:
               1
     1  Mg   0.430673
     2  C   -0.005259
     3  C   -0.087561
     4  C   -0.111325
     5  C   -0.061980
     6  N   -0.272559
     7  C    0.085989
     8  C   -0.000299
     9  C   -0.000349
    10  C    0.165542
    11  C   -0.049030
    12  C   -0.031292
    13  C    0.004608
    14  C    0.464018
    15  O   -0.507082
    16  O   -0.268585
    17  N   -0.313446
    18  C    0.153983
    19  C    0.044127
    20  C   -0.056192
    21  C    0.163598
    22  C   -0.036352
    23  C    0.339562
    24  O   -0.506018
    25  C   -0.026132
    26  N   -0.285437
    27  C    0.199928
    28  C    0.012959
    29  C    0.000001
    30  C    0.060834
    31  C   -0.052422
    32  C   -0.028559
    33  C   -0.058458
    34  N   -0.332913
    35  C    0.067191
    36  C    0.010339
    37  C   -0.065630
    38  C    0.082092
    39  C   -0.038237
    40  C    0.331050
    41  O   -0.542322
    42  C    0.061290
    43  C    0.500639
    44  O   -0.522722
    45  O   -0.255507
    46  C    0.069993
    47  C    0.099686
    48  C   -0.112600
    49  C    0.021571
    50  C   -0.038503
    51  C   -0.021766
    52  C   -0.027472
    53  C   -0.050406
    54  C   -0.010039
    55  C   -0.049341
    56  C   -0.029820
    57  C   -0.038219
    58  C   -0.045401
    59  C   -0.015478
    60  C   -0.065245
    61  C   -0.042362
    62  C   -0.040046
    63  C   -0.032524
    64  C   -0.016348
    65  C   -0.061829
    66  C   -0.059866
    67  H    0.028862
    68  H    0.008546
    69  H    0.023117
    70  H    0.030674
    71  H    0.032647
    72  H    0.021274
    73  H    0.028887
    74  H    0.020920
    75  H    0.015886
    76  H    0.047898
    77  H    0.036451
    78  H    0.031101
    79  H    0.045995
    80  H    0.016987
    81  H    0.042595
    82  H    0.030767
    83  H    0.036214
    84  H    0.041983
    85  H    0.034628
    86  H    0.024410
    87  H    0.030190
    88  H    0.018289
    89  H    0.029002
    90  H    0.028716
    91  H    0.020297
    92  H    0.014853
    93  H    0.018947
    94  H    0.029015
    95  H    0.031536
    96  H    0.034968
    97  H    0.024882
    98  H    0.056091
    99  H    0.036919
   100  H    0.031931
   101  H    0.055642
   102  H    0.057611
   103  H    0.036099
   104  H    0.017748
   105  H    0.027026
   106  H    0.029000
   107  H    0.034744
   108  H    0.026311
   109  H    0.024141
   110  H    0.024541
   111  H    0.024449
   112  H    0.039710
   113  H    0.002042
   114  H    0.023208
   115  H    0.013089
   116  H    0.002634
   117  H    0.015689
   118  H    0.013254
   119  H    0.026387
   120  H    0.020371
   121  H    0.014995
   122  H    0.022999
   123  H    0.020351
   124  H    0.028811
   125  H    0.015462
   126  H    0.013581
   127  H    0.013023
   128  H    0.029142
   129  H    0.017439
   130  H    0.022415
   131  H    0.018863
   132  H    0.028482
   133  H    0.004506
   134  H    0.024217
   135  H    0.013062
   136  H    0.016411
   137  H    0.016858
   138  H    0.028397
   139  H    0.019628
   140  H    0.015445
 Sum of Mulliken charges =  -0.00000

 Dipole moment (field-independent basis, Debye):
    X=             -0.4553    Y=              9.2857    Z=             -2.7741  Tot=              9.7019
 N-N= 4.467084113648D+03 E-N= 0.000000000000D+00  KE=-9.608614162298D+03
 Leave Link  601 at Thu Apr 28 20:04:12 2022, MaxMem=  6710886400 cpu:               0.7 elap:               0.0
 (Enter /sw/apps/gaussian-16.0/g16/l9999.exe)
 1\1\GINC-BP1-COMPUTE161\SP\RZINDO CIS\STO-3G\C55H74Mg1N4O6\OF15641\28-
 Apr-2022\0\\#p ZINDO=(nstates=5)\\step_1701_chromophore_20 ZINDO\\0,1\
 Mg,0,6.641,57.172,41.878\C,0,5.756,53.657,41.658\C,0,9.536,56.5,40.484
 \C,0,7.054,60.511,41.65\C,0,3.6,57.686,43.558\N,0,7.429,55.229,41.028\
 C,0,6.921,53.99,40.969\C,0,8.066,53.056,40.469\C,0,9.354,54.022,40.401
 \C,0,8.751,55.363,40.741\C,0,10.546,53.665,41.276\C,0,7.832,52.297,39.
 023\C,0,8.54,50.936,38.937\C,0,8.036,49.845,37.929\O,0,7.708,48.695,38

 Normal termination of Gaussian 16 at Thu Apr 28 20:04:12 2022.
