 Gaussian 16, Revision A.03,
 Gaussian 16:  ES64L-G16RevA.03 25-Dec-2016

 ------------------------------
 #p blyp/Def2SVP td=(nstates=5)
 ------------------------------

 ---------------------------------------------------
 step_1101_chromophore_14 TDDFT with blyp functional
 ---------------------------------------------------
 Symbolic Z-matrix:
 Charge =  0 Multiplicity = 1

                         Standard orientation:
 ---------------------------------------------------------------------
 Center     Atomic      Atomic             Coordinates (Angstroms)
 Number     Number       Type             X           Y           Z
 ---------------------------------------------------------------------
      1         12           0        5.151986    1.048838    0.065416
      2          6           0        4.767554   -2.467524    0.505867
      3          6           0        4.558406    0.511266   -3.337190
      4          6           0        4.922456    4.340091   -0.249009
      5          6           0        5.285049    1.352182    3.480975
      6          7           0        4.566712   -0.756540   -1.223849
      7          6           0        4.568785   -2.074008   -0.840188
      8          6           0        4.392809   -3.023475   -2.081393
      9          6           0        4.748110   -2.110261   -3.218507
     10          6           0        4.605265   -0.693062   -2.584158
     11          6           0        6.167313   -2.299137   -3.862930
     12          6           0        2.996871   -3.820747   -2.145198
     13          6           0        1.827726   -3.307928   -1.221860
     14          6           0        0.359543   -3.827409   -1.395149
     15          8           0        0.069647   -4.992260   -1.480480
     16          8           0       -0.625877   -2.830697   -1.246844
     17          7           0        4.682858    2.249773   -1.559901
     18          6           0        4.538423    1.821283   -2.831148
     19          6           0        4.288756    2.991298   -3.643824
     20          6           0        4.476276    4.170674   -2.814241
     21          6           0        4.705528    3.602323   -1.472335
     22          6           0        3.886914    2.818058   -5.104024
     23          6           0        4.327635    5.638206   -3.274655
     24          8           0        4.291129    5.897283   -4.500384
     25          6           0        4.177650    6.767402   -2.315446
     26          7           0        4.791736    2.611474    1.489986
     27          6           0        5.111961    3.853862    1.033449
     28          6           0        5.573991    4.832352    2.170253
     29          6           0        5.410047    3.898799    3.421464
     30          6           0        5.160736    2.527545    2.730128
     31          6           0        7.043511    5.350040    2.006081
     32          6           0        4.116254    4.230492    4.282981
     33          6           0        3.971861    5.658063    4.820073
     34          7           0        5.080273   -0.260449    1.720003
     35          6           0        5.206810   -0.002014    3.021427
     36          6           0        5.101075   -1.251672    3.805974
     37          6           0        4.975576   -2.204746    2.835333
     38          6           0        4.992243   -1.596328    1.564442
     39          6           0        4.960479   -1.465498    5.384761
     40          6           0        4.899931   -3.611039    2.670473
     41          8           0        4.901891   -4.576896    3.412459
     42          6           0        4.739441   -3.836456    1.124903
     43          6           0        5.856625   -4.646670    0.608064
     44          8           0        5.753755   -5.520941   -0.267251
     45          8           0        7.040737   -4.352004    1.259867
     46          6           0        8.212393   -5.302103    0.947278
     47          6           0       -2.000720   -3.437035   -1.139263
     48          6           0       -3.021959   -2.280531   -0.963015
     49          6           0       -3.754550   -1.559067   -1.858136
     50          6           0       -3.653296   -1.644064   -3.352182
     51          6           0       -4.567438   -0.323547   -1.382354
     52          6           0       -6.085440   -0.412592   -1.445283
     53          6           0       -6.614116   -0.380979   -0.019047
     54          6           0       -8.174923   -0.223080    0.248635
     55          6           0       -8.524585    0.873459    1.238118
     56          6           0       -8.891380   -1.611424    0.400534
     57          6           0      -10.345937   -1.368832   -0.081568
     58          6           0      -11.428978   -1.811338    1.010454
     59          6           0      -12.425614   -0.704834    1.404272
     60          6           0      -12.721718   -0.764802    2.932127
     61          6           0      -13.776049   -0.754362    0.676556
     62          6           0      -13.664201    0.222769   -0.580971
     63          6           0      -14.841303    1.190540   -0.796025
     64          6           0      -14.879254    2.203916    0.418880
     65          6           0      -16.297911    2.402941    0.916532
     66          6           0      -14.339660    3.559146    0.028072
     67          1           0        4.641568    0.347192   -4.413254
     68          1           0        4.990328    5.429497   -0.281794
     69          1           0        5.468599    1.455128    4.552681
     70          1           0        5.154545   -3.800047   -2.025093
     71          1           0        4.063084   -2.206781   -4.061623
     72          1           0        6.044685   -2.666087   -4.881718
     73          1           0        6.743537   -2.916539   -3.173301
     74          1           0        6.623076   -1.323474   -4.033342
     75          1           0        3.168291   -4.888208   -2.008071
     76          1           0        2.654532   -3.577910   -3.151047
     77          1           0        1.834504   -2.217685   -1.240834
     78          1           0        2.099378   -3.402088   -0.170468
     79          1           0        4.630935    3.344223   -5.702414
     80          1           0        2.937562    3.251624   -5.420355
     81          1           0        3.872199    1.808966   -5.515332
     82          1           0        5.184686    7.054024   -2.010724
     83          1           0        3.561877    6.383115   -1.501979
     84          1           0        3.601087    7.570433   -2.774103
     85          1           0        4.872769    5.658476    2.287114
     86          1           0        6.306075    3.848611    4.039680
     87          1           0        7.728376    4.531713    2.226060
     88          1           0        7.214256    6.316241    2.481862
     89          1           0        7.270169    5.513395    0.952233
     90          1           0        3.868137    3.578611    5.121479
     91          1           0        3.284400    4.163696    3.582410
     92          1           0        3.148298    6.233612    4.396457
     93          1           0        4.826693    6.320154    4.686245
     94          1           0        3.897434    5.542509    5.900747
     95          1           0        4.001177   -1.865181    5.714072
     96          1           0        5.060988   -0.502769    5.886307
     97          1           0        5.734033   -2.152539    5.727428
     98          1           0        3.864787   -4.416790    0.830287
     99          1           0        8.176876   -6.003689    1.780289
    100          1           0        9.166679   -4.821499    1.161853
    101          1           0        8.249011   -5.879139    0.023255
    102          1           0       -2.096364   -4.181850   -0.348914
    103          1           0       -2.147859   -3.916625   -2.106880
    104          1           0       -3.186255   -2.083281    0.096502
    105          1           0       -3.395980   -0.640129   -3.689537
    106          1           0       -4.683089   -1.727508   -3.699209
    107          1           0       -2.931100   -2.369053   -3.727609
    108          1           0       -4.260611    0.562615   -1.936382
    109          1           0       -4.208864   -0.003161   -0.404110
    110          1           0       -6.415114   -1.259628   -2.047441
    111          1           0       -6.469687    0.494390   -1.912307
    112          1           0       -6.107636    0.410368    0.532027
    113          1           0       -6.246760   -1.310235    0.415734
    114          1           0       -8.589745    0.140360   -0.691708
    115          1           0       -8.929498    0.316637    2.082484
    116          1           0       -9.321766    1.530828    0.893373
    117          1           0       -7.671667    1.498238    1.504270
    118          1           0       -8.773934   -1.889681    1.448085
    119          1           0       -8.565916   -2.438335   -0.229822
    120          1           0      -10.431753   -1.963920   -0.990452
    121          1           0      -10.683442   -0.365475   -0.341727
    122          1           0      -10.868603   -2.121860    1.892451
    123          1           0      -12.019464   -2.657615    0.661795
    124          1           0      -11.940920    0.244278    1.172877
    125          1           0      -13.764392   -0.927030    3.208134
    126          1           0      -12.528155    0.262177    3.242626
    127          1           0      -12.170008   -1.506219    3.510112
    128          1           0      -14.605662   -0.436226    1.308423
    129          1           0      -13.943558   -1.758286    0.285866
    130          1           0      -13.622037   -0.341400   -1.513098
    131          1           0      -12.726916    0.765320   -0.705282
    132          1           0      -15.854447    0.796824   -0.716831
    133          1           0      -14.646564    1.797752   -1.680408
    134          1           0      -14.301943    1.821012    1.260716
    135          1           0      -16.327736    3.198343    1.662176
    136          1           0      -16.758200    1.530911    1.379947
    137          1           0      -16.877956    2.613912    0.017991
    138          1           0      -13.737100    3.916098    0.863505
    139          1           0      -15.157339    4.263143   -0.127214
    140          1           0      -13.651531    3.530909   -0.816841
 ---------------------------------------------------------------------

 SCF Done:  E(RB-LYP) =  -3007.36293786     A.U. after   21 cycles

 Excitation energies and oscillator strengths:

 Excited State   1:      Singlet-A      1.7612 eV  703.96 nm  f=0.0276  <S**2>=0.000
     244 -> 247        0.67442
     246 -> 247        0.20465
 This state for optimization and/or second-order correction.
 Total Energy, E(TD-HF/TD-DFT) =  -3007.29821378
 Copying the excited state density for this state as the 1-particle RhoCI density.

 Excited State   2:      Singlet-A      1.8212 eV  680.78 nm  f=0.2659  <S**2>=0.000
     244 -> 247       -0.20379
     245 -> 248        0.17786
     246 -> 247        0.65568
     246 <- 247       -0.14319

 Excited State   3:      Singlet-A      1.8810 eV  659.16 nm  f=0.0281  <S**2>=0.000
     243 -> 247        0.56611
     245 -> 247        0.40295

 Excited State   4:      Singlet-A      2.0615 eV  601.42 nm  f=0.0647  <S**2>=0.000
     243 -> 247       -0.40840
     245 -> 247        0.51563
     246 -> 248       -0.22717

 Excited State   5:      Singlet-A      2.2533 eV  550.24 nm  f=0.0003  <S**2>=0.000
     242 -> 247        0.70699

 The electronic state is 1-A.
 Alpha  occ. eigenvalues --  -46.28916 -18.82592 -18.80861 -18.76711 -18.76429
 Alpha  occ. eigenvalues --  -18.75836 -18.75218 -14.03856 -14.03555 -14.01703
 Alpha  occ. eigenvalues --  -14.01598 -10.04067 -10.03646 -10.00034  -9.99477
 Alpha  occ. eigenvalues --   -9.98229  -9.97374  -9.97158  -9.96877  -9.96798
 Alpha  occ. eigenvalues --   -9.96794  -9.96521  -9.96236  -9.95610  -9.94823
 Alpha  occ. eigenvalues --   -9.94805  -9.94371  -9.94292  -9.94123  -9.94008
 Alpha  occ. eigenvalues --   -9.94005  -9.93927  -9.93589  -9.93531  -9.93520
 Alpha  occ. eigenvalues --   -9.93412  -9.93410  -9.93349  -9.93292  -9.93272
 Alpha  occ. eigenvalues --   -9.93235  -9.93150  -9.92817  -9.92747  -9.92377
 Alpha  occ. eigenvalues --   -9.92094  -9.92051  -9.91786  -9.91763  -9.91759
 Alpha  occ. eigenvalues --   -9.91626  -9.91572  -9.91429  -9.91406  -9.91308
 Alpha  occ. eigenvalues --   -9.91108  -9.91096  -9.91089  -9.91035  -9.90956
 Alpha  occ. eigenvalues --   -9.90856  -9.90805  -9.90674  -9.90502  -9.90351
 Alpha  occ. eigenvalues --   -9.90294  -2.93435  -1.73813  -1.73372  -1.73122
 Alpha  occ. eigenvalues --   -0.96488  -0.96399  -0.91653  -0.89732  -0.88746
 Alpha  occ. eigenvalues --   -0.88606  -0.88460  -0.87556  -0.86472  -0.85679
 Alpha  occ. eigenvalues --   -0.76714  -0.73272  -0.72796  -0.72458  -0.72292
 Alpha  occ. eigenvalues --   -0.72180  -0.71801  -0.70982  -0.70735  -0.69816
 Alpha  occ. eigenvalues --   -0.68883  -0.68660  -0.68045  -0.67894  -0.67208
 Alpha  occ. eigenvalues --   -0.66270  -0.65895  -0.65104  -0.64966  -0.64462
 Alpha  occ. eigenvalues --   -0.64050  -0.62464  -0.62356  -0.61732  -0.61354
 Alpha  occ. eigenvalues --   -0.60233  -0.59944  -0.59841  -0.59243  -0.58833
 Alpha  occ. eigenvalues --   -0.58484  -0.57549  -0.57004  -0.55606  -0.54928
 Alpha  occ. eigenvalues --   -0.54818  -0.53133  -0.52496  -0.52254  -0.52082
 Alpha  occ. eigenvalues --   -0.51324  -0.51187  -0.50769  -0.50696  -0.49773
 Alpha  occ. eigenvalues --   -0.49128  -0.48761  -0.48174  -0.48118  -0.46902
 Alpha  occ. eigenvalues --   -0.46582  -0.45769  -0.45627  -0.45300  -0.44528
 Alpha  occ. eigenvalues --   -0.43785  -0.43303  -0.43182  -0.42919  -0.42631
 Alpha  occ. eigenvalues --   -0.42108  -0.41890  -0.41738  -0.41321  -0.41137
 Alpha  occ. eigenvalues --   -0.41003  -0.40420  -0.40193  -0.40053  -0.39988
 Alpha  occ. eigenvalues --   -0.39967  -0.39499  -0.39267  -0.39000  -0.38840
 Alpha  occ. eigenvalues --   -0.38741  -0.38577  -0.38531  -0.38187  -0.38083
 Alpha  occ. eigenvalues --   -0.37750  -0.37660  -0.37425  -0.37300  -0.37042
 Alpha  occ. eigenvalues --   -0.36823  -0.36661  -0.36621  -0.36473  -0.36289
 Alpha  occ. eigenvalues --   -0.36199  -0.36165  -0.35890  -0.35762  -0.35605
 Alpha  occ. eigenvalues --   -0.35362  -0.35312  -0.35042  -0.34935  -0.34866
 Alpha  occ. eigenvalues --   -0.34583  -0.34500  -0.34331  -0.34049  -0.33927
 Alpha  occ. eigenvalues --   -0.33520  -0.33425  -0.33301  -0.33134  -0.33032
 Alpha  occ. eigenvalues --   -0.32947  -0.32823  -0.32622  -0.32497  -0.32338
 Alpha  occ. eigenvalues --   -0.32210  -0.31984  -0.31950  -0.31710  -0.31673
 Alpha  occ. eigenvalues --   -0.31441  -0.31314  -0.31265  -0.31118  -0.31087
 Alpha  occ. eigenvalues --   -0.30512  -0.30501  -0.30307  -0.30152  -0.29826
 Alpha  occ. eigenvalues --   -0.29745  -0.29486  -0.29461  -0.29126  -0.28911
 Alpha  occ. eigenvalues --   -0.28906  -0.28560  -0.28502  -0.28315  -0.27890
 Alpha  occ. eigenvalues --   -0.27696  -0.26983  -0.26823  -0.26749  -0.26606
 Alpha  occ. eigenvalues --   -0.26470  -0.25986  -0.25798  -0.25067  -0.24879
 Alpha  occ. eigenvalues --   -0.24803  -0.24291  -0.24222  -0.23948  -0.23659
 Alpha  occ. eigenvalues --   -0.23290  -0.22713  -0.21934  -0.21870  -0.21596
 Alpha  occ. eigenvalues --   -0.20359  -0.20195  -0.18868  -0.18349  -0.17643
 Alpha  occ. eigenvalues --   -0.16209
 Alpha virt. eigenvalues --   -0.11916  -0.07251  -0.06510  -0.04960  -0.04485
 Alpha virt. eigenvalues --   -0.03057  -0.02852  -0.02143  -0.01798  -0.00319
 Alpha virt. eigenvalues --    0.01036   0.01797   0.02335   0.02398   0.03035

 Mulliken charges:
               1
     1  Mg   0.676741
     2  C   -0.010305
     3  C   -0.077765
     4  C   -0.050884
     5  C   -0.073972
     6  N   -0.180614
     7  C   -0.116742
     8  C    0.053971
     9  C   -0.020267
    10  C   -0.002304
    11  C    0.136714
    12  C    0.135969
    13  C    0.083632
    14  C    0.113026
    15  O   -0.177376
    16  O   -0.298651
    17  N   -0.270060
    18  C    0.162203
    19  C   -0.117526
    20  C    0.019731
    21  C    0.121511
    22  C    0.168561
    23  C   -0.092082
    24  O   -0.196204
    25  C    0.158737
    26  N   -0.183304
    27  C    0.001526
    28  C    0.017830
    29  C    0.037681
    30  C    0.022302
    31  C    0.141540
    32  C    0.069132
    33  C    0.059545
    34  N   -0.213784
    35  C    0.074499
    36  C   -0.184671
    37  C    0.106496
    38  C    0.076679
    39  C    0.150880
    40  C   -0.015664
    41  O   -0.116072
    42  C    0.068084
    43  C    0.110362
    44  O   -0.199479
    45  O   -0.290619
    46  C    0.214196
    47  C    0.305947
    48  C   -0.104315
    49  C   -0.118788
    50  C    0.187974
    51  C    0.101719
    52  C    0.113674
    53  C    0.064834
    54  C   -0.082946
    55  C    0.122900
    56  C    0.110090
    57  C    0.042594
    58  C    0.113543
    59  C   -0.112923
    60  C    0.092244
    61  C    0.149765
    62  C    0.037616
    63  C    0.134036
    64  C   -0.140167
    65  C    0.097667
    66  C    0.122255
    67  H   -0.050643
    68  H   -0.069252
    69  H   -0.066942
    70  H   -0.020222
    71  H   -0.033899
    72  H   -0.005560
    73  H    0.007626
    74  H   -0.015283
    75  H    0.014490
    76  H   -0.027941
    77  H   -0.015531
    78  H    0.000339
    79  H    0.000747
    80  H    0.002501
    81  H   -0.029169
    82  H    0.026920
    83  H    0.003317
    84  H    0.001252
    85  H   -0.022522
    86  H   -0.032380
    87  H   -0.012935
    88  H    0.006142
    89  H   -0.025956
    90  H   -0.011840
    91  H   -0.022005
    92  H   -0.001227
    93  H   -0.018946
    94  H   -0.010214
    95  H    0.015910
    96  H   -0.019296
    97  H    0.014464
    98  H   -0.003310
    99  H    0.015526
   100  H    0.010428
   101  H    0.040015
   102  H    0.006194
   103  H   -0.015741
   104  H   -0.035391
   105  H   -0.013805
   106  H   -0.016879
   107  H    0.002100
   108  H   -0.034015
   109  H   -0.035645
   110  H   -0.020104
   111  H   -0.042100
   112  H   -0.046529
   113  H   -0.035484
   114  H   -0.042942
   115  H   -0.020634
   116  H   -0.010385
   117  H   -0.009914
   118  H   -0.018458
   119  H   -0.026540
   120  H   -0.034601
   121  H   -0.012756
   122  H   -0.036425
   123  H   -0.040221
   124  H   -0.027168
   125  H   -0.023647
   126  H   -0.015505
   127  H   -0.015447
   128  H   -0.013439
   129  H   -0.029184
   130  H   -0.046925
   131  H   -0.031480
   132  H   -0.040644
   133  H   -0.037934
   134  H   -0.030583
   135  H   -0.016341
   136  H   -0.022186
   137  H   -0.015215
   138  H   -0.028330
   139  H   -0.016908
   140  H   -0.024319
 Sum of Mulliken charges =  -0.00000

 Dipole moment (field-independent basis, Debye):
    X=              2.4259    Y=              4.5333    Z=              1.7955  Tot=              5.4461
 Quadrupole moment (field-independent basis, Debye-Ang):
   XX=           -360.8546   YY=           -439.1064   ZZ=           -408.4812
   XY=              9.8224   XZ=             12.8575   YZ=             34.9904

 Normal termination of Gaussian 16 at Wed May  4 00:04:02 2022.
