 Gaussian 16, Revision A.03,
 Gaussian 16:  ES64L-G16RevA.03 25-Dec-2016

 -----------------------------------
 #p cam-b3lyp/Def2SVP td=(nstates=5)
 -----------------------------------

 --------------------------------------------------------
 step_1101_chromophore_14 TDDFT with cam-b3lyp functional
 --------------------------------------------------------
 Symbolic Z-matrix:
 Charge =  0 Multiplicity = 1

                         Standard orientation:
 ---------------------------------------------------------------------
 Center     Atomic      Atomic             Coordinates (Angstroms)
 Number     Number       Type             X           Y           Z
 ---------------------------------------------------------------------
      1         12           0        5.151986    1.048838    0.065416
      2          6           0        4.767554   -2.467524    0.505867
      3          6           0        4.558406    0.511266   -3.337190
      4          6           0        4.922456    4.340091   -0.249009
      5          6           0        5.285049    1.352182    3.480975
      6          7           0        4.566712   -0.756540   -1.223849
      7          6           0        4.568785   -2.074008   -0.840188
      8          6           0        4.392809   -3.023475   -2.081393
      9          6           0        4.748110   -2.110261   -3.218507
     10          6           0        4.605265   -0.693062   -2.584158
     11          6           0        6.167313   -2.299137   -3.862930
     12          6           0        2.996871   -3.820747   -2.145198
     13          6           0        1.827726   -3.307928   -1.221860
     14          6           0        0.359543   -3.827409   -1.395149
     15          8           0        0.069647   -4.992260   -1.480480
     16          8           0       -0.625877   -2.830697   -1.246844
     17          7           0        4.682858    2.249773   -1.559901
     18          6           0        4.538423    1.821283   -2.831148
     19          6           0        4.288756    2.991298   -3.643824
     20          6           0        4.476276    4.170674   -2.814241
     21          6           0        4.705528    3.602323   -1.472335
     22          6           0        3.886914    2.818058   -5.104024
     23          6           0        4.327635    5.638206   -3.274655
     24          8           0        4.291129    5.897283   -4.500384
     25          6           0        4.177650    6.767402   -2.315446
     26          7           0        4.791736    2.611474    1.489986
     27          6           0        5.111961    3.853862    1.033449
     28          6           0        5.573991    4.832352    2.170253
     29          6           0        5.410047    3.898799    3.421464
     30          6           0        5.160736    2.527545    2.730128
     31          6           0        7.043511    5.350040    2.006081
     32          6           0        4.116254    4.230492    4.282981
     33          6           0        3.971861    5.658063    4.820073
     34          7           0        5.080273   -0.260449    1.720003
     35          6           0        5.206810   -0.002014    3.021427
     36          6           0        5.101075   -1.251672    3.805974
     37          6           0        4.975576   -2.204746    2.835333
     38          6           0        4.992243   -1.596328    1.564442
     39          6           0        4.960479   -1.465498    5.384761
     40          6           0        4.899931   -3.611039    2.670473
     41          8           0        4.901891   -4.576896    3.412459
     42          6           0        4.739441   -3.836456    1.124903
     43          6           0        5.856625   -4.646670    0.608064
     44          8           0        5.753755   -5.520941   -0.267251
     45          8           0        7.040737   -4.352004    1.259867
     46          6           0        8.212393   -5.302103    0.947278
     47          6           0       -2.000720   -3.437035   -1.139263
     48          6           0       -3.021959   -2.280531   -0.963015
     49          6           0       -3.754550   -1.559067   -1.858136
     50          6           0       -3.653296   -1.644064   -3.352182
     51          6           0       -4.567438   -0.323547   -1.382354
     52          6           0       -6.085440   -0.412592   -1.445283
     53          6           0       -6.614116   -0.380979   -0.019047
     54          6           0       -8.174923   -0.223080    0.248635
     55          6           0       -8.524585    0.873459    1.238118
     56          6           0       -8.891380   -1.611424    0.400534
     57          6           0      -10.345937   -1.368832   -0.081568
     58          6           0      -11.428978   -1.811338    1.010454
     59          6           0      -12.425614   -0.704834    1.404272
     60          6           0      -12.721718   -0.764802    2.932127
     61          6           0      -13.776049   -0.754362    0.676556
     62          6           0      -13.664201    0.222769   -0.580971
     63          6           0      -14.841303    1.190540   -0.796025
     64          6           0      -14.879254    2.203916    0.418880
     65          6           0      -16.297911    2.402941    0.916532
     66          6           0      -14.339660    3.559146    0.028072
     67          1           0        4.641568    0.347192   -4.413254
     68          1           0        4.990328    5.429497   -0.281794
     69          1           0        5.468599    1.455128    4.552681
     70          1           0        5.154545   -3.800047   -2.025093
     71          1           0        4.063084   -2.206781   -4.061623
     72          1           0        6.044685   -2.666087   -4.881718
     73          1           0        6.743537   -2.916539   -3.173301
     74          1           0        6.623076   -1.323474   -4.033342
     75          1           0        3.168291   -4.888208   -2.008071
     76          1           0        2.654532   -3.577910   -3.151047
     77          1           0        1.834504   -2.217685   -1.240834
     78          1           0        2.099378   -3.402088   -0.170468
     79          1           0        4.630935    3.344223   -5.702414
     80          1           0        2.937562    3.251624   -5.420355
     81          1           0        3.872199    1.808966   -5.515332
     82          1           0        5.184686    7.054024   -2.010724
     83          1           0        3.561877    6.383115   -1.501979
     84          1           0        3.601087    7.570433   -2.774103
     85          1           0        4.872769    5.658476    2.287114
     86          1           0        6.306075    3.848611    4.039680
     87          1           0        7.728376    4.531713    2.226060
     88          1           0        7.214256    6.316241    2.481862
     89          1           0        7.270169    5.513395    0.952233
     90          1           0        3.868137    3.578611    5.121479
     91          1           0        3.284400    4.163696    3.582410
     92          1           0        3.148298    6.233612    4.396457
     93          1           0        4.826693    6.320154    4.686245
     94          1           0        3.897434    5.542509    5.900747
     95          1           0        4.001177   -1.865181    5.714072
     96          1           0        5.060988   -0.502769    5.886307
     97          1           0        5.734033   -2.152539    5.727428
     98          1           0        3.864787   -4.416790    0.830287
     99          1           0        8.176876   -6.003689    1.780289
    100          1           0        9.166679   -4.821499    1.161853
    101          1           0        8.249011   -5.879139    0.023255
    102          1           0       -2.096364   -4.181850   -0.348914
    103          1           0       -2.147859   -3.916625   -2.106880
    104          1           0       -3.186255   -2.083281    0.096502
    105          1           0       -3.395980   -0.640129   -3.689537
    106          1           0       -4.683089   -1.727508   -3.699209
    107          1           0       -2.931100   -2.369053   -3.727609
    108          1           0       -4.260611    0.562615   -1.936382
    109          1           0       -4.208864   -0.003161   -0.404110
    110          1           0       -6.415114   -1.259628   -2.047441
    111          1           0       -6.469687    0.494390   -1.912307
    112          1           0       -6.107636    0.410368    0.532027
    113          1           0       -6.246760   -1.310235    0.415734
    114          1           0       -8.589745    0.140360   -0.691708
    115          1           0       -8.929498    0.316637    2.082484
    116          1           0       -9.321766    1.530828    0.893373
    117          1           0       -7.671667    1.498238    1.504270
    118          1           0       -8.773934   -1.889681    1.448085
    119          1           0       -8.565916   -2.438335   -0.229822
    120          1           0      -10.431753   -1.963920   -0.990452
    121          1           0      -10.683442   -0.365475   -0.341727
    122          1           0      -10.868603   -2.121860    1.892451
    123          1           0      -12.019464   -2.657615    0.661795
    124          1           0      -11.940920    0.244278    1.172877
    125          1           0      -13.764392   -0.927030    3.208134
    126          1           0      -12.528155    0.262177    3.242626
    127          1           0      -12.170008   -1.506219    3.510112
    128          1           0      -14.605662   -0.436226    1.308423
    129          1           0      -13.943558   -1.758286    0.285866
    130          1           0      -13.622037   -0.341400   -1.513098
    131          1           0      -12.726916    0.765320   -0.705282
    132          1           0      -15.854447    0.796824   -0.716831
    133          1           0      -14.646564    1.797752   -1.680408
    134          1           0      -14.301943    1.821012    1.260716
    135          1           0      -16.327736    3.198343    1.662176
    136          1           0      -16.758200    1.530911    1.379947
    137          1           0      -16.877956    2.613912    0.017991
    138          1           0      -13.737100    3.916098    0.863505
    139          1           0      -15.157339    4.263143   -0.127214
    140          1           0      -13.651531    3.530909   -0.816841
 ---------------------------------------------------------------------

 SCF Done:  E(RCAM-B3LYP) =  -3007.14889689     A.U. after   17 cycles

 Excitation energies and oscillator strengths:

 Excited State   1:      Singlet-A      1.7050 eV  727.18 nm  f=0.3682  <S**2>=0.000
     245 -> 248       -0.17842
     246 -> 247        0.68537
     245 <- 248       -0.10749
 This state for optimization and/or second-order correction.
 Total Energy, E(TD-HF/TD-DFT) =  -3007.08623898
 Copying the excited state density for this state as the 1-particle RhoCI density.

 Excited State   2:      Singlet-A      2.2499 eV  551.06 nm  f=0.1051  <S**2>=0.000
     245 -> 247        0.63674
     246 -> 248        0.29542

 Excited State   3:      Singlet-A      3.3634 eV  368.63 nm  f=0.0010  <S**2>=0.000
     244 -> 247        0.68363

 Excited State   4:      Singlet-A      3.4413 eV  360.28 nm  f=0.1194  <S**2>=0.000
     239 -> 247        0.10815
     240 -> 247       -0.13390
     241 -> 247        0.44249
     241 -> 249        0.16575
     241 -> 250       -0.14628
     241 -> 251       -0.12622
     245 -> 247        0.13245
     246 -> 248       -0.32988
     246 -> 249       -0.14392
     246 -> 250       -0.14444

 Excited State   5:      Singlet-A      3.4879 eV  355.47 nm  f=0.1321  <S**2>=0.000
     240 -> 247       -0.21114
     241 -> 247        0.25108
     241 -> 249        0.11228
     245 -> 247       -0.13556
     246 -> 248        0.31538
     246 -> 249        0.34872
     246 -> 250        0.29780

 The electronic state is 1-A.
 Alpha  occ. eigenvalues --  -46.90594 -19.25594 -19.23684 -19.19885 -19.19439
 Alpha  occ. eigenvalues --  -19.19208 -19.18327 -14.42918 -14.42241 -14.40127
 Alpha  occ. eigenvalues --  -14.40072 -10.39631 -10.38983 -10.35161 -10.34935
 Alpha  occ. eigenvalues --  -10.32369 -10.31762 -10.31517 -10.31368 -10.31262
 Alpha  occ. eigenvalues --  -10.31214 -10.30949 -10.30652 -10.29738 -10.29145
 Alpha  occ. eigenvalues --  -10.28906 -10.28837 -10.28559 -10.28453 -10.28364
 Alpha  occ. eigenvalues --  -10.28104 -10.28048 -10.27977 -10.27682 -10.27543
 Alpha  occ. eigenvalues --  -10.27527 -10.27498 -10.27417 -10.27287 -10.27261
 Alpha  occ. eigenvalues --  -10.27007 -10.26969 -10.26687 -10.26513 -10.26343
 Alpha  occ. eigenvalues --  -10.25703 -10.25688 -10.25598 -10.25490 -10.25436
 Alpha  occ. eigenvalues --  -10.25349 -10.25296 -10.25160 -10.25121 -10.25062
 Alpha  occ. eigenvalues --  -10.24989 -10.24787 -10.24780 -10.24648 -10.24629
 Alpha  occ. eigenvalues --  -10.24538 -10.24458 -10.24347 -10.24089 -10.23923
 Alpha  occ. eigenvalues --  -10.23853  -3.19006  -1.93863  -1.93498  -1.93282
 Alpha  occ. eigenvalues --   -1.15058  -1.14873  -1.10218  -1.07969  -1.06546
 Alpha  occ. eigenvalues --   -1.06515  -1.06226  -1.05282  -1.04122  -1.03263
 Alpha  occ. eigenvalues --   -0.94029  -0.90082  -0.89589  -0.89104  -0.88986
 Alpha  occ. eigenvalues --   -0.88907  -0.88481  -0.87626  -0.87296  -0.86371
 Alpha  occ. eigenvalues --   -0.85374  -0.85058  -0.84292  -0.84086  -0.83374
 Alpha  occ. eigenvalues --   -0.82446  -0.81922  -0.81019  -0.80771  -0.80329
 Alpha  occ. eigenvalues --   -0.79789  -0.78069  -0.77945  -0.77288  -0.76821
 Alpha  occ. eigenvalues --   -0.75551  -0.75225  -0.75183  -0.74493  -0.74058
 Alpha  occ. eigenvalues --   -0.73599  -0.72546  -0.71900  -0.70410  -0.69652
 Alpha  occ. eigenvalues --   -0.69353  -0.67641  -0.66971  -0.66621  -0.66077
 Alpha  occ. eigenvalues --   -0.65525  -0.65327  -0.64840  -0.64761  -0.63802
 Alpha  occ. eigenvalues --   -0.62866  -0.62670  -0.62054  -0.61782  -0.60604
 Alpha  occ. eigenvalues --   -0.60141  -0.59269  -0.59141  -0.58751  -0.57905
 Alpha  occ. eigenvalues --   -0.57255  -0.56607  -0.56402  -0.55958  -0.55626
 Alpha  occ. eigenvalues --   -0.55322  -0.55222  -0.54459  -0.54388  -0.54112
 Alpha  occ. eigenvalues --   -0.53688  -0.53263  -0.53018  -0.52789  -0.52629
 Alpha  occ. eigenvalues --   -0.52514  -0.52283  -0.51988  -0.51907  -0.51664
 Alpha  occ. eigenvalues --   -0.51445  -0.51303  -0.51042  -0.50792  -0.50497
 Alpha  occ. eigenvalues --   -0.50190  -0.49971  -0.49703  -0.49483  -0.49373
 Alpha  occ. eigenvalues --   -0.49164  -0.49095  -0.48900  -0.48706  -0.48464
 Alpha  occ. eigenvalues --   -0.48378  -0.48220  -0.48189  -0.47999  -0.47486
 Alpha  occ. eigenvalues --   -0.47396  -0.47298  -0.47160  -0.46856  -0.46786
 Alpha  occ. eigenvalues --   -0.46464  -0.46407  -0.46177  -0.45983  -0.45880
 Alpha  occ. eigenvalues --   -0.45098  -0.45082  -0.44998  -0.44942  -0.44841
 Alpha  occ. eigenvalues --   -0.44638  -0.44443  -0.44211  -0.44084  -0.43978
 Alpha  occ. eigenvalues --   -0.43652  -0.43519  -0.43456  -0.43396  -0.43258
 Alpha  occ. eigenvalues --   -0.43145  -0.43044  -0.42885  -0.42687  -0.42472
 Alpha  occ. eigenvalues --   -0.42355  -0.41913  -0.41626  -0.41461  -0.41226
 Alpha  occ. eigenvalues --   -0.40885  -0.40874  -0.40653  -0.40346  -0.39959
 Alpha  occ. eigenvalues --   -0.39879  -0.39677  -0.39445  -0.39405  -0.38788
 Alpha  occ. eigenvalues --   -0.38585  -0.37901  -0.37796  -0.37527  -0.37393
 Alpha  occ. eigenvalues --   -0.37333  -0.37032  -0.36462  -0.36243  -0.35777
 Alpha  occ. eigenvalues --   -0.35653  -0.35335  -0.34926  -0.34735  -0.34074
 Alpha  occ. eigenvalues --   -0.33838  -0.33573  -0.33511  -0.31787  -0.31202
 Alpha  occ. eigenvalues --   -0.30955  -0.30691  -0.29961  -0.29635  -0.24484
 Alpha  occ. eigenvalues --   -0.21501
 Alpha virt. eigenvalues --   -0.08998  -0.02073  -0.00220   0.00571   0.02125
 Alpha virt. eigenvalues --    0.04485   0.04807   0.04992   0.06007   0.06972
 Alpha virt. eigenvalues --    0.07667   0.08158   0.08472   0.09273   0.09477

 Mulliken charges:
               1
     1  Mg   0.807179
     2  C   -0.046846
     3  C   -0.083676
     4  C   -0.069317
     5  C   -0.081053
     6  N   -0.243639
     7  C   -0.078642
     8  C    0.006749
     9  C   -0.072080
    10  C    0.008303
    11  C    0.079918
    12  C    0.086949
    13  C    0.015677
    14  C    0.194137
    15  O   -0.217425
    16  O   -0.362673
    17  N   -0.360661
    18  C    0.165175
    19  C   -0.124609
    20  C   -0.050601
    21  C    0.152137
    22  C    0.112823
    23  C   -0.010590
    24  O   -0.235878
    25  C    0.071622
    26  N   -0.252532
    27  C    0.015447
    28  C   -0.041474
    29  C   -0.014173
    30  C    0.034598
    31  C    0.085375
    32  C    0.017061
    33  C   -0.004374
    34  N   -0.304350
    35  C    0.079891
    36  C   -0.177329
    37  C    0.023123
    38  C    0.118539
    39  C    0.111149
    40  C    0.084675
    41  O   -0.153358
    42  C   -0.012018
    43  C    0.207425
    44  O   -0.241197
    45  O   -0.355623
    46  C    0.175498
    47  C    0.274904
    48  C   -0.125734
    49  C   -0.139122
    50  C    0.123849
    51  C    0.039238
    52  C    0.056468
    53  C    0.019876
    54  C   -0.143072
    55  C    0.066640
    56  C    0.060045
    57  C   -0.009129
    58  C    0.065323
    59  C   -0.167572
    60  C    0.035325
    61  C    0.093221
    62  C   -0.013976
    63  C    0.077996
    64  C   -0.194760
    65  C    0.036840
    66  C    0.060613
    67  H   -0.014969
    68  H   -0.033881
    69  H   -0.032969
    70  H    0.017670
    71  H    0.002580
    72  H    0.019154
    73  H    0.030156
    74  H    0.010559
    75  H    0.044903
    76  H    0.002027
    77  H    0.019633
    78  H    0.027021
    79  H    0.028689
    80  H    0.030020
    81  H   -0.002694
    82  H    0.052868
    83  H    0.030929
    84  H    0.035949
    85  H    0.012259
    86  H    0.003194
    87  H    0.011415
    88  H    0.030308
    89  H    0.000160
    90  H    0.016785
    91  H    0.007287
    92  H    0.022219
    93  H    0.003759
    94  H    0.014134
    95  H    0.041347
    96  H    0.004551
    97  H    0.039987
    98  H    0.038578
    99  H    0.038474
   100  H    0.034485
   101  H    0.065235
   102  H    0.034505
   103  H    0.013265
   104  H   -0.004410
   105  H    0.011435
   106  H    0.006584
   107  H    0.026387
   108  H   -0.002053
   109  H   -0.003011
   110  H    0.005727
   111  H   -0.011727
   112  H   -0.018142
   113  H   -0.009132
   114  H   -0.010681
   115  H    0.001065
   116  H    0.011933
   117  H    0.015223
   118  H    0.007507
   119  H    0.003509
   120  H   -0.004527
   121  H    0.007784
   122  H   -0.008464
   123  H   -0.011643
   124  H    0.001083
   125  H    0.000942
   126  H    0.007440
   127  H    0.009009
   128  H    0.011706
   129  H    0.000691
   130  H   -0.016214
   131  H   -0.007189
   132  H   -0.010254
   133  H   -0.007727
   134  H   -0.003267
   135  H    0.009039
   136  H    0.002311
   137  H    0.007501
   138  H   -0.002752
   139  H    0.008339
   140  H    0.000081
 Sum of Mulliken charges =  -0.00000

 Dipole moment (field-independent basis, Debye):
    X=              2.6688    Y=              4.6588    Z=              1.9115  Tot=              5.6992
 Quadrupole moment (field-independent basis, Debye-Ang):
   XX=           -357.7987   YY=           -436.7328   ZZ=           -406.6763
   XY=              8.9927   XZ=             13.3651   YZ=             35.7749

 Normal termination of Gaussian 16 at Tue May  3 23:03:29 2022.
