 Gaussian 16, Revision A.03,
 Gaussian 16:  ES64L-G16RevA.03 25-Dec-2016

 ---------------------------------
 #p PBE1PBE/Def2SVP td=(nstates=5)
 ---------------------------------

 ------------------------------------------------------
 step_1101_chromophore_14 TDDFT with PBE1PBE functional
 ------------------------------------------------------
 Symbolic Z-matrix:
 Charge =  0 Multiplicity = 1

                         Standard orientation:
 ---------------------------------------------------------------------
 Center     Atomic      Atomic             Coordinates (Angstroms)
 Number     Number       Type             X           Y           Z
 ---------------------------------------------------------------------
      1         12           0        5.151986    1.048838    0.065416
      2          6           0        4.767554   -2.467524    0.505867
      3          6           0        4.558406    0.511266   -3.337190
      4          6           0        4.922456    4.340091   -0.249009
      5          6           0        5.285049    1.352182    3.480975
      6          7           0        4.566712   -0.756540   -1.223849
      7          6           0        4.568785   -2.074008   -0.840188
      8          6           0        4.392809   -3.023475   -2.081393
      9          6           0        4.748110   -2.110261   -3.218507
     10          6           0        4.605265   -0.693062   -2.584158
     11          6           0        6.167313   -2.299137   -3.862930
     12          6           0        2.996871   -3.820747   -2.145198
     13          6           0        1.827726   -3.307928   -1.221860
     14          6           0        0.359543   -3.827409   -1.395149
     15          8           0        0.069647   -4.992260   -1.480480
     16          8           0       -0.625877   -2.830697   -1.246844
     17          7           0        4.682858    2.249773   -1.559901
     18          6           0        4.538423    1.821283   -2.831148
     19          6           0        4.288756    2.991298   -3.643824
     20          6           0        4.476276    4.170674   -2.814241
     21          6           0        4.705528    3.602323   -1.472335
     22          6           0        3.886914    2.818058   -5.104024
     23          6           0        4.327635    5.638206   -3.274655
     24          8           0        4.291129    5.897283   -4.500384
     25          6           0        4.177650    6.767402   -2.315446
     26          7           0        4.791736    2.611474    1.489986
     27          6           0        5.111961    3.853862    1.033449
     28          6           0        5.573991    4.832352    2.170253
     29          6           0        5.410047    3.898799    3.421464
     30          6           0        5.160736    2.527545    2.730128
     31          6           0        7.043511    5.350040    2.006081
     32          6           0        4.116254    4.230492    4.282981
     33          6           0        3.971861    5.658063    4.820073
     34          7           0        5.080273   -0.260449    1.720003
     35          6           0        5.206810   -0.002014    3.021427
     36          6           0        5.101075   -1.251672    3.805974
     37          6           0        4.975576   -2.204746    2.835333
     38          6           0        4.992243   -1.596328    1.564442
     39          6           0        4.960479   -1.465498    5.384761
     40          6           0        4.899931   -3.611039    2.670473
     41          8           0        4.901891   -4.576896    3.412459
     42          6           0        4.739441   -3.836456    1.124903
     43          6           0        5.856625   -4.646670    0.608064
     44          8           0        5.753755   -5.520941   -0.267251
     45          8           0        7.040737   -4.352004    1.259867
     46          6           0        8.212393   -5.302103    0.947278
     47          6           0       -2.000720   -3.437035   -1.139263
     48          6           0       -3.021959   -2.280531   -0.963015
     49          6           0       -3.754550   -1.559067   -1.858136
     50          6           0       -3.653296   -1.644064   -3.352182
     51          6           0       -4.567438   -0.323547   -1.382354
     52          6           0       -6.085440   -0.412592   -1.445283
     53          6           0       -6.614116   -0.380979   -0.019047
     54          6           0       -8.174923   -0.223080    0.248635
     55          6           0       -8.524585    0.873459    1.238118
     56          6           0       -8.891380   -1.611424    0.400534
     57          6           0      -10.345937   -1.368832   -0.081568
     58          6           0      -11.428978   -1.811338    1.010454
     59          6           0      -12.425614   -0.704834    1.404272
     60          6           0      -12.721718   -0.764802    2.932127
     61          6           0      -13.776049   -0.754362    0.676556
     62          6           0      -13.664201    0.222769   -0.580971
     63          6           0      -14.841303    1.190540   -0.796025
     64          6           0      -14.879254    2.203916    0.418880
     65          6           0      -16.297911    2.402941    0.916532
     66          6           0      -14.339660    3.559146    0.028072
     67          1           0        4.641568    0.347192   -4.413254
     68          1           0        4.990328    5.429497   -0.281794
     69          1           0        5.468599    1.455128    4.552681
     70          1           0        5.154545   -3.800047   -2.025093
     71          1           0        4.063084   -2.206781   -4.061623
     72          1           0        6.044685   -2.666087   -4.881718
     73          1           0        6.743537   -2.916539   -3.173301
     74          1           0        6.623076   -1.323474   -4.033342
     75          1           0        3.168291   -4.888208   -2.008071
     76          1           0        2.654532   -3.577910   -3.151047
     77          1           0        1.834504   -2.217685   -1.240834
     78          1           0        2.099378   -3.402088   -0.170468
     79          1           0        4.630935    3.344223   -5.702414
     80          1           0        2.937562    3.251624   -5.420355
     81          1           0        3.872199    1.808966   -5.515332
     82          1           0        5.184686    7.054024   -2.010724
     83          1           0        3.561877    6.383115   -1.501979
     84          1           0        3.601087    7.570433   -2.774103
     85          1           0        4.872769    5.658476    2.287114
     86          1           0        6.306075    3.848611    4.039680
     87          1           0        7.728376    4.531713    2.226060
     88          1           0        7.214256    6.316241    2.481862
     89          1           0        7.270169    5.513395    0.952233
     90          1           0        3.868137    3.578611    5.121479
     91          1           0        3.284400    4.163696    3.582410
     92          1           0        3.148298    6.233612    4.396457
     93          1           0        4.826693    6.320154    4.686245
     94          1           0        3.897434    5.542509    5.900747
     95          1           0        4.001177   -1.865181    5.714072
     96          1           0        5.060988   -0.502769    5.886307
     97          1           0        5.734033   -2.152539    5.727428
     98          1           0        3.864787   -4.416790    0.830287
     99          1           0        8.176876   -6.003689    1.780289
    100          1           0        9.166679   -4.821499    1.161853
    101          1           0        8.249011   -5.879139    0.023255
    102          1           0       -2.096364   -4.181850   -0.348914
    103          1           0       -2.147859   -3.916625   -2.106880
    104          1           0       -3.186255   -2.083281    0.096502
    105          1           0       -3.395980   -0.640129   -3.689537
    106          1           0       -4.683089   -1.727508   -3.699209
    107          1           0       -2.931100   -2.369053   -3.727609
    108          1           0       -4.260611    0.562615   -1.936382
    109          1           0       -4.208864   -0.003161   -0.404110
    110          1           0       -6.415114   -1.259628   -2.047441
    111          1           0       -6.469687    0.494390   -1.912307
    112          1           0       -6.107636    0.410368    0.532027
    113          1           0       -6.246760   -1.310235    0.415734
    114          1           0       -8.589745    0.140360   -0.691708
    115          1           0       -8.929498    0.316637    2.082484
    116          1           0       -9.321766    1.530828    0.893373
    117          1           0       -7.671667    1.498238    1.504270
    118          1           0       -8.773934   -1.889681    1.448085
    119          1           0       -8.565916   -2.438335   -0.229822
    120          1           0      -10.431753   -1.963920   -0.990452
    121          1           0      -10.683442   -0.365475   -0.341727
    122          1           0      -10.868603   -2.121860    1.892451
    123          1           0      -12.019464   -2.657615    0.661795
    124          1           0      -11.940920    0.244278    1.172877
    125          1           0      -13.764392   -0.927030    3.208134
    126          1           0      -12.528155    0.262177    3.242626
    127          1           0      -12.170008   -1.506219    3.510112
    128          1           0      -14.605662   -0.436226    1.308423
    129          1           0      -13.943558   -1.758286    0.285866
    130          1           0      -13.622037   -0.341400   -1.513098
    131          1           0      -12.726916    0.765320   -0.705282
    132          1           0      -15.854447    0.796824   -0.716831
    133          1           0      -14.646564    1.797752   -1.680408
    134          1           0      -14.301943    1.821012    1.260716
    135          1           0      -16.327736    3.198343    1.662176
    136          1           0      -16.758200    1.530911    1.379947
    137          1           0      -16.877956    2.613912    0.017991
    138          1           0      -13.737100    3.916098    0.863505
    139          1           0      -15.157339    4.263143   -0.127214
    140          1           0      -13.651531    3.530909   -0.816841
 ---------------------------------------------------------------------

 SCF Done:  E(RPBE1PBE) =  -3005.33753728     A.U. after   15 cycles

 Excitation energies and oscillator strengths:

 Excited State   1:      Singlet-A      1.8638 eV  665.23 nm  f=0.3572  <S**2>=0.000
     245 -> 248       -0.17184
     246 -> 247        0.69258
     246 <- 247       -0.10772
 This state for optimization and/or second-order correction.
 Total Energy, E(TD-HF/TD-DFT) =  -3005.26904508
 Copying the excited state density for this state as the 1-particle RhoCI density.

 Excited State   2:      Singlet-A      2.2502 eV  550.99 nm  f=0.1059  <S**2>=0.000
     245 -> 247        0.65007
     246 -> 248        0.26560

 Excited State   3:      Singlet-A      2.9586 eV  419.07 nm  f=0.0012  <S**2>=0.000
     241 -> 247        0.64812
     241 -> 249        0.15805
     244 -> 247       -0.16734

 Excited State   4:      Singlet-A      2.9820 eV  415.77 nm  f=0.0026  <S**2>=0.000
     241 -> 247        0.15575
     243 -> 247       -0.18099
     244 -> 247        0.64932

 Excited State   5:      Singlet-A      3.0024 eV  412.95 nm  f=0.0004  <S**2>=0.000
     242 -> 247        0.66696
     242 -> 249       -0.15266

 The electronic state is 1-A.
 Alpha  occ. eigenvalues --  -46.93958 -19.26178 -19.24382 -19.20086 -19.19684
 Alpha  occ. eigenvalues --  -19.19344 -19.18623 -14.42337 -14.41786 -14.39781
 Alpha  occ. eigenvalues --  -14.39671 -10.36598 -10.36020 -10.32388 -10.31980
 Alpha  occ. eigenvalues --  -10.29546 -10.29532 -10.29107 -10.29025 -10.28966
 Alpha  occ. eigenvalues --  -10.28902 -10.28619 -10.28273 -10.27505 -10.26798
 Alpha  occ. eigenvalues --  -10.26671 -10.26569 -10.26273 -10.26211 -10.26199
 Alpha  occ. eigenvalues --  -10.25922 -10.25788 -10.25586 -10.25265 -10.25259
 Alpha  occ. eigenvalues --  -10.25201 -10.25126 -10.25035 -10.25020 -10.24648
 Alpha  occ. eigenvalues --  -10.24612 -10.24499 -10.24422 -10.24021 -10.23683
 Alpha  occ. eigenvalues --  -10.23255 -10.23150 -10.23067 -10.23021 -10.22981
 Alpha  occ. eigenvalues --  -10.22976 -10.22868 -10.22835 -10.22682 -10.22636
 Alpha  occ. eigenvalues --  -10.22570 -10.22365 -10.22361 -10.22279 -10.22098
 Alpha  occ. eigenvalues --  -10.22023 -10.22020 -10.21930 -10.21474 -10.21351
 Alpha  occ. eigenvalues --  -10.21229  -3.15953  -1.88748  -1.88364  -1.88151
 Alpha  occ. eigenvalues --   -1.09716  -1.09652  -1.04882  -1.02748  -1.01389
 Alpha  occ. eigenvalues --   -1.01302  -1.00881  -0.99949  -0.98779  -0.97924
 Alpha  occ. eigenvalues --   -0.88343  -0.84180  -0.83673  -0.83416  -0.83285
 Alpha  occ. eigenvalues --   -0.83165  -0.82584  -0.81941  -0.81423  -0.80690
 Alpha  occ. eigenvalues --   -0.79700  -0.79262  -0.78505  -0.78314  -0.77605
 Alpha  occ. eigenvalues --   -0.76662  -0.76066  -0.75282  -0.75077  -0.74510
 Alpha  occ. eigenvalues --   -0.73971  -0.72325  -0.72182  -0.71577  -0.71084
 Alpha  occ. eigenvalues --   -0.69896  -0.69379  -0.69265  -0.68646  -0.68234
 Alpha  occ. eigenvalues --   -0.68013  -0.66849  -0.66345  -0.64713  -0.64140
 Alpha  occ. eigenvalues --   -0.63716  -0.61867  -0.61444  -0.60842  -0.60562
 Alpha  occ. eigenvalues --   -0.59920  -0.59643  -0.59309  -0.59279  -0.57913
 Alpha  occ. eigenvalues --   -0.57355  -0.56843  -0.56353  -0.56219  -0.55121
 Alpha  occ. eigenvalues --   -0.54794  -0.53846  -0.53594  -0.53297  -0.52554
 Alpha  occ. eigenvalues --   -0.51617  -0.51144  -0.50913  -0.50278  -0.50121
 Alpha  occ. eigenvalues --   -0.49870  -0.49801  -0.48819  -0.48814  -0.48606
 Alpha  occ. eigenvalues --   -0.48080  -0.47867  -0.47620  -0.47239  -0.47103
 Alpha  occ. eigenvalues --   -0.47042  -0.46901  -0.46562  -0.46364  -0.46204
 Alpha  occ. eigenvalues --   -0.45931  -0.45844  -0.45526  -0.45331  -0.45018
 Alpha  occ. eigenvalues --   -0.44733  -0.44483  -0.44328  -0.44099  -0.43904
 Alpha  occ. eigenvalues --   -0.43788  -0.43716  -0.43484  -0.43337  -0.43077
 Alpha  occ. eigenvalues --   -0.43001  -0.42848  -0.42776  -0.42634  -0.42170
 Alpha  occ. eigenvalues --   -0.42042  -0.41932  -0.41863  -0.41520  -0.41439
 Alpha  occ. eigenvalues --   -0.41181  -0.41065  -0.40822  -0.40671  -0.40586
 Alpha  occ. eigenvalues --   -0.39887  -0.39811  -0.39700  -0.39647  -0.39608
 Alpha  occ. eigenvalues --   -0.39244  -0.39195  -0.38954  -0.38850  -0.38749
 Alpha  occ. eigenvalues --   -0.38480  -0.38293  -0.38219  -0.38087  -0.38060
 Alpha  occ. eigenvalues --   -0.37865  -0.37790  -0.37690  -0.37477  -0.37236
 Alpha  occ. eigenvalues --   -0.37120  -0.36819  -0.36494  -0.36183  -0.36105
 Alpha  occ. eigenvalues --   -0.35743  -0.35631  -0.35566  -0.35246  -0.34779
 Alpha  occ. eigenvalues --   -0.34746  -0.34536  -0.34338  -0.34231  -0.33564
 Alpha  occ. eigenvalues --   -0.33370  -0.32902  -0.32565  -0.32386  -0.32379
 Alpha  occ. eigenvalues --   -0.32182  -0.32104  -0.31279  -0.31163  -0.30659
 Alpha  occ. eigenvalues --   -0.30435  -0.30284  -0.30088  -0.29811  -0.28990
 Alpha  occ. eigenvalues --   -0.28920  -0.28700  -0.28457  -0.27378  -0.26738
 Alpha  occ. eigenvalues --   -0.25792  -0.25462  -0.25283  -0.25268  -0.21408
 Alpha  occ. eigenvalues --   -0.19150
 Alpha virt. eigenvalues --   -0.11496  -0.05578  -0.04257  -0.02538  -0.02133
 Alpha virt. eigenvalues --    0.00021   0.00245   0.00698   0.01449   0.02747
 Alpha virt. eigenvalues --    0.04051   0.04409   0.05216   0.05307   0.06121

 Mulliken charges:
               1
     1  Mg   0.944891
     2  C   -0.073082
     3  C   -0.075118
     4  C   -0.055657
     5  C   -0.062478
     6  N   -0.344270
     7  C   -0.004102
     8  C   -0.048984
     9  C   -0.150197
    10  C    0.047343
    11  C    0.023481
    12  C    0.036200
    13  C   -0.066754
    14  C    0.259011
    15  O   -0.248450
    16  O   -0.390472
    17  N   -0.483321
    18  C    0.193095
    19  C   -0.155735
    20  C   -0.095673
    21  C    0.180678
    22  C    0.058041
    23  C    0.041261
    24  O   -0.268595
    25  C   -0.006749
    26  N   -0.347220
    27  C    0.036386
    28  C   -0.120147
    29  C   -0.084494
    30  C    0.058590
    31  C    0.028671
    32  C   -0.041186
    33  C   -0.073305
    34  N   -0.433903
    35  C    0.097335
    36  C   -0.174294
    37  C   -0.044213
    38  C    0.186230
    39  C    0.058583
    40  C    0.182861
    41  O   -0.201937
    42  C   -0.131950
    43  C    0.303965
    44  O   -0.278616
    45  O   -0.383520
    46  C    0.119135
    47  C    0.230142
    48  C   -0.136899
    49  C   -0.181330
    50  C    0.059276
    51  C   -0.021074
    52  C   -0.010649
    53  C   -0.031576
    54  C   -0.234381
    55  C    0.008650
    56  C    0.008481
    57  C   -0.074671
    58  C    0.019756
    59  C   -0.260145
    60  C   -0.022187
    61  C    0.038942
    62  C   -0.077673
    63  C    0.018408
    64  C   -0.283429
    65  C   -0.030245
    66  C    0.001266
    67  H    0.015322
    68  H   -0.000558
    69  H   -0.000047
    70  H    0.058506
    71  H    0.039065
    72  H    0.046478
    73  H    0.057314
    74  H    0.039214
    75  H    0.073824
    76  H    0.036950
    77  H    0.054377
    78  H    0.063520
    79  H    0.056747
    80  H    0.057615
    81  H    0.023558
    82  H    0.079210
    83  H    0.057868
    84  H    0.063842
    85  H    0.049198
    86  H    0.038462
    87  H    0.039425
    88  H    0.057422
    89  H    0.028880
    90  H    0.047950
    91  H    0.041359
    92  H    0.049076
    93  H    0.031877
    94  H    0.042258
    95  H    0.067443
    96  H    0.031312
    97  H    0.066340
    98  H    0.075802
    99  H    0.060381
   100  H    0.056074
   101  H    0.084992
   102  H    0.060374
   103  H    0.040961
   104  H    0.025335
   105  H    0.039877
   106  H    0.035975
   107  H    0.053326
   108  H    0.030512
   109  H    0.027736
   110  H    0.037527
   111  H    0.022309
   112  H    0.014175
   113  H    0.025603
   114  H    0.030714
   115  H    0.029837
   116  H    0.037992
   117  H    0.041635
   118  H    0.038216
   119  H    0.035348
   120  H    0.028832
   121  H    0.040046
   122  H    0.023755
   123  H    0.020622
   124  H    0.039634
   125  H    0.027883
   126  H    0.034871
   127  H    0.035245
   128  H    0.043502
   129  H    0.033323
   130  H    0.018018
   131  H    0.024444
   132  H    0.023312
   133  H    0.025363
   134  H    0.037205
   135  H    0.037852
   136  H    0.030883
   137  H    0.036145
   138  H    0.025796
   139  H    0.035544
   140  H    0.027220
 Sum of Mulliken charges =  -0.00000

 Dipole moment (field-independent basis, Debye):
    X=              2.6349    Y=              4.8814    Z=              1.8536  Tot=              5.8486
 Quadrupole moment (field-independent basis, Debye-Ang):
   XX=           -355.0408   YY=           -433.4123   ZZ=           -402.1104
   XY=              9.8434   XZ=             13.2737   YZ=             36.7850

 Normal termination of Gaussian 16 at Tue May  3 23:19:37 2022.
