 Gaussian 16, Revision A.03,
 Gaussian 16:  ES64L-G16RevA.03 25-Dec-2016

 --------------------------------
 #p wB97XD/Def2SVP td=(nstates=5)
 --------------------------------

 -----------------------------------------------------
 step_1101_chromophore_14 TDDFT with wB97XD functional
 -----------------------------------------------------
 Symbolic Z-matrix:
 Charge =  0 Multiplicity = 1

                         Standard orientation:
 ---------------------------------------------------------------------
 Center     Atomic      Atomic             Coordinates (Angstroms)
 Number     Number       Type             X           Y           Z
 ---------------------------------------------------------------------
      1         12           0        5.151986    1.048838    0.065416
      2          6           0        4.767554   -2.467524    0.505867
      3          6           0        4.558406    0.511266   -3.337190
      4          6           0        4.922456    4.340091   -0.249009
      5          6           0        5.285049    1.352182    3.480975
      6          7           0        4.566712   -0.756540   -1.223849
      7          6           0        4.568785   -2.074008   -0.840188
      8          6           0        4.392809   -3.023475   -2.081393
      9          6           0        4.748110   -2.110261   -3.218507
     10          6           0        4.605265   -0.693062   -2.584158
     11          6           0        6.167313   -2.299137   -3.862930
     12          6           0        2.996871   -3.820747   -2.145198
     13          6           0        1.827726   -3.307928   -1.221860
     14          6           0        0.359543   -3.827409   -1.395149
     15          8           0        0.069647   -4.992260   -1.480480
     16          8           0       -0.625877   -2.830697   -1.246844
     17          7           0        4.682858    2.249773   -1.559901
     18          6           0        4.538423    1.821283   -2.831148
     19          6           0        4.288756    2.991298   -3.643824
     20          6           0        4.476276    4.170674   -2.814241
     21          6           0        4.705528    3.602323   -1.472335
     22          6           0        3.886914    2.818058   -5.104024
     23          6           0        4.327635    5.638206   -3.274655
     24          8           0        4.291129    5.897283   -4.500384
     25          6           0        4.177650    6.767402   -2.315446
     26          7           0        4.791736    2.611474    1.489986
     27          6           0        5.111961    3.853862    1.033449
     28          6           0        5.573991    4.832352    2.170253
     29          6           0        5.410047    3.898799    3.421464
     30          6           0        5.160736    2.527545    2.730128
     31          6           0        7.043511    5.350040    2.006081
     32          6           0        4.116254    4.230492    4.282981
     33          6           0        3.971861    5.658063    4.820073
     34          7           0        5.080273   -0.260449    1.720003
     35          6           0        5.206810   -0.002014    3.021427
     36          6           0        5.101075   -1.251672    3.805974
     37          6           0        4.975576   -2.204746    2.835333
     38          6           0        4.992243   -1.596328    1.564442
     39          6           0        4.960479   -1.465498    5.384761
     40          6           0        4.899931   -3.611039    2.670473
     41          8           0        4.901891   -4.576896    3.412459
     42          6           0        4.739441   -3.836456    1.124903
     43          6           0        5.856625   -4.646670    0.608064
     44          8           0        5.753755   -5.520941   -0.267251
     45          8           0        7.040737   -4.352004    1.259867
     46          6           0        8.212393   -5.302103    0.947278
     47          6           0       -2.000720   -3.437035   -1.139263
     48          6           0       -3.021959   -2.280531   -0.963015
     49          6           0       -3.754550   -1.559067   -1.858136
     50          6           0       -3.653296   -1.644064   -3.352182
     51          6           0       -4.567438   -0.323547   -1.382354
     52          6           0       -6.085440   -0.412592   -1.445283
     53          6           0       -6.614116   -0.380979   -0.019047
     54          6           0       -8.174923   -0.223080    0.248635
     55          6           0       -8.524585    0.873459    1.238118
     56          6           0       -8.891380   -1.611424    0.400534
     57          6           0      -10.345937   -1.368832   -0.081568
     58          6           0      -11.428978   -1.811338    1.010454
     59          6           0      -12.425614   -0.704834    1.404272
     60          6           0      -12.721718   -0.764802    2.932127
     61          6           0      -13.776049   -0.754362    0.676556
     62          6           0      -13.664201    0.222769   -0.580971
     63          6           0      -14.841303    1.190540   -0.796025
     64          6           0      -14.879254    2.203916    0.418880
     65          6           0      -16.297911    2.402941    0.916532
     66          6           0      -14.339660    3.559146    0.028072
     67          1           0        4.641568    0.347192   -4.413254
     68          1           0        4.990328    5.429497   -0.281794
     69          1           0        5.468599    1.455128    4.552681
     70          1           0        5.154545   -3.800047   -2.025093
     71          1           0        4.063084   -2.206781   -4.061623
     72          1           0        6.044685   -2.666087   -4.881718
     73          1           0        6.743537   -2.916539   -3.173301
     74          1           0        6.623076   -1.323474   -4.033342
     75          1           0        3.168291   -4.888208   -2.008071
     76          1           0        2.654532   -3.577910   -3.151047
     77          1           0        1.834504   -2.217685   -1.240834
     78          1           0        2.099378   -3.402088   -0.170468
     79          1           0        4.630935    3.344223   -5.702414
     80          1           0        2.937562    3.251624   -5.420355
     81          1           0        3.872199    1.808966   -5.515332
     82          1           0        5.184686    7.054024   -2.010724
     83          1           0        3.561877    6.383115   -1.501979
     84          1           0        3.601087    7.570433   -2.774103
     85          1           0        4.872769    5.658476    2.287114
     86          1           0        6.306075    3.848611    4.039680
     87          1           0        7.728376    4.531713    2.226060
     88          1           0        7.214256    6.316241    2.481862
     89          1           0        7.270169    5.513395    0.952233
     90          1           0        3.868137    3.578611    5.121479
     91          1           0        3.284400    4.163696    3.582410
     92          1           0        3.148298    6.233612    4.396457
     93          1           0        4.826693    6.320154    4.686245
     94          1           0        3.897434    5.542509    5.900747
     95          1           0        4.001177   -1.865181    5.714072
     96          1           0        5.060988   -0.502769    5.886307
     97          1           0        5.734033   -2.152539    5.727428
     98          1           0        3.864787   -4.416790    0.830287
     99          1           0        8.176876   -6.003689    1.780289
    100          1           0        9.166679   -4.821499    1.161853
    101          1           0        8.249011   -5.879139    0.023255
    102          1           0       -2.096364   -4.181850   -0.348914
    103          1           0       -2.147859   -3.916625   -2.106880
    104          1           0       -3.186255   -2.083281    0.096502
    105          1           0       -3.395980   -0.640129   -3.689537
    106          1           0       -4.683089   -1.727508   -3.699209
    107          1           0       -2.931100   -2.369053   -3.727609
    108          1           0       -4.260611    0.562615   -1.936382
    109          1           0       -4.208864   -0.003161   -0.404110
    110          1           0       -6.415114   -1.259628   -2.047441
    111          1           0       -6.469687    0.494390   -1.912307
    112          1           0       -6.107636    0.410368    0.532027
    113          1           0       -6.246760   -1.310235    0.415734
    114          1           0       -8.589745    0.140360   -0.691708
    115          1           0       -8.929498    0.316637    2.082484
    116          1           0       -9.321766    1.530828    0.893373
    117          1           0       -7.671667    1.498238    1.504270
    118          1           0       -8.773934   -1.889681    1.448085
    119          1           0       -8.565916   -2.438335   -0.229822
    120          1           0      -10.431753   -1.963920   -0.990452
    121          1           0      -10.683442   -0.365475   -0.341727
    122          1           0      -10.868603   -2.121860    1.892451
    123          1           0      -12.019464   -2.657615    0.661795
    124          1           0      -11.940920    0.244278    1.172877
    125          1           0      -13.764392   -0.927030    3.208134
    126          1           0      -12.528155    0.262177    3.242626
    127          1           0      -12.170008   -1.506219    3.510112
    128          1           0      -14.605662   -0.436226    1.308423
    129          1           0      -13.943558   -1.758286    0.285866
    130          1           0      -13.622037   -0.341400   -1.513098
    131          1           0      -12.726916    0.765320   -0.705282
    132          1           0      -15.854447    0.796824   -0.716831
    133          1           0      -14.646564    1.797752   -1.680408
    134          1           0      -14.301943    1.821012    1.260716
    135          1           0      -16.327736    3.198343    1.662176
    136          1           0      -16.758200    1.530911    1.379947
    137          1           0      -16.877956    2.613912    0.017991
    138          1           0      -13.737100    3.916098    0.863505
    139          1           0      -15.157339    4.263143   -0.127214
    140          1           0      -13.651531    3.530909   -0.816841
 ---------------------------------------------------------------------

 SCF Done:  E(RwB97XD) =  -3007.84750162     A.U. after   17 cycles

 Excitation energies and oscillator strengths:

 Excited State   1:      Singlet-A      1.6482 eV  752.25 nm  f=0.3669  <S**2>=0.000
     245 -> 248       -0.18516
     246 -> 247        0.68310
     245 <- 248       -0.11732
 This state for optimization and/or second-order correction.
 Total Energy, E(TD-HF/TD-DFT) =  -3007.78693245
 Copying the excited state density for this state as the 1-particle RhoCI density.

 Excited State   2:      Singlet-A      2.1964 eV  564.49 nm  f=0.1021  <S**2>=0.000
     245 -> 247        0.63473
     246 -> 248        0.29902

 Excited State   3:      Singlet-A      3.4092 eV  363.68 nm  f=0.0010  <S**2>=0.000
     244 -> 247        0.67511
     244 -> 249       -0.10365

 Excited State   4:      Singlet-A      3.4698 eV  357.33 nm  f=0.0900  <S**2>=0.000
     241 -> 247        0.50481
     241 -> 249        0.27089
     241 -> 250       -0.12632
     241 -> 251        0.14195
     245 -> 247        0.11206
     246 -> 248       -0.27055

 Excited State   5:      Singlet-A      3.5609 eV  348.18 nm  f=0.4819  <S**2>=0.000
     240 -> 247       -0.26489
     241 -> 247        0.17041
     241 -> 249        0.12507
     245 -> 247       -0.24091
     246 -> 248        0.52006
     246 -> 250        0.10144

 The electronic state is 1-A.
 Alpha  occ. eigenvalues --  -46.96946 -19.30822 -19.28944 -19.24855 -19.24369
 Alpha  occ. eigenvalues --  -19.24296 -19.23344 -14.47535 -14.46780 -14.44689
 Alpha  occ. eigenvalues --  -14.44648 -10.43494 -10.42812 -10.39121 -10.38969
 Alpha  occ. eigenvalues --  -10.36137 -10.35816 -10.35427 -10.35396 -10.35304
 Alpha  occ. eigenvalues --  -10.35239 -10.34943 -10.34689 -10.33739 -10.33153
 Alpha  occ. eigenvalues --  -10.33077 -10.32886 -10.32715 -10.32597 -10.32418
 Alpha  occ. eigenvalues --  -10.32187 -10.32103 -10.32017 -10.31763 -10.31538
 Alpha  occ. eigenvalues --  -10.31518 -10.31483 -10.31472 -10.31326 -10.31162
 Alpha  occ. eigenvalues --  -10.30901 -10.30877 -10.30708 -10.30380 -10.30194
 Alpha  occ. eigenvalues --  -10.29633 -10.29519 -10.29416 -10.29400 -10.29380
 Alpha  occ. eigenvalues --  -10.29343 -10.29334 -10.29095 -10.29060 -10.28992
 Alpha  occ. eigenvalues --  -10.28930 -10.28717 -10.28713 -10.28546 -10.28454
 Alpha  occ. eigenvalues --  -10.28452 -10.28388 -10.28285 -10.27903 -10.27752
 Alpha  occ. eigenvalues --  -10.27650  -3.22817  -1.96359  -1.95972  -1.95760
 Alpha  occ. eigenvalues --   -1.17221  -1.17033  -1.12486  -1.10165  -1.08757
 Alpha  occ. eigenvalues --   -1.08740  -1.08228  -1.07324  -1.06135  -1.05293
 Alpha  occ. eigenvalues --   -0.96041  -0.91850  -0.91340  -0.90983  -0.90868
 Alpha  occ. eigenvalues --   -0.90775  -0.90246  -0.89570  -0.89074  -0.88333
 Alpha  occ. eigenvalues --   -0.87316  -0.86934  -0.86157  -0.85951  -0.85255
 Alpha  occ. eigenvalues --   -0.84347  -0.83729  -0.82942  -0.82718  -0.82183
 Alpha  occ. eigenvalues --   -0.81642  -0.79993  -0.79844  -0.79208  -0.78737
 Alpha  occ. eigenvalues --   -0.77492  -0.77052  -0.76959  -0.76317  -0.75894
 Alpha  occ. eigenvalues --   -0.75590  -0.74464  -0.73874  -0.72332  -0.71675
 Alpha  occ. eigenvalues --   -0.71257  -0.69503  -0.68961  -0.68476  -0.67997
 Alpha  occ. eigenvalues --   -0.67444  -0.67251  -0.66797  -0.66760  -0.65596
 Alpha  occ. eigenvalues --   -0.64873  -0.64489  -0.63864  -0.63801  -0.62574
 Alpha  occ. eigenvalues --   -0.62165  -0.61254  -0.61067  -0.60729  -0.59917
 Alpha  occ. eigenvalues --   -0.59169  -0.58565  -0.58347  -0.57804  -0.57572
 Alpha  occ. eigenvalues --   -0.57296  -0.57202  -0.56300  -0.56291  -0.56008
 Alpha  occ. eigenvalues --   -0.55539  -0.55224  -0.54954  -0.54653  -0.54538
 Alpha  occ. eigenvalues --   -0.54415  -0.54223  -0.53913  -0.53763  -0.53598
 Alpha  occ. eigenvalues --   -0.53400  -0.53203  -0.52899  -0.52721  -0.52367
 Alpha  occ. eigenvalues --   -0.52146  -0.51840  -0.51641  -0.51438  -0.51251
 Alpha  occ. eigenvalues --   -0.51079  -0.51008  -0.50805  -0.50596  -0.50359
 Alpha  occ. eigenvalues --   -0.50297  -0.50156  -0.50061  -0.49916  -0.49352
 Alpha  occ. eigenvalues --   -0.49307  -0.49212  -0.49082  -0.48740  -0.48694
 Alpha  occ. eigenvalues --   -0.48399  -0.48316  -0.48059  -0.47885  -0.47803
 Alpha  occ. eigenvalues --   -0.47054  -0.46988  -0.46893  -0.46864  -0.46742
 Alpha  occ. eigenvalues --   -0.46470  -0.46350  -0.46120  -0.46008  -0.45868
 Alpha  occ. eigenvalues --   -0.45578  -0.45466  -0.45351  -0.45251  -0.45171
 Alpha  occ. eigenvalues --   -0.44994  -0.44946  -0.44814  -0.44597  -0.44392
 Alpha  occ. eigenvalues --   -0.44245  -0.43844  -0.43526  -0.43316  -0.43234
 Alpha  occ. eigenvalues --   -0.42779  -0.42731  -0.42601  -0.42255  -0.41806
 Alpha  occ. eigenvalues --   -0.41765  -0.41566  -0.41312  -0.41279  -0.40616
 Alpha  occ. eigenvalues --   -0.40428  -0.39855  -0.39624  -0.39431  -0.39366
 Alpha  occ. eigenvalues --   -0.39229  -0.38947  -0.38296  -0.38284  -0.37767
 Alpha  occ. eigenvalues --   -0.37490  -0.37180  -0.36915  -0.36765  -0.35923
 Alpha  occ. eigenvalues --   -0.35775  -0.35743  -0.35368  -0.34006  -0.33375
 Alpha  occ. eigenvalues --   -0.32984  -0.32593  -0.31978  -0.31807  -0.26399
 Alpha  occ. eigenvalues --   -0.23313
 Alpha virt. eigenvalues --   -0.07344  -0.00162   0.02021   0.03530   0.04276
 Alpha virt. eigenvalues --    0.06728   0.06977   0.07440   0.08305   0.09520
 Alpha virt. eigenvalues --    0.10575   0.10940   0.11896   0.12002   0.12794

 Mulliken charges:
               1
     1  Mg   0.940097
     2  C   -0.068636
     3  C   -0.090897
     4  C   -0.076162
     5  C   -0.086635
     6  N   -0.308203
     7  C   -0.039042
     8  C   -0.028571
     9  C   -0.124064
    10  C    0.030599
    11  C    0.033736
    12  C    0.044915
    13  C   -0.042160
    14  C    0.251780
    15  O   -0.247300
    16  O   -0.391112
    17  N   -0.447239
    18  C    0.181721
    19  C   -0.145158
    20  C   -0.092174
    21  C    0.176649
    22  C    0.067231
    23  C    0.036069
    24  O   -0.264593
    25  C    0.006488
    26  N   -0.319288
    27  C    0.031049
    28  C   -0.094573
    29  C   -0.062876
    30  C    0.051722
    31  C    0.038986
    32  C   -0.025965
    33  C   -0.061269
    34  N   -0.394264
    35  C    0.093196
    36  C   -0.183022
    37  C   -0.032748
    38  C    0.161931
    39  C    0.073546
    40  C    0.166080
    41  O   -0.191031
    42  C   -0.088120
    43  C    0.279537
    44  O   -0.272364
    45  O   -0.384754
    46  C    0.134394
    47  C    0.246248
    48  C   -0.144783
    49  C   -0.170298
    50  C    0.073548
    51  C   -0.001770
    52  C    0.003266
    53  C   -0.012070
    54  C   -0.198589
    55  C    0.019971
    56  C    0.018472
    57  C   -0.050573
    58  C    0.031165
    59  C   -0.220839
    60  C   -0.009891
    61  C    0.051603
    62  C   -0.056005
    63  C    0.033453
    64  C   -0.253773
    65  C   -0.013718
    66  C    0.011561
    67  H    0.009701
    68  H   -0.011371
    69  H   -0.006689
    70  H    0.043120
    71  H    0.029494
    72  H    0.041734
    73  H    0.051295
    74  H    0.031616
    75  H    0.070546
    76  H    0.027528
    77  H    0.045046
    78  H    0.050567
    79  H    0.052132
    80  H    0.053979
    81  H    0.018741
    82  H    0.075136
    83  H    0.051193
    84  H    0.062512
    85  H    0.038795
    86  H    0.030115
    87  H    0.032725
    88  H    0.052996
    89  H    0.021622
    90  H    0.041302
    91  H    0.031457
    92  H    0.044149
    93  H    0.024405
    94  H    0.036977
    95  H    0.063255
    96  H    0.025656
    97  H    0.062158
    98  H    0.068464
    99  H    0.056258
   100  H    0.052945
   101  H    0.082611
   102  H    0.056785
   103  H    0.033960
   104  H    0.021626
   105  H    0.033249
   106  H    0.028531
   107  H    0.049047
   108  H    0.023392
   109  H    0.018810
   110  H    0.029281
   111  H    0.014339
   112  H    0.002877
   113  H    0.013575
   114  H    0.014173
   115  H    0.020921
   116  H    0.032901
   117  H    0.036950
   118  H    0.028715
   119  H    0.029361
   120  H    0.022253
   121  H    0.021321
   122  H    0.011307
   123  H    0.012328
   124  H    0.020337
   125  H    0.021748
   126  H    0.028891
   127  H    0.030175
   128  H    0.031237
   129  H    0.025533
   130  H    0.010082
   131  H    0.012439
   132  H    0.014308
   133  H    0.017626
   134  H    0.020794
   135  H    0.031798
   136  H    0.024692
   137  H    0.027353
   138  H    0.020194
   139  H    0.029406
   140  H    0.021037
 Sum of Mulliken charges =  -0.00000

 Dipole moment (field-independent basis, Debye):
    X=              2.7157    Y=              4.7240    Z=              1.9217  Tot=              5.7779
 Quadrupole moment (field-independent basis, Debye-Ang):
   XX=           -353.5897   YY=           -432.9531   ZZ=           -402.1465
   XY=              8.7743   XZ=             13.5294   YZ=             36.0973

 Normal termination of Gaussian 16 at Tue May  3 23:51:10 2022.
