 Gaussian 16, Revision A.03,
 Gaussian 16:  ES64L-G16RevA.03 25-Dec-2016

 --------------------
 #p ZINDO=(nstates=5)
 --------------------

 ------------------------------
 step_1101_chromophore_14 ZINDO
 ------------------------------
 Symbolic Z-matrix:
 Charge =  0 Multiplicity = 1

                         Standard orientation:
 ---------------------------------------------------------------------
 Center     Atomic      Atomic             Coordinates (Angstroms)
 Number     Number       Type             X           Y           Z
 ---------------------------------------------------------------------
      1         12           0        5.151986    1.048838    0.065416
      2          6           0        4.767554   -2.467524    0.505867
      3          6           0        4.558406    0.511266   -3.337190
      4          6           0        4.922456    4.340091   -0.249009
      5          6           0        5.285049    1.352182    3.480975
      6          7           0        4.566712   -0.756540   -1.223849
      7          6           0        4.568785   -2.074008   -0.840188
      8          6           0        4.392809   -3.023475   -2.081393
      9          6           0        4.748110   -2.110261   -3.218507
     10          6           0        4.605265   -0.693062   -2.584158
     11          6           0        6.167313   -2.299137   -3.862930
     12          6           0        2.996871   -3.820747   -2.145198
     13          6           0        1.827726   -3.307928   -1.221860
     14          6           0        0.359543   -3.827409   -1.395149
     15          8           0        0.069647   -4.992260   -1.480480
     16          8           0       -0.625877   -2.830697   -1.246844
     17          7           0        4.682858    2.249773   -1.559901
     18          6           0        4.538423    1.821283   -2.831148
     19          6           0        4.288756    2.991298   -3.643824
     20          6           0        4.476276    4.170674   -2.814241
     21          6           0        4.705528    3.602323   -1.472335
     22          6           0        3.886914    2.818058   -5.104024
     23          6           0        4.327635    5.638206   -3.274655
     24          8           0        4.291129    5.897283   -4.500384
     25          6           0        4.177650    6.767402   -2.315446
     26          7           0        4.791736    2.611474    1.489986
     27          6           0        5.111961    3.853862    1.033449
     28          6           0        5.573991    4.832352    2.170253
     29          6           0        5.410047    3.898799    3.421464
     30          6           0        5.160736    2.527545    2.730128
     31          6           0        7.043511    5.350040    2.006081
     32          6           0        4.116254    4.230492    4.282981
     33          6           0        3.971861    5.658063    4.820073
     34          7           0        5.080273   -0.260449    1.720003
     35          6           0        5.206810   -0.002014    3.021427
     36          6           0        5.101075   -1.251672    3.805974
     37          6           0        4.975576   -2.204746    2.835333
     38          6           0        4.992243   -1.596328    1.564442
     39          6           0        4.960479   -1.465498    5.384761
     40          6           0        4.899931   -3.611039    2.670473
     41          8           0        4.901891   -4.576896    3.412459
     42          6           0        4.739441   -3.836456    1.124903
     43          6           0        5.856625   -4.646670    0.608064
     44          8           0        5.753755   -5.520941   -0.267251
     45          8           0        7.040737   -4.352004    1.259867
     46          6           0        8.212393   -5.302103    0.947278
     47          6           0       -2.000720   -3.437035   -1.139263
     48          6           0       -3.021959   -2.280531   -0.963015
     49          6           0       -3.754550   -1.559067   -1.858136
     50          6           0       -3.653296   -1.644064   -3.352182
     51          6           0       -4.567438   -0.323547   -1.382354
     52          6           0       -6.085440   -0.412592   -1.445283
     53          6           0       -6.614116   -0.380979   -0.019047
     54          6           0       -8.174923   -0.223080    0.248635
     55          6           0       -8.524585    0.873459    1.238118
     56          6           0       -8.891380   -1.611424    0.400534
     57          6           0      -10.345937   -1.368832   -0.081568
     58          6           0      -11.428978   -1.811338    1.010454
     59          6           0      -12.425614   -0.704834    1.404272
     60          6           0      -12.721718   -0.764802    2.932127
     61          6           0      -13.776049   -0.754362    0.676556
     62          6           0      -13.664201    0.222769   -0.580971
     63          6           0      -14.841303    1.190540   -0.796025
     64          6           0      -14.879254    2.203916    0.418880
     65          6           0      -16.297911    2.402941    0.916532
     66          6           0      -14.339660    3.559146    0.028072
     67          1           0        4.641568    0.347192   -4.413254
     68          1           0        4.990328    5.429497   -0.281794
     69          1           0        5.468599    1.455128    4.552681
     70          1           0        5.154545   -3.800047   -2.025093
     71          1           0        4.063084   -2.206781   -4.061623
     72          1           0        6.044685   -2.666087   -4.881718
     73          1           0        6.743537   -2.916539   -3.173301
     74          1           0        6.623076   -1.323474   -4.033342
     75          1           0        3.168291   -4.888208   -2.008071
     76          1           0        2.654532   -3.577910   -3.151047
     77          1           0        1.834504   -2.217685   -1.240834
     78          1           0        2.099378   -3.402088   -0.170468
     79          1           0        4.630935    3.344223   -5.702414
     80          1           0        2.937562    3.251624   -5.420355
     81          1           0        3.872199    1.808966   -5.515332
     82          1           0        5.184686    7.054024   -2.010724
     83          1           0        3.561877    6.383115   -1.501979
     84          1           0        3.601087    7.570433   -2.774103
     85          1           0        4.872769    5.658476    2.287114
     86          1           0        6.306075    3.848611    4.039680
     87          1           0        7.728376    4.531713    2.226060
     88          1           0        7.214256    6.316241    2.481862
     89          1           0        7.270169    5.513395    0.952233
     90          1           0        3.868137    3.578611    5.121479
     91          1           0        3.284400    4.163696    3.582410
     92          1           0        3.148298    6.233612    4.396457
     93          1           0        4.826693    6.320154    4.686245
     94          1           0        3.897434    5.542509    5.900747
     95          1           0        4.001177   -1.865181    5.714072
     96          1           0        5.060988   -0.502769    5.886307
     97          1           0        5.734033   -2.152539    5.727428
     98          1           0        3.864787   -4.416790    0.830287
     99          1           0        8.176876   -6.003689    1.780289
    100          1           0        9.166679   -4.821499    1.161853
    101          1           0        8.249011   -5.879139    0.023255
    102          1           0       -2.096364   -4.181850   -0.348914
    103          1           0       -2.147859   -3.916625   -2.106880
    104          1           0       -3.186255   -2.083281    0.096502
    105          1           0       -3.395980   -0.640129   -3.689537
    106          1           0       -4.683089   -1.727508   -3.699209
    107          1           0       -2.931100   -2.369053   -3.727609
    108          1           0       -4.260611    0.562615   -1.936382
    109          1           0       -4.208864   -0.003161   -0.404110
    110          1           0       -6.415114   -1.259628   -2.047441
    111          1           0       -6.469687    0.494390   -1.912307
    112          1           0       -6.107636    0.410368    0.532027
    113          1           0       -6.246760   -1.310235    0.415734
    114          1           0       -8.589745    0.140360   -0.691708
    115          1           0       -8.929498    0.316637    2.082484
    116          1           0       -9.321766    1.530828    0.893373
    117          1           0       -7.671667    1.498238    1.504270
    118          1           0       -8.773934   -1.889681    1.448085
    119          1           0       -8.565916   -2.438335   -0.229822
    120          1           0      -10.431753   -1.963920   -0.990452
    121          1           0      -10.683442   -0.365475   -0.341727
    122          1           0      -10.868603   -2.121860    1.892451
    123          1           0      -12.019464   -2.657615    0.661795
    124          1           0      -11.940920    0.244278    1.172877
    125          1           0      -13.764392   -0.927030    3.208134
    126          1           0      -12.528155    0.262177    3.242626
    127          1           0      -12.170008   -1.506219    3.510112
    128          1           0      -14.605662   -0.436226    1.308423
    129          1           0      -13.943558   -1.758286    0.285866
    130          1           0      -13.622037   -0.341400   -1.513098
    131          1           0      -12.726916    0.765320   -0.705282
    132          1           0      -15.854447    0.796824   -0.716831
    133          1           0      -14.646564    1.797752   -1.680408
    134          1           0      -14.301943    1.821012    1.260716
    135          1           0      -16.327736    3.198343    1.662176
    136          1           0      -16.758200    1.530911    1.379947
    137          1           0      -16.877956    2.613912    0.017991
    138          1           0      -13.737100    3.916098    0.863505
    139          1           0      -15.157339    4.263143   -0.127214
    140          1           0      -13.651531    3.530909   -0.816841
 ---------------------------------------------------------------------

 SCF Done:  E(RZINDO/S) =  -474.045152621     A.U. after   20 cycles

 Excitation energies and oscillator strengths:

 Excited State   1:      Singlet-A      1.2298 eV 1008.18 nm  f=0.5731  <S**2>=0.000
     175 ->178        -0.19991
     176 ->177         0.66014
 This state for optimization and/or second-order correction.
 Total Energy, E(CIS/TDA) =  -473.999958902
 Copying the excited state density for this state as the 1-particle RhoCI density.

 Excited State   2:      Singlet-A      1.8768 eV  660.61 nm  f=0.0346  <S**2>=0.000
     175 ->177         0.54324
     176 ->178         0.42912

 Excited State   3:      Singlet-A      2.8058 eV  441.88 nm  f=0.0868  <S**2>=0.000
     175 ->177         0.13069
     176 ->178        -0.18849
     176 ->179         0.36169
     176 ->180         0.55021

 Excited State   4:      Singlet-A      2.9149 eV  425.35 nm  f=0.0132  <S**2>=0.000
     168 ->177         0.23161
     168 ->178        -0.10256
     168 ->179        -0.24555
     168 ->181         0.17850
     168 ->185        -0.11056
     170 ->177         0.27521
     170 ->178        -0.11317
     170 ->179        -0.27294
     170 ->180         0.10690
     170 ->181         0.19884
     170 ->185        -0.11730

 Excited State   5:      Singlet-A      2.9751 eV  416.74 nm  f=0.7960  <S**2>=0.000
     175 ->177        -0.32732
     176 ->178         0.44050
     176 ->179         0.37996

 The electronic state is 1-A.
 Alpha  occ. eigenvalues --   -1.87120  -1.83056  -1.80647  -1.72403  -1.71208
 Alpha  occ. eigenvalues --   -1.70089  -1.65810  -1.61363  -1.58057  -1.56887
 Alpha  occ. eigenvalues --   -1.55935  -1.50591  -1.48257  -1.47651  -1.46078
 Alpha  occ. eigenvalues --   -1.44780  -1.42111  -1.40676  -1.38365  -1.37249
 Alpha  occ. eigenvalues --   -1.35358  -1.32145  -1.31883  -1.30086  -1.28709
 Alpha  occ. eigenvalues --   -1.27819  -1.27439  -1.23260  -1.20472  -1.18460
 Alpha  occ. eigenvalues --   -1.16501  -1.14932  -1.14538  -1.14076  -1.13813
 Alpha  occ. eigenvalues --   -1.12026  -1.09940  -1.09289  -1.07284  -1.04884
 Alpha  occ. eigenvalues --   -1.02810  -1.02373  -0.99262  -0.98263  -0.95982
 Alpha  occ. eigenvalues --   -0.95372  -0.94166  -0.93662  -0.92788  -0.92418
 Alpha  occ. eigenvalues --   -0.91652  -0.90692  -0.88884  -0.88136  -0.86289
 Alpha  occ. eigenvalues --   -0.86188  -0.83577  -0.83089  -0.81891  -0.81691
 Alpha  occ. eigenvalues --   -0.79809  -0.79110  -0.77542  -0.77211  -0.77013
 Alpha  occ. eigenvalues --   -0.76855  -0.75931  -0.75609  -0.75440  -0.73931
 Alpha  occ. eigenvalues --   -0.73575  -0.72261  -0.71949  -0.71233  -0.70319
 Alpha  occ. eigenvalues --   -0.69606  -0.69382  -0.68678  -0.68211  -0.67727
 Alpha  occ. eigenvalues --   -0.66902  -0.66554  -0.65896  -0.65817  -0.65482
 Alpha  occ. eigenvalues --   -0.64660  -0.64226  -0.64031  -0.63592  -0.63368
 Alpha  occ. eigenvalues --   -0.63078  -0.62249  -0.61857  -0.61636  -0.61550
 Alpha  occ. eigenvalues --   -0.61178  -0.61137  -0.60743  -0.60379  -0.60053
 Alpha  occ. eigenvalues --   -0.59657  -0.59283  -0.58882  -0.58636  -0.58228
 Alpha  occ. eigenvalues --   -0.57624  -0.57572  -0.56919  -0.56899  -0.56344
 Alpha  occ. eigenvalues --   -0.56216  -0.56143  -0.55428  -0.55272  -0.54982
 Alpha  occ. eigenvalues --   -0.54309  -0.54265  -0.54132  -0.53749  -0.53326
 Alpha  occ. eigenvalues --   -0.53043  -0.52932  -0.52754  -0.52291  -0.52135
 Alpha  occ. eigenvalues --   -0.51585  -0.51212  -0.51171  -0.50901  -0.50647
 Alpha  occ. eigenvalues --   -0.50602  -0.50457  -0.50177  -0.49606  -0.49311
 Alpha  occ. eigenvalues --   -0.48977  -0.48619  -0.48364  -0.48254  -0.47929
 Alpha  occ. eigenvalues --   -0.47357  -0.47234  -0.47130  -0.46570  -0.46474
 Alpha  occ. eigenvalues --   -0.46246  -0.46163  -0.45894  -0.45690  -0.45506
 Alpha  occ. eigenvalues --   -0.45163  -0.44863  -0.44486  -0.44329  -0.43980
 Alpha  occ. eigenvalues --   -0.43867  -0.43424  -0.42895  -0.42471  -0.42067
 Alpha  occ. eigenvalues --   -0.41773  -0.41493  -0.41109  -0.39478  -0.38940
 Alpha  occ. eigenvalues --   -0.38558  -0.37820  -0.35684  -0.35427  -0.35227
 Alpha  occ. eigenvalues --   -0.34295  -0.33168  -0.32565  -0.32435  -0.26969
 Alpha  occ. eigenvalues --   -0.22115
 Alpha virt. eigenvalues --   -0.08856  -0.02684  -0.00913   0.00072   0.01197
 Alpha virt. eigenvalues --    0.02050   0.02125   0.02588   0.04296   0.04517
 Alpha virt. eigenvalues --    0.05852   0.06673   0.06915   0.07208   0.07708

 Mulliken charges:
               1
     1  Mg   0.445292
     2  C   -0.033098
     3  C   -0.065332
     4  C   -0.093690
     5  C   -0.103769
     6  N   -0.281378
     7  C    0.115135
     8  C    0.005673
     9  C    0.007432
    10  C    0.110893
    11  C   -0.053328
    12  C   -0.019306
    13  C    0.001072
    14  C    0.460495
    15  O   -0.494122
    16  O   -0.277386
    17  N   -0.309798
    18  C    0.100610
    19  C    0.035214
    20  C   -0.068901
    21  C    0.125112
    22  C   -0.040719
    23  C    0.328415
    24  O   -0.538629
    25  C   -0.023497
    26  N   -0.263386
    27  C    0.121130
    28  C   -0.002285
    29  C   -0.001129
    30  C    0.157568
    31  C   -0.053547
    32  C   -0.030716
    33  C   -0.060967
    34  N   -0.312131
    35  C    0.122895
    36  C    0.014686
    37  C   -0.027170
    38  C    0.099551
    39  C   -0.038308
    40  C    0.335148
    41  O   -0.512129
    42  C    0.054473
    43  C    0.489395
    44  O   -0.542850
    45  O   -0.266876
    46  C    0.066347
    47  C    0.105594
    48  C   -0.094888
    49  C    0.002305
    50  C   -0.042896
    51  C   -0.022826
    52  C   -0.020393
    53  C   -0.038943
    54  C   -0.018826
    55  C   -0.051116
    56  C   -0.029914
    57  C   -0.048347
    58  C   -0.044380
    59  C   -0.009663
    60  C   -0.067168
    61  C   -0.028541
    62  C   -0.044950
    63  C   -0.043463
    64  C   -0.019318
    65  C   -0.055230
    66  C   -0.054824
    67  H    0.036774
    68  H    0.028123
    69  H    0.020406
    70  H    0.037473
    71  H    0.024935
    72  H    0.024687
    73  H    0.035097
    74  H    0.020977
    75  H    0.047674
    76  H    0.023686
    77  H    0.027152
    78  H    0.042593
    79  H    0.031406
    80  H    0.036665
    81  H    0.020885
    82  H    0.050503
    83  H    0.028012
    84  H    0.042250
    85  H    0.036149
    86  H    0.033220
    87  H    0.027976
    88  H    0.030960
    89  H    0.012741
    90  H    0.029840
    91  H    0.017250
    92  H    0.023813
    93  H    0.013324
    94  H    0.016041
    95  H    0.038690
    96  H    0.018858
    97  H    0.037967
    98  H    0.062736
    99  H    0.034742
   100  H    0.033890
   101  H    0.064807
   102  H    0.055986
   103  H    0.041903
   104  H    0.021343
   105  H    0.024473
   106  H    0.030116
   107  H    0.033805
   108  H    0.015628
   109  H    0.018555
   110  H    0.027376
   111  H    0.012821
   112  H    0.016638
   113  H    0.012520
   114  H    0.007659
   115  H    0.018283
   116  H    0.018495
   117  H    0.024982
   118  H    0.024578
   119  H    0.026189
   120  H    0.013733
   121  H    0.029756
   122  H    0.018866
   123  H    0.018693
   124  H    0.024823
   125  H    0.015233
   126  H    0.013148
   127  H    0.022605
   128  H    0.030005
   129  H    0.024087
   130  H    0.000214
   131  H    0.026109
   132  H    0.031397
   133  H    0.023745
   134  H    0.019599
   135  H    0.014980
   136  H    0.009530
   137  H    0.018122
   138  H    0.008274
   139  H    0.022576
   140  H    0.016553
 Sum of Mulliken charges =  -0.00000

 Dipole moment (field-independent basis, Debye):
    X=              3.4564    Y=              6.8267    Z=              2.8636  Tot=              8.1701
 N-N= 4.287440156785D+03 E-N= 0.000000000000D+00  KE=-9.248492194259D+03
 Leave Link  601 at Wed May  4 00:04:08 2022, MaxMem=  6710886400 cpu:               0.8 elap:               0.1
 (Enter /sw/apps/gaussian-16.0/g16/l9999.exe)
 1\1\GINC-BP1-COMPUTE121\SP\RZINDO CIS\STO-3G\C55H74Mg1N4O6\OF15641\04-
 May-2022\0\\#p ZINDO=(nstates=5)\\step_1101_chromophore_14 ZINDO\\0,1\
 Mg,0,46.624,45.688,44.15\C,0,43.295,44.469,43.778\C,0,47.687,42.373,43
 .834\C,0,49.71,46.871,43.903\C,0,45.357,48.874,44.009\N,0,45.605,43.68
 4,43.692\C,0,44.256,43.433,43.681\C,0,43.97,41.888,43.616\C,0,45.288,4
 1.314,44.048\C,0,46.272,42.505,43.837\C,0,45.375,40.764,45.516\C,0,43.
 32,41.366,42.24\C,0,43.391,42.329,40.995\C,0,43.04,41.829,39.552\O,0,4

 Normal termination of Gaussian 16 at Wed May  4 00:04:08 2022.
