 Gaussian 16, Revision A.03,
 Gaussian 16:  ES64L-G16RevA.03 25-Dec-2016

 ------------------------------
 #p blyp/Def2SVP td=(nstates=5)
 ------------------------------

 ---------------------------------------------------
 step_1251_chromophore_23 TDDFT with blyp functional
 ---------------------------------------------------
 Symbolic Z-matrix:
 Charge =  0 Multiplicity = 1

                         Standard orientation:
 ---------------------------------------------------------------------
 Center     Atomic      Atomic             Coordinates (Angstroms)
 Number     Number       Type             X           Y           Z
 ---------------------------------------------------------------------
      1         12           0        4.920054    0.417112   -0.197372
      2          6           0        3.506600   -2.730128   -0.319086
      3          6           0        2.198193    1.642565   -2.226920
      4          6           0        6.055631    3.635512    0.080096
      5          6           0        7.175256   -0.677431    2.190082
      6          7           0        3.125264   -0.480298   -1.134226
      7          6           0        2.777303   -1.777949   -1.107452
      8          6           0        1.391776   -2.017148   -1.784946
      9          6           0        1.124606   -0.617436   -2.516907
     10          6           0        2.153981    0.255382   -1.844767
     11          6           0        1.142657   -0.668507   -4.049597
     12          6           0        0.345438   -2.401352   -0.737533
     13          6           0       -0.754458   -3.371093   -1.165169
     14          6           0       -2.011720   -2.794472   -1.800145
     15          8           0       -1.991467   -2.098673   -2.804364
     16          8           0       -3.125977   -3.146569   -1.107951
     17          7           0        4.143784    2.382052   -0.983097
     18          6           0        3.113260    2.585161   -1.842545
     19          6           0        3.057705    4.008948   -2.211561
     20          6           0        4.242710    4.614980   -1.655715
     21          6           0        4.838032    3.506024   -0.772408
     22          6           0        1.993810    4.563862   -3.128468
     23          6           0        4.717862    6.042989   -1.935219
     24          8           0        4.169726    6.803045   -2.728728
     25          6           0        5.955686    6.537049   -1.218209
     26          7           0        6.252532    1.325366    1.047039
     27          6           0        6.638656    2.658351    0.908296
     28          6           0        7.723648    3.037587    1.953336
     29          6           0        8.194550    1.680065    2.452106
     30          6           0        7.238778    0.662118    1.836337
     31          6           0        8.847119    3.972045    1.573060
     32          6           0        8.183782    1.535286    4.013909
     33          6           0        9.327773    0.741568    4.646734
     34          7           0        5.317594   -1.337454    0.840208
     35          6           0        6.248238   -1.643551    1.758191
     36          6           0        6.137487   -3.103591    2.083966
     37          6           0        5.139019   -3.604846    1.265512
     38          6           0        4.689069   -2.503332    0.524993
     39          6           0        6.900702   -3.851588    3.207426
     40          6           0        4.352369   -4.760505    0.887293
     41          8           0        4.496196   -5.951710    1.209582
     42          6           0        3.194001   -4.209090   -0.138644
     43          6           0        3.168203   -4.993693   -1.346641
     44          8           0        4.103694   -5.159894   -2.142543
     45          8           0        1.967670   -5.694052   -1.331003
     46          6           0        1.765611   -6.643574   -2.440232
     47          6           0       -4.394696   -2.875348   -1.743931
     48          6           0       -5.460484   -2.725859   -0.614598
     49          6           0       -5.896688   -1.519824   -0.156912
     50          6           0       -5.287423   -0.173342   -0.570367
     51          6           0       -7.126058   -1.474314    0.754094
     52          6           0       -8.350522   -1.829451   -0.087542
     53          6           0       -9.514430   -2.398958    0.805422
     54          6           0      -10.796438   -1.607619    0.641689
     55          6           0      -12.128964   -2.421009    0.518688
     56          6           0      -11.111071   -0.629060    1.785091
     57          6           0      -10.852677    0.855049    1.488092
     58          6           0      -10.399008    1.662746    2.764473
     59          6           0       -8.952306    1.711451    3.070959
     60          6           0       -8.513670    1.460459    4.571769
     61          6           0       -8.311459    3.018098    2.509147
     62          6           0       -7.897219    3.028914    0.996289
     63          6           0       -8.907720    3.656794   -0.000079
     64          6           0       -8.247567    4.476606   -1.106151
     65          6           0       -7.448321    3.562464   -2.108062
     66          6           0       -7.351672    5.571245   -0.574640
     67          1           0        1.330773    1.970663   -2.803548
     68          1           0        6.492253    4.631259    0.185037
     69          1           0        7.838106   -1.235294    2.854237
     70          1           0        1.514174   -2.843006   -2.486178
     71          1           0        0.118474   -0.298285   -2.243753
     72          1           0        0.243181   -0.191096   -4.437561
     73          1           0        1.132437   -1.664737   -4.490857
     74          1           0        2.026302   -0.121791   -4.377352
     75          1           0       -0.197722   -1.499952   -0.451733
     76          1           0        0.840770   -2.902408    0.094072
     77          1           0       -0.970976   -3.946121   -0.265431
     78          1           0       -0.241420   -4.027035   -1.868035
     79          1           0        2.153564    5.604819   -3.407435
     80          1           0        1.018154    4.494006   -2.645616
     81          1           0        1.936813    3.992985   -4.054876
     82          1           0        6.787993    5.882611   -1.480654
     83          1           0        5.797535    6.535373   -0.140015
     84          1           0        6.161058    7.563668   -1.524806
     85          1           0        7.069422    3.526650    2.675566
     86          1           0        9.168625    1.475889    2.007692
     87          1           0        8.990910    4.845580    2.210571
     88          1           0        8.530332    4.307743    0.585385
     89          1           0        9.780558    3.409579    1.549183
     90          1           0        7.266028    1.037432    4.327166
     91          1           0        8.193520    2.483953    4.551150
     92          1           0        8.996563    0.115190    5.474930
     93          1           0       10.008823    1.410871    5.173100
     94          1           0        9.792692    0.059882    3.933338
     95          1           0        7.690250   -3.223300    3.620130
     96          1           0        7.368255   -4.741340    2.785179
     97          1           0        6.179340   -4.061700    3.996228
     98          1           0        2.241117   -4.464366    0.325474
     99          1           0        1.563309   -5.913744   -3.224416
    100          1           0        0.838127   -7.126200   -2.132844
    101          1           0        2.508204   -7.382390   -2.741502
    102          1           0       -4.551832   -3.781081   -2.328535
    103          1           0       -4.394910   -1.989388   -2.378020
    104          1           0       -5.986461   -3.582952   -0.195588
    105          1           0       -4.309499   -0.285295   -1.038658
    106          1           0       -5.111558    0.404930    0.337130
    107          1           0       -5.977412    0.211323   -1.321444
    108          1           0       -7.252958   -0.439106    1.071286
    109          1           0       -6.959259   -2.121695    1.615089
    110          1           0       -8.191912   -2.518454   -0.916946
    111          1           0       -8.539722   -0.847377   -0.522256
    112          1           0       -9.315163   -2.403382    1.877392
    113          1           0       -9.609119   -3.441309    0.500716
    114          1           0      -10.730342   -1.001096   -0.261252
    115          1           0      -12.093984   -3.189969    1.291154
    116          1           0      -12.075009   -2.888668   -0.464419
    117          1           0      -13.025834   -1.814496    0.639475
    118          1           0      -10.576793   -0.955138    2.677418
    119          1           0      -12.158877   -0.632014    2.086308
    120          1           0      -11.843740    1.204692    1.198354
    121          1           0      -10.162670    0.940452    0.648034
    122          1           0      -10.996840    1.249760    3.577272
    123          1           0      -10.855860    2.648667    2.678950
    124          1           0       -8.515437    0.880034    2.518195
    125          1           0       -8.155690    0.440688    4.713608
    126          1           0       -9.365326    1.673220    5.217464
    127          1           0       -7.668574    2.081578    4.868865
    128          1           0       -7.478370    3.359918    3.123250
    129          1           0       -9.047164    3.822033    2.511377
    130          1           0       -7.898597    1.959012    0.788097
    131          1           0       -6.859272    3.295213    0.793348
    132          1           0       -9.588540    4.340593    0.506324
    133          1           0       -9.480436    2.879765   -0.506082
    134          1           0       -9.014775    5.042551   -1.634456
    135          1           0       -7.932979    3.592117   -3.084292
    136          1           0       -7.452523    2.488163   -1.925728
    137          1           0       -6.414004    3.893967   -2.200924
    138          1           0       -7.323914    6.324586   -1.361802
    139          1           0       -6.351202    5.237523   -0.297864
    140          1           0       -7.724223    6.009571    0.350771
 ---------------------------------------------------------------------

 SCF Done:  E(RB-LYP) =  -3007.39018307     A.U. after   20 cycles

 Excitation energies and oscillator strengths:

 Excited State   1:      Singlet-A      1.7555 eV  706.26 nm  f=0.3132  <S**2>=0.000
     245 -> 248        0.18529
     246 -> 247        0.69732
     246 <- 247       -0.16275
 This state for optimization and/or second-order correction.
 Total Energy, E(TD-HF/TD-DFT) =  -3007.32566923
 Copying the excited state density for this state as the 1-particle RhoCI density.

 Excited State   2:      Singlet-A      1.8593 eV  666.85 nm  f=0.0015  <S**2>=0.000
     244 -> 247        0.70457

 Excited State   3:      Singlet-A      2.0103 eV  616.74 nm  f=0.0761  <S**2>=0.000
     243 -> 247        0.10178
     245 -> 247        0.64105
     246 -> 248       -0.25718

 Excited State   4:      Singlet-A      2.1162 eV  585.87 nm  f=0.0012  <S**2>=0.000
     243 -> 247        0.69888

 Excited State   5:      Singlet-A      2.3359 eV  530.79 nm  f=0.0009  <S**2>=0.000
     241 -> 247       -0.14551
     242 -> 247        0.69187

 The electronic state is 1-A.
 Alpha  occ. eigenvalues --  -46.27914 -18.82412 -18.82401 -18.77125 -18.76541
 Alpha  occ. eigenvalues --  -18.76522 -18.75488 -14.04214 -14.03507 -14.01461
 Alpha  occ. eigenvalues --  -14.01082 -10.04299 -10.03374 -10.00663  -9.99856
 Alpha  occ. eigenvalues --   -9.98280  -9.97867  -9.97216  -9.97103  -9.97042
 Alpha  occ. eigenvalues --   -9.97018  -9.96869  -9.95633  -9.95164  -9.95114
 Alpha  occ. eigenvalues --   -9.94612  -9.94250  -9.94012  -9.94007  -9.93899
 Alpha  occ. eigenvalues --   -9.93849  -9.93766  -9.93528  -9.93501  -9.93308
 Alpha  occ. eigenvalues --   -9.93175  -9.93121  -9.93099  -9.93045  -9.92850
 Alpha  occ. eigenvalues --   -9.92826  -9.92788  -9.92672  -9.92665  -9.92466
 Alpha  occ. eigenvalues --   -9.92222  -9.92159  -9.91938  -9.91932  -9.91901
 Alpha  occ. eigenvalues --   -9.91843  -9.91725  -9.91703  -9.91695  -9.91627
 Alpha  occ. eigenvalues --   -9.91575  -9.91345  -9.91310  -9.91255  -9.91157
 Alpha  occ. eigenvalues --   -9.91075  -9.91031  -9.91023  -9.90966  -9.90578
 Alpha  occ. eigenvalues --   -9.90540  -2.92458  -1.72879  -1.72310  -1.72202
 Alpha  occ. eigenvalues --   -0.98663  -0.96977  -0.91051  -0.90732  -0.90582
 Alpha  occ. eigenvalues --   -0.89091  -0.86793  -0.85903  -0.85282  -0.84310
 Alpha  occ. eigenvalues --   -0.75125  -0.74151  -0.73272  -0.72925  -0.72742
 Alpha  occ. eigenvalues --   -0.72302  -0.71804  -0.71292  -0.71231  -0.69856
 Alpha  occ. eigenvalues --   -0.69423  -0.68835  -0.68319  -0.68100  -0.67163
 Alpha  occ. eigenvalues --   -0.66465  -0.65955  -0.65338  -0.65068  -0.64532
 Alpha  occ. eigenvalues --   -0.64187  -0.62294  -0.62213  -0.61247  -0.60902
 Alpha  occ. eigenvalues --   -0.60627  -0.60216  -0.59834  -0.59641  -0.59100
 Alpha  occ. eigenvalues --   -0.58595  -0.57513  -0.56971  -0.55251  -0.54687
 Alpha  occ. eigenvalues --   -0.54334  -0.54114  -0.53220  -0.52507  -0.51866
 Alpha  occ. eigenvalues --   -0.51717  -0.51176  -0.50922  -0.50009  -0.49992
 Alpha  occ. eigenvalues --   -0.49705  -0.49503  -0.48317  -0.47719  -0.46299
 Alpha  occ. eigenvalues --   -0.46008  -0.45957  -0.45504  -0.44805  -0.44459
 Alpha  occ. eigenvalues --   -0.44133  -0.43887  -0.43636  -0.43013  -0.42487
 Alpha  occ. eigenvalues --   -0.42222  -0.42081  -0.41987  -0.41459  -0.41390
 Alpha  occ. eigenvalues --   -0.40977  -0.40829  -0.40454  -0.40345  -0.40159
 Alpha  occ. eigenvalues --   -0.39817  -0.39560  -0.39399  -0.39187  -0.39035
 Alpha  occ. eigenvalues --   -0.38956  -0.38706  -0.38594  -0.38507  -0.38429
 Alpha  occ. eigenvalues --   -0.38398  -0.38130  -0.37994  -0.37626  -0.37200
 Alpha  occ. eigenvalues --   -0.37172  -0.36974  -0.36712  -0.36559  -0.36453
 Alpha  occ. eigenvalues --   -0.36264  -0.36174  -0.36127  -0.35576  -0.35479
 Alpha  occ. eigenvalues --   -0.35266  -0.35201  -0.35050  -0.34932  -0.34781
 Alpha  occ. eigenvalues --   -0.34626  -0.34346  -0.34253  -0.34244  -0.34122
 Alpha  occ. eigenvalues --   -0.34007  -0.33907  -0.33779  -0.33302  -0.33218
 Alpha  occ. eigenvalues --   -0.33169  -0.33013  -0.32710  -0.32539  -0.32284
 Alpha  occ. eigenvalues --   -0.32050  -0.31842  -0.31654  -0.31561  -0.31512
 Alpha  occ. eigenvalues --   -0.31313  -0.31180  -0.31140  -0.30979  -0.30896
 Alpha  occ. eigenvalues --   -0.30515  -0.30419  -0.30346  -0.30100  -0.29966
 Alpha  occ. eigenvalues --   -0.29819  -0.29692  -0.29502  -0.29404  -0.28955
 Alpha  occ. eigenvalues --   -0.28844  -0.28766  -0.28627  -0.28156  -0.27787
 Alpha  occ. eigenvalues --   -0.27626  -0.27004  -0.26981  -0.26763  -0.26447
 Alpha  occ. eigenvalues --   -0.26408  -0.26286  -0.26274  -0.25837  -0.25786
 Alpha  occ. eigenvalues --   -0.25213  -0.25169  -0.24952  -0.24048  -0.23815
 Alpha  occ. eigenvalues --   -0.23662  -0.22492  -0.22169  -0.21347  -0.21273
 Alpha  occ. eigenvalues --   -0.20372  -0.20344  -0.19430  -0.18527  -0.17566
 Alpha  occ. eigenvalues --   -0.15773
 Alpha virt. eigenvalues --   -0.11764  -0.06862  -0.06614  -0.05322  -0.03527
 Alpha virt. eigenvalues --   -0.03288  -0.03035  -0.02741  -0.01944  -0.00162
 Alpha virt. eigenvalues --    0.00395   0.01004   0.01804   0.02684   0.02765

 Mulliken charges:
               1
     1  Mg   0.701436
     2  C    0.062411
     3  C   -0.080883
     4  C   -0.058612
     5  C   -0.043148
     6  N   -0.215586
     7  C   -0.068083
     8  C    0.028632
     9  C    0.012412
    10  C    0.025338
    11  C    0.140852
    12  C    0.101588
    13  C    0.155922
    14  C    0.062383
    15  O   -0.204420
    16  O   -0.248901
    17  N   -0.203020
    18  C    0.138324
    19  C   -0.133886
    20  C   -0.017148
    21  C    0.082767
    22  C    0.176265
    23  C   -0.075531
    24  O   -0.154613
    25  C    0.130967
    26  N   -0.312872
    27  C    0.039581
    28  C   -0.007975
    29  C    0.089864
    30  C    0.086500
    31  C    0.156110
    32  C    0.087220
    33  C    0.058455
    34  N   -0.243246
    35  C    0.019313
    36  C   -0.195575
    37  C    0.131096
    38  C    0.029673
    39  C    0.165475
    40  C   -0.018734
    41  O   -0.139425
    42  C    0.018308
    43  C    0.099878
    44  O   -0.195084
    45  O   -0.295663
    46  C    0.222847
    47  C    0.309439
    48  C   -0.056688
    49  C   -0.223550
    50  C    0.141264
    51  C    0.130060
    52  C    0.042480
    53  C    0.173804
    54  C   -0.089004
    55  C    0.092923
    56  C    0.078722
    57  C    0.048169
    58  C    0.124127
    59  C   -0.043178
    60  C    0.105242
    61  C    0.107872
    62  C    0.053713
    63  C    0.100640
    64  C   -0.082247
    65  C    0.091205
    66  C    0.099616
    67  H   -0.051384
    68  H   -0.076750
    69  H   -0.085912
    70  H   -0.026588
    71  H   -0.017782
    72  H   -0.004559
    73  H   -0.005750
    74  H   -0.010221
    75  H   -0.018386
    76  H   -0.015778
    77  H   -0.019367
    78  H   -0.011255
    79  H    0.004822
    80  H   -0.006180
    81  H   -0.000670
    82  H    0.016947
    83  H    0.019595
    84  H   -0.014145
    85  H   -0.012095
    86  H   -0.024522
    87  H   -0.007696
    88  H   -0.008787
    89  H   -0.012074
    90  H   -0.013084
    91  H   -0.024853
    92  H   -0.022077
    93  H   -0.011842
    94  H    0.003675
    95  H   -0.023413
    96  H    0.018772
    97  H    0.018207
    98  H    0.003715
    99  H    0.005780
   100  H    0.012111
   101  H    0.040102
   102  H   -0.017126
   103  H    0.005456
   104  H   -0.044739
   105  H   -0.004631
   106  H    0.012012
   107  H    0.018332
   108  H   -0.021290
   109  H   -0.005823
   110  H   -0.014870
   111  H   -0.026487
   112  H   -0.033390
   113  H   -0.036796
   114  H   -0.038683
   115  H   -0.016004
   116  H   -0.023307
   117  H   -0.007111
   118  H   -0.042299
   119  H   -0.040725
   120  H   -0.036821
   121  H   -0.013382
   122  H   -0.050971
   123  H   -0.047005
   124  H   -0.039066
   125  H   -0.014753
   126  H   -0.010515
   127  H   -0.021365
   128  H   -0.041905
   129  H   -0.042564
   130  H   -0.047495
   131  H   -0.026886
   132  H   -0.030934
   133  H   -0.023810
   134  H   -0.039272
   135  H   -0.021314
   136  H   -0.019879
   137  H   -0.015291
   138  H   -0.011104
   139  H   -0.014996
   140  H   -0.027567
 Sum of Mulliken charges =  -0.00000

 Dipole moment (field-independent basis, Debye):
    X=             -2.2259    Y=              0.7992    Z=              2.7510  Tot=              3.6279
 Quadrupole moment (field-independent basis, Debye-Ang):
   XX=           -365.4549   YY=           -445.2672   ZZ=           -405.7165
   XY=             25.9021   XZ=             24.8419   YZ=             22.5153

 Normal termination of Gaussian 16 at Wed Apr 27 18:16:05 2022.
