 Gaussian 16, Revision A.03,
 Gaussian 16:  ES64L-G16RevA.03 25-Dec-2016

 -----------------------------------
 #p cam-b3lyp/Def2SVP td=(nstates=5)
 -----------------------------------

 --------------------------------------------------------
 step_1251_chromophore_23 TDDFT with cam-b3lyp functional
 --------------------------------------------------------
 Symbolic Z-matrix:
 Charge =  0 Multiplicity = 1

                         Standard orientation:
 ---------------------------------------------------------------------
 Center     Atomic      Atomic             Coordinates (Angstroms)
 Number     Number       Type             X           Y           Z
 ---------------------------------------------------------------------
      1         12           0        4.920054    0.417112   -0.197372
      2          6           0        3.506600   -2.730128   -0.319086
      3          6           0        2.198193    1.642565   -2.226920
      4          6           0        6.055631    3.635512    0.080096
      5          6           0        7.175256   -0.677431    2.190082
      6          7           0        3.125264   -0.480298   -1.134226
      7          6           0        2.777303   -1.777949   -1.107452
      8          6           0        1.391776   -2.017148   -1.784946
      9          6           0        1.124606   -0.617436   -2.516907
     10          6           0        2.153981    0.255382   -1.844767
     11          6           0        1.142657   -0.668507   -4.049597
     12          6           0        0.345438   -2.401352   -0.737533
     13          6           0       -0.754458   -3.371093   -1.165169
     14          6           0       -2.011720   -2.794472   -1.800145
     15          8           0       -1.991467   -2.098673   -2.804364
     16          8           0       -3.125977   -3.146569   -1.107951
     17          7           0        4.143784    2.382052   -0.983097
     18          6           0        3.113260    2.585161   -1.842545
     19          6           0        3.057705    4.008948   -2.211561
     20          6           0        4.242710    4.614980   -1.655715
     21          6           0        4.838032    3.506024   -0.772408
     22          6           0        1.993810    4.563862   -3.128468
     23          6           0        4.717862    6.042989   -1.935219
     24          8           0        4.169726    6.803045   -2.728728
     25          6           0        5.955686    6.537049   -1.218209
     26          7           0        6.252532    1.325366    1.047039
     27          6           0        6.638656    2.658351    0.908296
     28          6           0        7.723648    3.037587    1.953336
     29          6           0        8.194550    1.680065    2.452106
     30          6           0        7.238778    0.662118    1.836337
     31          6           0        8.847119    3.972045    1.573060
     32          6           0        8.183782    1.535286    4.013909
     33          6           0        9.327773    0.741568    4.646734
     34          7           0        5.317594   -1.337454    0.840208
     35          6           0        6.248238   -1.643551    1.758191
     36          6           0        6.137487   -3.103591    2.083966
     37          6           0        5.139019   -3.604846    1.265512
     38          6           0        4.689069   -2.503332    0.524993
     39          6           0        6.900702   -3.851588    3.207426
     40          6           0        4.352369   -4.760505    0.887293
     41          8           0        4.496196   -5.951710    1.209582
     42          6           0        3.194001   -4.209090   -0.138644
     43          6           0        3.168203   -4.993693   -1.346641
     44          8           0        4.103694   -5.159894   -2.142543
     45          8           0        1.967670   -5.694052   -1.331003
     46          6           0        1.765611   -6.643574   -2.440232
     47          6           0       -4.394696   -2.875348   -1.743931
     48          6           0       -5.460484   -2.725859   -0.614598
     49          6           0       -5.896688   -1.519824   -0.156912
     50          6           0       -5.287423   -0.173342   -0.570367
     51          6           0       -7.126058   -1.474314    0.754094
     52          6           0       -8.350522   -1.829451   -0.087542
     53          6           0       -9.514430   -2.398958    0.805422
     54          6           0      -10.796438   -1.607619    0.641689
     55          6           0      -12.128964   -2.421009    0.518688
     56          6           0      -11.111071   -0.629060    1.785091
     57          6           0      -10.852677    0.855049    1.488092
     58          6           0      -10.399008    1.662746    2.764473
     59          6           0       -8.952306    1.711451    3.070959
     60          6           0       -8.513670    1.460459    4.571769
     61          6           0       -8.311459    3.018098    2.509147
     62          6           0       -7.897219    3.028914    0.996289
     63          6           0       -8.907720    3.656794   -0.000079
     64          6           0       -8.247567    4.476606   -1.106151
     65          6           0       -7.448321    3.562464   -2.108062
     66          6           0       -7.351672    5.571245   -0.574640
     67          1           0        1.330773    1.970663   -2.803548
     68          1           0        6.492253    4.631259    0.185037
     69          1           0        7.838106   -1.235294    2.854237
     70          1           0        1.514174   -2.843006   -2.486178
     71          1           0        0.118474   -0.298285   -2.243753
     72          1           0        0.243181   -0.191096   -4.437561
     73          1           0        1.132437   -1.664737   -4.490857
     74          1           0        2.026302   -0.121791   -4.377352
     75          1           0       -0.197722   -1.499952   -0.451733
     76          1           0        0.840770   -2.902408    0.094072
     77          1           0       -0.970976   -3.946121   -0.265431
     78          1           0       -0.241420   -4.027035   -1.868035
     79          1           0        2.153564    5.604819   -3.407435
     80          1           0        1.018154    4.494006   -2.645616
     81          1           0        1.936813    3.992985   -4.054876
     82          1           0        6.787993    5.882611   -1.480654
     83          1           0        5.797535    6.535373   -0.140015
     84          1           0        6.161058    7.563668   -1.524806
     85          1           0        7.069422    3.526650    2.675566
     86          1           0        9.168625    1.475889    2.007692
     87          1           0        8.990910    4.845580    2.210571
     88          1           0        8.530332    4.307743    0.585385
     89          1           0        9.780558    3.409579    1.549183
     90          1           0        7.266028    1.037432    4.327166
     91          1           0        8.193520    2.483953    4.551150
     92          1           0        8.996563    0.115190    5.474930
     93          1           0       10.008823    1.410871    5.173100
     94          1           0        9.792692    0.059882    3.933338
     95          1           0        7.690250   -3.223300    3.620130
     96          1           0        7.368255   -4.741340    2.785179
     97          1           0        6.179340   -4.061700    3.996228
     98          1           0        2.241117   -4.464366    0.325474
     99          1           0        1.563309   -5.913744   -3.224416
    100          1           0        0.838127   -7.126200   -2.132844
    101          1           0        2.508204   -7.382390   -2.741502
    102          1           0       -4.551832   -3.781081   -2.328535
    103          1           0       -4.394910   -1.989388   -2.378020
    104          1           0       -5.986461   -3.582952   -0.195588
    105          1           0       -4.309499   -0.285295   -1.038658
    106          1           0       -5.111558    0.404930    0.337130
    107          1           0       -5.977412    0.211323   -1.321444
    108          1           0       -7.252958   -0.439106    1.071286
    109          1           0       -6.959259   -2.121695    1.615089
    110          1           0       -8.191912   -2.518454   -0.916946
    111          1           0       -8.539722   -0.847377   -0.522256
    112          1           0       -9.315163   -2.403382    1.877392
    113          1           0       -9.609119   -3.441309    0.500716
    114          1           0      -10.730342   -1.001096   -0.261252
    115          1           0      -12.093984   -3.189969    1.291154
    116          1           0      -12.075009   -2.888668   -0.464419
    117          1           0      -13.025834   -1.814496    0.639475
    118          1           0      -10.576793   -0.955138    2.677418
    119          1           0      -12.158877   -0.632014    2.086308
    120          1           0      -11.843740    1.204692    1.198354
    121          1           0      -10.162670    0.940452    0.648034
    122          1           0      -10.996840    1.249760    3.577272
    123          1           0      -10.855860    2.648667    2.678950
    124          1           0       -8.515437    0.880034    2.518195
    125          1           0       -8.155690    0.440688    4.713608
    126          1           0       -9.365326    1.673220    5.217464
    127          1           0       -7.668574    2.081578    4.868865
    128          1           0       -7.478370    3.359918    3.123250
    129          1           0       -9.047164    3.822033    2.511377
    130          1           0       -7.898597    1.959012    0.788097
    131          1           0       -6.859272    3.295213    0.793348
    132          1           0       -9.588540    4.340593    0.506324
    133          1           0       -9.480436    2.879765   -0.506082
    134          1           0       -9.014775    5.042551   -1.634456
    135          1           0       -7.932979    3.592117   -3.084292
    136          1           0       -7.452523    2.488163   -1.925728
    137          1           0       -6.414004    3.893967   -2.200924
    138          1           0       -7.323914    6.324586   -1.361802
    139          1           0       -6.351202    5.237523   -0.297864
    140          1           0       -7.724223    6.009571    0.350771
 ---------------------------------------------------------------------

 SCF Done:  E(RCAM-B3LYP) =  -3007.17696186     A.U. after   18 cycles

 Excitation energies and oscillator strengths:

 Excited State   1:      Singlet-A      1.6480 eV  752.32 nm  f=0.3832  <S**2>=0.000
     245 -> 248        0.16759
     246 -> 247        0.68973
     245 <- 248        0.10680
 This state for optimization and/or second-order correction.
 Total Energy, E(TD-HF/TD-DFT) =  -3007.11639786
 Copying the excited state density for this state as the 1-particle RhoCI density.

 Excited State   2:      Singlet-A      2.2667 eV  546.99 nm  f=0.0963  <S**2>=0.000
     245 -> 247        0.63105
     246 -> 248       -0.30912

 Excited State   3:      Singlet-A      3.3924 eV  365.47 nm  f=0.0027  <S**2>=0.000
     244 -> 247        0.68043
     246 -> 248        0.11350

 Excited State   4:      Singlet-A      3.5167 eV  352.56 nm  f=0.6702  <S**2>=0.000
     241 -> 247        0.10694
     242 -> 247        0.18209
     245 -> 247        0.28962
     246 -> 248        0.58941
     245 <- 247       -0.10628

 Excited State   5:      Singlet-A      3.6009 eV  344.32 nm  f=0.0074  <S**2>=0.000
     239 -> 247        0.49948
     239 -> 249       -0.32286
     239 -> 250       -0.20593
     240 -> 247       -0.14980
     241 -> 247        0.14629
     241 -> 249       -0.11456

 The electronic state is 1-A.
 Alpha  occ. eigenvalues --  -46.89504 -19.25509 -19.25297 -19.20144 -19.19808
 Alpha  occ. eigenvalues --  -19.19647 -19.18836 -14.43468 -14.42038 -14.40129
 Alpha  occ. eigenvalues --  -14.39432 -10.39646 -10.39040 -10.36087 -10.35221
 Alpha  occ. eigenvalues --  -10.32403 -10.32213 -10.31987 -10.31812 -10.31543
 Alpha  occ. eigenvalues --  -10.31391 -10.31300 -10.29654 -10.29628 -10.29238
 Alpha  occ. eigenvalues --  -10.29220 -10.28907 -10.28371 -10.28251 -10.28117
 Alpha  occ. eigenvalues --  -10.27791 -10.27768 -10.27727 -10.27704 -10.27695
 Alpha  occ. eigenvalues --  -10.27579 -10.27250 -10.27069 -10.27039 -10.26477
 Alpha  occ. eigenvalues --  -10.26430 -10.26386 -10.26358 -10.26355 -10.26183
 Alpha  occ. eigenvalues --  -10.25901 -10.25879 -10.25876 -10.25865 -10.25756
 Alpha  occ. eigenvalues --  -10.25639 -10.25502 -10.25499 -10.25439 -10.25423
 Alpha  occ. eigenvalues --  -10.25313 -10.25036 -10.24971 -10.24935 -10.24857
 Alpha  occ. eigenvalues --  -10.24766 -10.24687 -10.24658 -10.24563 -10.24190
 Alpha  occ. eigenvalues --  -10.24178  -3.17948  -1.92846  -1.92378  -1.92271
 Alpha  occ. eigenvalues --   -1.17166  -1.15632  -1.09582  -1.09015  -1.08523
 Alpha  occ. eigenvalues --   -1.07202  -1.04349  -1.03699  -1.03005  -1.01720
 Alpha  occ. eigenvalues --   -0.92266  -0.91038  -0.90100  -0.89745  -0.89307
 Alpha  occ. eigenvalues --   -0.89034  -0.88601  -0.87867  -0.87827  -0.86329
 Alpha  occ. eigenvalues --   -0.85962  -0.85482  -0.84525  -0.84318  -0.83336
 Alpha  occ. eigenvalues --   -0.82474  -0.82130  -0.81318  -0.80902  -0.80441
 Alpha  occ. eigenvalues --   -0.79965  -0.77891  -0.77672  -0.77003  -0.76309
 Alpha  occ. eigenvalues --   -0.76135  -0.75584  -0.75124  -0.74929  -0.74363
 Alpha  occ. eigenvalues --   -0.73650  -0.72461  -0.71889  -0.70082  -0.69207
 Alpha  occ. eigenvalues --   -0.68965  -0.68670  -0.67691  -0.67149  -0.66008
 Alpha  occ. eigenvalues --   -0.65923  -0.65367  -0.64922  -0.64036  -0.63993
 Alpha  occ. eigenvalues --   -0.63555  -0.63460  -0.62120  -0.61495  -0.59867
 Alpha  occ. eigenvalues --   -0.59657  -0.59500  -0.58941  -0.58210  -0.58065
 Alpha  occ. eigenvalues --   -0.57451  -0.57256  -0.57068  -0.56169  -0.55646
 Alpha  occ. eigenvalues --   -0.55432  -0.55282  -0.55079  -0.54512  -0.54277
 Alpha  occ. eigenvalues --   -0.53968  -0.53594  -0.53024  -0.52935  -0.52904
 Alpha  occ. eigenvalues --   -0.52673  -0.52160  -0.51988  -0.51939  -0.51666
 Alpha  occ. eigenvalues --   -0.51480  -0.51310  -0.51131  -0.50952  -0.50743
 Alpha  occ. eigenvalues --   -0.50614  -0.50480  -0.50355  -0.50083  -0.49598
 Alpha  occ. eigenvalues --   -0.49395  -0.49289  -0.49239  -0.49108  -0.48788
 Alpha  occ. eigenvalues --   -0.48585  -0.48410  -0.48200  -0.48133  -0.47627
 Alpha  occ. eigenvalues --   -0.47423  -0.47223  -0.47037  -0.46910  -0.46675
 Alpha  occ. eigenvalues --   -0.46581  -0.46364  -0.46231  -0.46106  -0.46033
 Alpha  occ. eigenvalues --   -0.45774  -0.45637  -0.45566  -0.45072  -0.44937
 Alpha  occ. eigenvalues --   -0.44878  -0.44727  -0.44525  -0.44161  -0.44053
 Alpha  occ. eigenvalues --   -0.43754  -0.43572  -0.43435  -0.43276  -0.43064
 Alpha  occ. eigenvalues --   -0.42944  -0.42767  -0.42604  -0.42484  -0.42119
 Alpha  occ. eigenvalues --   -0.42096  -0.42006  -0.41889  -0.41386  -0.41309
 Alpha  occ. eigenvalues --   -0.41054  -0.40798  -0.40719  -0.40617  -0.39988
 Alpha  occ. eigenvalues --   -0.39863  -0.39840  -0.39738  -0.39299  -0.38654
 Alpha  occ. eigenvalues --   -0.38605  -0.37785  -0.37745  -0.37519  -0.37514
 Alpha  occ. eigenvalues --   -0.37187  -0.37081  -0.37045  -0.36850  -0.36509
 Alpha  occ. eigenvalues --   -0.36472  -0.36393  -0.35696  -0.34781  -0.34444
 Alpha  occ. eigenvalues --   -0.34237  -0.34135  -0.33365  -0.31335  -0.30956
 Alpha  occ. eigenvalues --   -0.30871  -0.30507  -0.30102  -0.29903  -0.24475
 Alpha  occ. eigenvalues --   -0.20983
 Alpha virt. eigenvalues --   -0.08854  -0.01743  -0.00040   0.01527   0.02271
 Alpha virt. eigenvalues --    0.03916   0.04284   0.04482   0.05232   0.06335
 Alpha virt. eigenvalues --    0.06357   0.08236   0.08623   0.08912   0.08962

 Mulliken charges:
               1
     1  Mg   0.831459
     2  C    0.036232
     3  C   -0.087449
     4  C   -0.090914
     5  C   -0.061104
     6  N   -0.278543
     7  C   -0.028199
     8  C   -0.015856
     9  C   -0.046601
    10  C    0.043101
    11  C    0.081733
    12  C    0.048241
    13  C    0.086654
    14  C    0.144951
    15  O   -0.246498
    16  O   -0.312020
    17  N   -0.287934
    18  C    0.140307
    19  C   -0.129329
    20  C   -0.089595
    21  C    0.124872
    22  C    0.113701
    23  C    0.007020
    24  O   -0.196426
    25  C    0.042815
    26  N   -0.392353
    27  C    0.076081
    28  C   -0.065719
    29  C    0.025858
    30  C    0.112631
    31  C    0.096494
    32  C    0.029124
    33  C   -0.002390
    34  N   -0.329478
    35  C    0.028959
    36  C   -0.199574
    37  C    0.053965
    38  C    0.062336
    39  C    0.121764
    40  C    0.082693
    41  O   -0.179038
    42  C   -0.063679
    43  C    0.193397
    44  O   -0.229842
    45  O   -0.359996
    46  C    0.181744
    47  C    0.271708
    48  C   -0.082742
    49  C   -0.234413
    50  C    0.080759
    51  C    0.075025
    52  C   -0.006365
    53  C    0.113790
    54  C   -0.148390
    55  C    0.038766
    56  C    0.030451
    57  C    0.002677
    58  C    0.066110
    59  C   -0.102618
    60  C    0.052807
    61  C    0.058608
    62  C    0.001269
    63  C    0.051350
    64  C   -0.138097
    65  C    0.030356
    66  C    0.038429
    67  H   -0.011952
    68  H   -0.044094
    69  H   -0.052211
    70  H    0.003988
    71  H    0.017422
    72  H    0.020215
    73  H    0.020283
    74  H    0.015191
    75  H    0.011646
    76  H    0.015110
    77  H    0.018810
    78  H    0.017379
    79  H    0.039275
    80  H    0.021654
    81  H    0.026348
    82  H    0.043376
    83  H    0.046325
    84  H    0.023453
    85  H    0.023840
    86  H    0.010815
    87  H    0.018431
    88  H    0.012807
    89  H    0.013851
    90  H    0.018256
    91  H    0.003344
    92  H    0.003318
    93  H    0.012085
    94  H    0.023510
    95  H   -0.000782
    96  H    0.042825
    97  H    0.041587
    98  H    0.047298
    99  H    0.026834
   100  H    0.036554
   101  H    0.064568
   102  H    0.013265
   103  H    0.036713
   104  H   -0.010757
   105  H    0.019118
   106  H    0.035139
   107  H    0.038223
   108  H    0.002248
   109  H    0.023477
   110  H    0.014510
   111  H   -0.002994
   112  H   -0.005078
   113  H   -0.005535
   114  H   -0.006401
   115  H    0.006823
   116  H    0.001407
   117  H    0.016217
   118  H   -0.015838
   119  H   -0.010516
   120  H   -0.006708
   121  H    0.003715
   122  H   -0.020265
   123  H   -0.016300
   124  H   -0.012405
   125  H    0.008603
   126  H    0.012225
   127  H    0.003166
   128  H   -0.010953
   129  H   -0.014982
   130  H   -0.027694
   131  H    0.000970
   132  H   -0.004185
   133  H    0.003169
   134  H   -0.005808
   135  H    0.004267
   136  H    0.000869
   137  H    0.009321
   138  H    0.013734
   139  H    0.006930
   140  H   -0.002132
 Sum of Mulliken charges =  -0.00000

 Dipole moment (field-independent basis, Debye):
    X=             -2.5107    Y=              1.3203    Z=              2.3847  Tot=              3.7059
 Quadrupole moment (field-independent basis, Debye-Ang):
   XX=           -366.4036   YY=           -441.8908   ZZ=           -404.9806
   XY=             30.0429   XZ=             24.3285   YZ=             23.0652

 Normal termination of Gaussian 16 at Wed Apr 27 17:08:08 2022.
