 Gaussian 16, Revision A.03,
 Gaussian 16:  ES64L-G16RevA.03 25-Dec-2016

 ---------------------------------
 #p PBE1PBE/Def2SVP td=(nstates=5)
 ---------------------------------

 ------------------------------------------------------
 step_1251_chromophore_23 TDDFT with PBE1PBE functional
 ------------------------------------------------------
 Symbolic Z-matrix:
 Charge =  0 Multiplicity = 1

                         Standard orientation:
 ---------------------------------------------------------------------
 Center     Atomic      Atomic             Coordinates (Angstroms)
 Number     Number       Type             X           Y           Z
 ---------------------------------------------------------------------
      1         12           0        4.920054    0.417112   -0.197372
      2          6           0        3.506600   -2.730128   -0.319086
      3          6           0        2.198193    1.642565   -2.226920
      4          6           0        6.055631    3.635512    0.080096
      5          6           0        7.175256   -0.677431    2.190082
      6          7           0        3.125264   -0.480298   -1.134226
      7          6           0        2.777303   -1.777949   -1.107452
      8          6           0        1.391776   -2.017148   -1.784946
      9          6           0        1.124606   -0.617436   -2.516907
     10          6           0        2.153981    0.255382   -1.844767
     11          6           0        1.142657   -0.668507   -4.049597
     12          6           0        0.345438   -2.401352   -0.737533
     13          6           0       -0.754458   -3.371093   -1.165169
     14          6           0       -2.011720   -2.794472   -1.800145
     15          8           0       -1.991467   -2.098673   -2.804364
     16          8           0       -3.125977   -3.146569   -1.107951
     17          7           0        4.143784    2.382052   -0.983097
     18          6           0        3.113260    2.585161   -1.842545
     19          6           0        3.057705    4.008948   -2.211561
     20          6           0        4.242710    4.614980   -1.655715
     21          6           0        4.838032    3.506024   -0.772408
     22          6           0        1.993810    4.563862   -3.128468
     23          6           0        4.717862    6.042989   -1.935219
     24          8           0        4.169726    6.803045   -2.728728
     25          6           0        5.955686    6.537049   -1.218209
     26          7           0        6.252532    1.325366    1.047039
     27          6           0        6.638656    2.658351    0.908296
     28          6           0        7.723648    3.037587    1.953336
     29          6           0        8.194550    1.680065    2.452106
     30          6           0        7.238778    0.662118    1.836337
     31          6           0        8.847119    3.972045    1.573060
     32          6           0        8.183782    1.535286    4.013909
     33          6           0        9.327773    0.741568    4.646734
     34          7           0        5.317594   -1.337454    0.840208
     35          6           0        6.248238   -1.643551    1.758191
     36          6           0        6.137487   -3.103591    2.083966
     37          6           0        5.139019   -3.604846    1.265512
     38          6           0        4.689069   -2.503332    0.524993
     39          6           0        6.900702   -3.851588    3.207426
     40          6           0        4.352369   -4.760505    0.887293
     41          8           0        4.496196   -5.951710    1.209582
     42          6           0        3.194001   -4.209090   -0.138644
     43          6           0        3.168203   -4.993693   -1.346641
     44          8           0        4.103694   -5.159894   -2.142543
     45          8           0        1.967670   -5.694052   -1.331003
     46          6           0        1.765611   -6.643574   -2.440232
     47          6           0       -4.394696   -2.875348   -1.743931
     48          6           0       -5.460484   -2.725859   -0.614598
     49          6           0       -5.896688   -1.519824   -0.156912
     50          6           0       -5.287423   -0.173342   -0.570367
     51          6           0       -7.126058   -1.474314    0.754094
     52          6           0       -8.350522   -1.829451   -0.087542
     53          6           0       -9.514430   -2.398958    0.805422
     54          6           0      -10.796438   -1.607619    0.641689
     55          6           0      -12.128964   -2.421009    0.518688
     56          6           0      -11.111071   -0.629060    1.785091
     57          6           0      -10.852677    0.855049    1.488092
     58          6           0      -10.399008    1.662746    2.764473
     59          6           0       -8.952306    1.711451    3.070959
     60          6           0       -8.513670    1.460459    4.571769
     61          6           0       -8.311459    3.018098    2.509147
     62          6           0       -7.897219    3.028914    0.996289
     63          6           0       -8.907720    3.656794   -0.000079
     64          6           0       -8.247567    4.476606   -1.106151
     65          6           0       -7.448321    3.562464   -2.108062
     66          6           0       -7.351672    5.571245   -0.574640
     67          1           0        1.330773    1.970663   -2.803548
     68          1           0        6.492253    4.631259    0.185037
     69          1           0        7.838106   -1.235294    2.854237
     70          1           0        1.514174   -2.843006   -2.486178
     71          1           0        0.118474   -0.298285   -2.243753
     72          1           0        0.243181   -0.191096   -4.437561
     73          1           0        1.132437   -1.664737   -4.490857
     74          1           0        2.026302   -0.121791   -4.377352
     75          1           0       -0.197722   -1.499952   -0.451733
     76          1           0        0.840770   -2.902408    0.094072
     77          1           0       -0.970976   -3.946121   -0.265431
     78          1           0       -0.241420   -4.027035   -1.868035
     79          1           0        2.153564    5.604819   -3.407435
     80          1           0        1.018154    4.494006   -2.645616
     81          1           0        1.936813    3.992985   -4.054876
     82          1           0        6.787993    5.882611   -1.480654
     83          1           0        5.797535    6.535373   -0.140015
     84          1           0        6.161058    7.563668   -1.524806
     85          1           0        7.069422    3.526650    2.675566
     86          1           0        9.168625    1.475889    2.007692
     87          1           0        8.990910    4.845580    2.210571
     88          1           0        8.530332    4.307743    0.585385
     89          1           0        9.780558    3.409579    1.549183
     90          1           0        7.266028    1.037432    4.327166
     91          1           0        8.193520    2.483953    4.551150
     92          1           0        8.996563    0.115190    5.474930
     93          1           0       10.008823    1.410871    5.173100
     94          1           0        9.792692    0.059882    3.933338
     95          1           0        7.690250   -3.223300    3.620130
     96          1           0        7.368255   -4.741340    2.785179
     97          1           0        6.179340   -4.061700    3.996228
     98          1           0        2.241117   -4.464366    0.325474
     99          1           0        1.563309   -5.913744   -3.224416
    100          1           0        0.838127   -7.126200   -2.132844
    101          1           0        2.508204   -7.382390   -2.741502
    102          1           0       -4.551832   -3.781081   -2.328535
    103          1           0       -4.394910   -1.989388   -2.378020
    104          1           0       -5.986461   -3.582952   -0.195588
    105          1           0       -4.309499   -0.285295   -1.038658
    106          1           0       -5.111558    0.404930    0.337130
    107          1           0       -5.977412    0.211323   -1.321444
    108          1           0       -7.252958   -0.439106    1.071286
    109          1           0       -6.959259   -2.121695    1.615089
    110          1           0       -8.191912   -2.518454   -0.916946
    111          1           0       -8.539722   -0.847377   -0.522256
    112          1           0       -9.315163   -2.403382    1.877392
    113          1           0       -9.609119   -3.441309    0.500716
    114          1           0      -10.730342   -1.001096   -0.261252
    115          1           0      -12.093984   -3.189969    1.291154
    116          1           0      -12.075009   -2.888668   -0.464419
    117          1           0      -13.025834   -1.814496    0.639475
    118          1           0      -10.576793   -0.955138    2.677418
    119          1           0      -12.158877   -0.632014    2.086308
    120          1           0      -11.843740    1.204692    1.198354
    121          1           0      -10.162670    0.940452    0.648034
    122          1           0      -10.996840    1.249760    3.577272
    123          1           0      -10.855860    2.648667    2.678950
    124          1           0       -8.515437    0.880034    2.518195
    125          1           0       -8.155690    0.440688    4.713608
    126          1           0       -9.365326    1.673220    5.217464
    127          1           0       -7.668574    2.081578    4.868865
    128          1           0       -7.478370    3.359918    3.123250
    129          1           0       -9.047164    3.822033    2.511377
    130          1           0       -7.898597    1.959012    0.788097
    131          1           0       -6.859272    3.295213    0.793348
    132          1           0       -9.588540    4.340593    0.506324
    133          1           0       -9.480436    2.879765   -0.506082
    134          1           0       -9.014775    5.042551   -1.634456
    135          1           0       -7.932979    3.592117   -3.084292
    136          1           0       -7.452523    2.488163   -1.925728
    137          1           0       -6.414004    3.893967   -2.200924
    138          1           0       -7.323914    6.324586   -1.361802
    139          1           0       -6.351202    5.237523   -0.297864
    140          1           0       -7.724223    6.009571    0.350771
 ---------------------------------------------------------------------

 SCF Done:  E(RPBE1PBE) =  -3005.36601195     A.U. after   16 cycles

 Excitation energies and oscillator strengths:

 Excited State   1:      Singlet-A      1.7958 eV  690.40 nm  f=0.3732  <S**2>=0.000
     245 -> 248        0.16333
     246 -> 247        0.69829
     246 <- 247       -0.11891
 This state for optimization and/or second-order correction.
 Total Energy, E(TD-HF/TD-DFT) =  -3005.30001639
 Copying the excited state density for this state as the 1-particle RhoCI density.

 Excited State   2:      Singlet-A      2.2472 eV  551.73 nm  f=0.0986  <S**2>=0.000
     245 -> 247        0.64515
     246 -> 248       -0.28309

 Excited State   3:      Singlet-A      2.9918 eV  414.42 nm  f=0.0032  <S**2>=0.000
     242 -> 247        0.15983
     244 -> 247        0.66851

 Excited State   4:      Singlet-A      3.0831 eV  402.14 nm  f=0.0030  <S**2>=0.000
     242 -> 247        0.66058
     244 -> 247       -0.18244

 Excited State   5:      Singlet-A      3.1407 eV  394.76 nm  f=0.0018  <S**2>=0.000
     239 -> 247        0.17316
     240 -> 247       -0.16159
     241 -> 247        0.62016
     241 -> 249       -0.18140

 The electronic state is 1-A.
 Alpha  occ. eigenvalues --  -46.92918 -19.26159 -19.25975 -19.20393 -19.19994
 Alpha  occ. eigenvalues --  -19.19986 -19.18945 -14.42794 -14.41847 -14.39624
 Alpha  occ. eigenvalues --  -14.39153 -10.36635 -10.35988 -10.33352 -10.32251
 Alpha  occ. eigenvalues --  -10.29791 -10.29669 -10.29459 -10.29281 -10.29222
 Alpha  occ. eigenvalues --  -10.29214 -10.29190 -10.27559 -10.27179 -10.27126
 Alpha  occ. eigenvalues --  -10.26955 -10.26383 -10.26319 -10.25945 -10.25889
 Alpha  occ. eigenvalues --  -10.25702 -10.25586 -10.25386 -10.25344 -10.25326
 Alpha  occ. eigenvalues --  -10.25108 -10.25103 -10.24653 -10.24555 -10.24235
 Alpha  occ. eigenvalues --  -10.24146 -10.23994 -10.23851 -10.23841 -10.23743
 Alpha  occ. eigenvalues --  -10.23552 -10.23488 -10.23481 -10.23356 -10.23280
 Alpha  occ. eigenvalues --  -10.23126 -10.23082 -10.23036 -10.23018 -10.22922
 Alpha  occ. eigenvalues --  -10.22864 -10.22576 -10.22517 -10.22432 -10.22340
 Alpha  occ. eigenvalues --  -10.22298 -10.22227 -10.22047 -10.21977 -10.21760
 Alpha  occ. eigenvalues --  -10.21543  -3.14944  -1.87782  -1.87295  -1.87187
 Alpha  occ. eigenvalues --   -1.11972  -1.10359  -1.04207  -1.03844  -1.03363
 Alpha  occ. eigenvalues --   -1.01970  -0.99124  -0.98266  -0.97562  -0.96397
 Alpha  occ. eigenvalues --   -0.86637  -0.85150  -0.84204  -0.83934  -0.83672
 Alpha  occ. eigenvalues --   -0.83142  -0.82865  -0.82217  -0.81957  -0.80711
 Alpha  occ. eigenvalues --   -0.80217  -0.79659  -0.78817  -0.78560  -0.77563
 Alpha  occ. eigenvalues --   -0.76698  -0.76286  -0.75491  -0.75287  -0.74649
 Alpha  occ. eigenvalues --   -0.74188  -0.72194  -0.72053  -0.71186  -0.70504
 Alpha  occ. eigenvalues --   -0.70391  -0.69646  -0.69501  -0.69062  -0.68511
 Alpha  occ. eigenvalues --   -0.67971  -0.66958  -0.66326  -0.64384  -0.63734
 Alpha  occ. eigenvalues --   -0.63207  -0.63061  -0.61891  -0.61469  -0.60384
 Alpha  occ. eigenvalues --   -0.60210  -0.59849  -0.59464  -0.58537  -0.58143
 Alpha  occ. eigenvalues --   -0.58019  -0.57635  -0.56677  -0.55725  -0.54435
 Alpha  occ. eigenvalues --   -0.54183  -0.53977  -0.53491  -0.52812  -0.52592
 Alpha  occ. eigenvalues --   -0.51930  -0.51772  -0.51426  -0.50702  -0.50242
 Alpha  occ. eigenvalues --   -0.49938  -0.49750  -0.49544  -0.49068  -0.48810
 Alpha  occ. eigenvalues --   -0.48398  -0.48104  -0.47670  -0.47436  -0.47407
 Alpha  occ. eigenvalues --   -0.47257  -0.46652  -0.46492  -0.46449  -0.46110
 Alpha  occ. eigenvalues --   -0.45968  -0.45782  -0.45696  -0.45676  -0.45247
 Alpha  occ. eigenvalues --   -0.45175  -0.45119  -0.44946  -0.44649  -0.44105
 Alpha  occ. eigenvalues --   -0.44021  -0.43874  -0.43845  -0.43681  -0.43395
 Alpha  occ. eigenvalues --   -0.43210  -0.43090  -0.42871  -0.42773  -0.42334
 Alpha  occ. eigenvalues --   -0.42061  -0.41898  -0.41731  -0.41610  -0.41286
 Alpha  occ. eigenvalues --   -0.41258  -0.41052  -0.40978  -0.40781  -0.40678
 Alpha  occ. eigenvalues --   -0.40455  -0.40289  -0.40164  -0.39807  -0.39677
 Alpha  occ. eigenvalues --   -0.39533  -0.39396  -0.39298  -0.38886  -0.38797
 Alpha  occ. eigenvalues --   -0.38525  -0.38296  -0.38218  -0.38084  -0.37921
 Alpha  occ. eigenvalues --   -0.37719  -0.37573  -0.37491  -0.37289  -0.36898
 Alpha  occ. eigenvalues --   -0.36869  -0.36794  -0.36753  -0.36272  -0.36174
 Alpha  occ. eigenvalues --   -0.35795  -0.35766  -0.35466  -0.35439  -0.34802
 Alpha  occ. eigenvalues --   -0.34796  -0.34712  -0.34518  -0.34254  -0.33604
 Alpha  occ. eigenvalues --   -0.33461  -0.32615  -0.32552  -0.32547  -0.32324
 Alpha  occ. eigenvalues --   -0.32164  -0.32065  -0.31857  -0.31842  -0.31462
 Alpha  occ. eigenvalues --   -0.31418  -0.31218  -0.30615  -0.29857  -0.29406
 Alpha  occ. eigenvalues --   -0.29210  -0.29071  -0.28750  -0.26652  -0.26284
 Alpha  occ. eigenvalues --   -0.26238  -0.25666  -0.25389  -0.25290  -0.21332
 Alpha  occ. eigenvalues --   -0.18657
 Alpha virt. eigenvalues --   -0.11357  -0.05242  -0.04309  -0.02803  -0.00803
 Alpha virt. eigenvalues --   -0.00509  -0.00143   0.00069   0.00883   0.02655
 Alpha virt. eigenvalues --    0.03030   0.04064   0.04615   0.05563   0.05685

 Mulliken charges:
               1
     1  Mg   0.976885
     2  C    0.007952
     3  C   -0.079413
     4  C   -0.084540
     5  C   -0.066663
     6  N   -0.385157
     7  C    0.057729
     8  C   -0.089897
     9  C   -0.122057
    10  C    0.084848
    11  C    0.026437
    12  C   -0.004615
    13  C    0.005678
    14  C    0.214940
    15  O   -0.280217
    16  O   -0.343314
    17  N   -0.402007
    18  C    0.155600
    19  C   -0.147382
    20  C   -0.132730
    21  C    0.160401
    22  C    0.052298
    23  C    0.056796
    24  O   -0.234552
    25  C   -0.038830
    26  N   -0.488010
    27  C    0.107986
    28  C   -0.137263
    29  C   -0.058972
    30  C    0.145869
    31  C    0.035889
    32  C   -0.031263
    33  C   -0.072835
    34  N   -0.453832
    35  C    0.063564
    36  C   -0.219584
    37  C    0.002040
    38  C    0.120424
    39  C    0.068715
    40  C    0.179650
    41  O   -0.223239
    42  C   -0.173041
    43  C    0.289294
    44  O   -0.266059
    45  O   -0.392797
    46  C    0.125361
    47  C    0.227500
    48  C   -0.095431
    49  C   -0.264016
    50  C    0.008311
    51  C   -0.005637
    52  C   -0.067213
    53  C    0.061173
    54  C   -0.235580
    55  C   -0.026584
    56  C   -0.013556
    57  C   -0.071259
    58  C    0.019465
    59  C   -0.212122
    60  C   -0.004277
    61  C    0.009253
    62  C   -0.070047
    63  C   -0.007047
    64  C   -0.230869
    65  C   -0.030382
    66  C   -0.022039
    67  H    0.016620
    68  H   -0.010872
    69  H   -0.011677
    70  H    0.043489
    71  H    0.054443
    72  H    0.046620
    73  H    0.046651
    74  H    0.043937
    75  H    0.045336
    76  H    0.050652
    77  H    0.050927
    78  H    0.054495
    79  H    0.066429
    80  H    0.049191
    81  H    0.052930
    82  H    0.070417
    83  H    0.072323
    84  H    0.051928
    85  H    0.062000
    86  H    0.048593
    87  H    0.046024
    88  H    0.040766
    89  H    0.041042
    90  H    0.051391
    91  H    0.036734
    92  H    0.031580
    93  H    0.040640
    94  H    0.048964
    95  H    0.026420
    96  H    0.070624
    97  H    0.070071
    98  H    0.084098
    99  H    0.049097
   100  H    0.058262
   101  H    0.085141
   102  H    0.041966
   103  H    0.061728
   104  H    0.019163
   105  H    0.047278
   106  H    0.062444
   107  H    0.068345
   108  H    0.046760
   109  H    0.055032
   110  H    0.046164
   111  H    0.029592
   112  H    0.025709
   113  H    0.027300
   114  H    0.032377
   115  H    0.035745
   116  H    0.030501
   117  H    0.043742
   118  H    0.016526
   119  H    0.021660
   120  H    0.027268
   121  H    0.038810
   122  H    0.012473
   123  H    0.015605
   124  H    0.040935
   125  H    0.035009
   126  H    0.039222
   127  H    0.029861
   128  H    0.021149
   129  H    0.018799
   130  H    0.014322
   131  H    0.032452
   132  H    0.027468
   133  H    0.036960
   134  H    0.031947
   135  H    0.032278
   136  H    0.029483
   137  H    0.036221
   138  H    0.042473
   139  H    0.033259
   140  H    0.026956
 Sum of Mulliken charges =  -0.00000

 Dipole moment (field-independent basis, Debye):
    X=             -2.3585    Y=              1.0933    Z=              2.6995  Tot=              3.7477
 Quadrupole moment (field-independent basis, Debye-Ang):
   XX=           -359.5869   YY=           -439.7343   ZZ=           -401.4251
   XY=             29.2662   XZ=             27.0025   YZ=             23.1067

 Normal termination of Gaussian 16 at Wed Apr 27 17:26:07 2022.
