 Gaussian 16, Revision A.03,
 Gaussian 16:  ES64L-G16RevA.03 25-Dec-2016

 --------------------------------
 #p wB97XD/Def2SVP td=(nstates=5)
 --------------------------------

 -----------------------------------------------------
 step_1251_chromophore_23 TDDFT with wB97XD functional
 -----------------------------------------------------
 Symbolic Z-matrix:
 Charge =  0 Multiplicity = 1

                         Standard orientation:
 ---------------------------------------------------------------------
 Center     Atomic      Atomic             Coordinates (Angstroms)
 Number     Number       Type             X           Y           Z
 ---------------------------------------------------------------------
      1         12           0        4.920054    0.417112   -0.197372
      2          6           0        3.506600   -2.730128   -0.319086
      3          6           0        2.198193    1.642565   -2.226920
      4          6           0        6.055631    3.635512    0.080096
      5          6           0        7.175256   -0.677431    2.190082
      6          7           0        3.125264   -0.480298   -1.134226
      7          6           0        2.777303   -1.777949   -1.107452
      8          6           0        1.391776   -2.017148   -1.784946
      9          6           0        1.124606   -0.617436   -2.516907
     10          6           0        2.153981    0.255382   -1.844767
     11          6           0        1.142657   -0.668507   -4.049597
     12          6           0        0.345438   -2.401352   -0.737533
     13          6           0       -0.754458   -3.371093   -1.165169
     14          6           0       -2.011720   -2.794472   -1.800145
     15          8           0       -1.991467   -2.098673   -2.804364
     16          8           0       -3.125977   -3.146569   -1.107951
     17          7           0        4.143784    2.382052   -0.983097
     18          6           0        3.113260    2.585161   -1.842545
     19          6           0        3.057705    4.008948   -2.211561
     20          6           0        4.242710    4.614980   -1.655715
     21          6           0        4.838032    3.506024   -0.772408
     22          6           0        1.993810    4.563862   -3.128468
     23          6           0        4.717862    6.042989   -1.935219
     24          8           0        4.169726    6.803045   -2.728728
     25          6           0        5.955686    6.537049   -1.218209
     26          7           0        6.252532    1.325366    1.047039
     27          6           0        6.638656    2.658351    0.908296
     28          6           0        7.723648    3.037587    1.953336
     29          6           0        8.194550    1.680065    2.452106
     30          6           0        7.238778    0.662118    1.836337
     31          6           0        8.847119    3.972045    1.573060
     32          6           0        8.183782    1.535286    4.013909
     33          6           0        9.327773    0.741568    4.646734
     34          7           0        5.317594   -1.337454    0.840208
     35          6           0        6.248238   -1.643551    1.758191
     36          6           0        6.137487   -3.103591    2.083966
     37          6           0        5.139019   -3.604846    1.265512
     38          6           0        4.689069   -2.503332    0.524993
     39          6           0        6.900702   -3.851588    3.207426
     40          6           0        4.352369   -4.760505    0.887293
     41          8           0        4.496196   -5.951710    1.209582
     42          6           0        3.194001   -4.209090   -0.138644
     43          6           0        3.168203   -4.993693   -1.346641
     44          8           0        4.103694   -5.159894   -2.142543
     45          8           0        1.967670   -5.694052   -1.331003
     46          6           0        1.765611   -6.643574   -2.440232
     47          6           0       -4.394696   -2.875348   -1.743931
     48          6           0       -5.460484   -2.725859   -0.614598
     49          6           0       -5.896688   -1.519824   -0.156912
     50          6           0       -5.287423   -0.173342   -0.570367
     51          6           0       -7.126058   -1.474314    0.754094
     52          6           0       -8.350522   -1.829451   -0.087542
     53          6           0       -9.514430   -2.398958    0.805422
     54          6           0      -10.796438   -1.607619    0.641689
     55          6           0      -12.128964   -2.421009    0.518688
     56          6           0      -11.111071   -0.629060    1.785091
     57          6           0      -10.852677    0.855049    1.488092
     58          6           0      -10.399008    1.662746    2.764473
     59          6           0       -8.952306    1.711451    3.070959
     60          6           0       -8.513670    1.460459    4.571769
     61          6           0       -8.311459    3.018098    2.509147
     62          6           0       -7.897219    3.028914    0.996289
     63          6           0       -8.907720    3.656794   -0.000079
     64          6           0       -8.247567    4.476606   -1.106151
     65          6           0       -7.448321    3.562464   -2.108062
     66          6           0       -7.351672    5.571245   -0.574640
     67          1           0        1.330773    1.970663   -2.803548
     68          1           0        6.492253    4.631259    0.185037
     69          1           0        7.838106   -1.235294    2.854237
     70          1           0        1.514174   -2.843006   -2.486178
     71          1           0        0.118474   -0.298285   -2.243753
     72          1           0        0.243181   -0.191096   -4.437561
     73          1           0        1.132437   -1.664737   -4.490857
     74          1           0        2.026302   -0.121791   -4.377352
     75          1           0       -0.197722   -1.499952   -0.451733
     76          1           0        0.840770   -2.902408    0.094072
     77          1           0       -0.970976   -3.946121   -0.265431
     78          1           0       -0.241420   -4.027035   -1.868035
     79          1           0        2.153564    5.604819   -3.407435
     80          1           0        1.018154    4.494006   -2.645616
     81          1           0        1.936813    3.992985   -4.054876
     82          1           0        6.787993    5.882611   -1.480654
     83          1           0        5.797535    6.535373   -0.140015
     84          1           0        6.161058    7.563668   -1.524806
     85          1           0        7.069422    3.526650    2.675566
     86          1           0        9.168625    1.475889    2.007692
     87          1           0        8.990910    4.845580    2.210571
     88          1           0        8.530332    4.307743    0.585385
     89          1           0        9.780558    3.409579    1.549183
     90          1           0        7.266028    1.037432    4.327166
     91          1           0        8.193520    2.483953    4.551150
     92          1           0        8.996563    0.115190    5.474930
     93          1           0       10.008823    1.410871    5.173100
     94          1           0        9.792692    0.059882    3.933338
     95          1           0        7.690250   -3.223300    3.620130
     96          1           0        7.368255   -4.741340    2.785179
     97          1           0        6.179340   -4.061700    3.996228
     98          1           0        2.241117   -4.464366    0.325474
     99          1           0        1.563309   -5.913744   -3.224416
    100          1           0        0.838127   -7.126200   -2.132844
    101          1           0        2.508204   -7.382390   -2.741502
    102          1           0       -4.551832   -3.781081   -2.328535
    103          1           0       -4.394910   -1.989388   -2.378020
    104          1           0       -5.986461   -3.582952   -0.195588
    105          1           0       -4.309499   -0.285295   -1.038658
    106          1           0       -5.111558    0.404930    0.337130
    107          1           0       -5.977412    0.211323   -1.321444
    108          1           0       -7.252958   -0.439106    1.071286
    109          1           0       -6.959259   -2.121695    1.615089
    110          1           0       -8.191912   -2.518454   -0.916946
    111          1           0       -8.539722   -0.847377   -0.522256
    112          1           0       -9.315163   -2.403382    1.877392
    113          1           0       -9.609119   -3.441309    0.500716
    114          1           0      -10.730342   -1.001096   -0.261252
    115          1           0      -12.093984   -3.189969    1.291154
    116          1           0      -12.075009   -2.888668   -0.464419
    117          1           0      -13.025834   -1.814496    0.639475
    118          1           0      -10.576793   -0.955138    2.677418
    119          1           0      -12.158877   -0.632014    2.086308
    120          1           0      -11.843740    1.204692    1.198354
    121          1           0      -10.162670    0.940452    0.648034
    122          1           0      -10.996840    1.249760    3.577272
    123          1           0      -10.855860    2.648667    2.678950
    124          1           0       -8.515437    0.880034    2.518195
    125          1           0       -8.155690    0.440688    4.713608
    126          1           0       -9.365326    1.673220    5.217464
    127          1           0       -7.668574    2.081578    4.868865
    128          1           0       -7.478370    3.359918    3.123250
    129          1           0       -9.047164    3.822033    2.511377
    130          1           0       -7.898597    1.959012    0.788097
    131          1           0       -6.859272    3.295213    0.793348
    132          1           0       -9.588540    4.340593    0.506324
    133          1           0       -9.480436    2.879765   -0.506082
    134          1           0       -9.014775    5.042551   -1.634456
    135          1           0       -7.932979    3.592117   -3.084292
    136          1           0       -7.452523    2.488163   -1.925728
    137          1           0       -6.414004    3.893967   -2.200924
    138          1           0       -7.323914    6.324586   -1.361802
    139          1           0       -6.351202    5.237523   -0.297864
    140          1           0       -7.724223    6.009571    0.350771
 ---------------------------------------------------------------------

 SCF Done:  E(RwB97XD) =  -3007.88097689     A.U. after   19 cycles

 Excitation energies and oscillator strengths:

 Excited State   1:      Singlet-A      1.5952 eV  777.22 nm  f=0.3821  <S**2>=0.000
     245 -> 248        0.17265
     246 -> 247        0.68697
     245 <- 248        0.11516
 This state for optimization and/or second-order correction.
 Total Energy, E(TD-HF/TD-DFT) =  -3007.82235302
 Copying the excited state density for this state as the 1-particle RhoCI density.

 Excited State   2:      Singlet-A      2.2221 eV  557.95 nm  f=0.0937  <S**2>=0.000
     245 -> 247        0.62913
     246 -> 248       -0.31035

 Excited State   3:      Singlet-A      3.4277 eV  361.71 nm  f=0.0103  <S**2>=0.000
     243 -> 247        0.57916
     244 -> 247        0.32597
     246 -> 248        0.15662

 Excited State   4:      Singlet-A      3.5331 eV  350.92 nm  f=0.6968  <S**2>=0.000
     240 -> 247        0.11222
     242 -> 247        0.17129
     243 -> 247       -0.12209
     245 -> 247        0.29275
     246 -> 248        0.58434
     245 <- 247       -0.11053

 Excited State   5:      Singlet-A      3.6293 eV  341.62 nm  f=0.0008  <S**2>=0.000
     240 -> 247       -0.11575
     241 -> 247        0.48358
     241 -> 249       -0.30805
     241 -> 250       -0.26249
     242 -> 247        0.18560

 The electronic state is 1-A.
 Alpha  occ. eigenvalues --  -46.95847 -19.30754 -19.30545 -19.25087 -19.24774
 Alpha  occ. eigenvalues --  -19.24726 -19.23893 -14.48124 -14.46626 -14.44734
 Alpha  occ. eigenvalues --  -14.44009 -10.43453 -10.42900 -10.40146 -10.39223
 Alpha  occ. eigenvalues --  -10.36364 -10.36305 -10.35903 -10.35736 -10.35622
 Alpha  occ. eigenvalues --  -10.35396 -10.35309 -10.33704 -10.33628 -10.33461
 Alpha  occ. eigenvalues --  -10.33207 -10.33135 -10.32458 -10.32320 -10.32194
 Alpha  occ. eigenvalues --  -10.31883 -10.31838 -10.31818 -10.31792 -10.31700
 Alpha  occ. eigenvalues --  -10.31648 -10.31335 -10.31013 -10.30976 -10.30352
 Alpha  occ. eigenvalues --  -10.30320 -10.30300 -10.30232 -10.30220 -10.30120
 Alpha  occ. eigenvalues --  -10.29848 -10.29846 -10.29831 -10.29769 -10.29728
 Alpha  occ. eigenvalues --  -10.29582 -10.29526 -10.29441 -10.29312 -10.29293
 Alpha  occ. eigenvalues --  -10.29228 -10.28967 -10.28909 -10.28803 -10.28768
 Alpha  occ. eigenvalues --  -10.28695 -10.28616 -10.28480 -10.28406 -10.28126
 Alpha  occ. eigenvalues --  -10.28003  -3.21751  -1.95334  -1.94843  -1.94740
 Alpha  occ. eigenvalues --   -1.19360  -1.17815  -1.11828  -1.11267  -1.10721
 Alpha  occ. eigenvalues --   -1.09408  -1.06357  -1.05761  -1.05043  -1.03709
 Alpha  occ. eigenvalues --   -0.94245  -0.92821  -0.91880  -0.91588  -0.91168
 Alpha  occ. eigenvalues --   -0.90814  -0.90565  -0.89763  -0.89623  -0.88285
 Alpha  occ. eigenvalues --   -0.87909  -0.87426  -0.86413  -0.86182  -0.85227
 Alpha  occ. eigenvalues --   -0.84334  -0.84033  -0.83201  -0.82874  -0.82311
 Alpha  occ. eigenvalues --   -0.81845  -0.79798  -0.79588  -0.78979  -0.78187
 Alpha  occ. eigenvalues --   -0.78058  -0.77366  -0.77089  -0.76750  -0.76194
 Alpha  occ. eigenvalues --   -0.75578  -0.74457  -0.73867  -0.72018  -0.71174
 Alpha  occ. eigenvalues --   -0.70832  -0.70609  -0.69552  -0.69159  -0.67872
 Alpha  occ. eigenvalues --   -0.67836  -0.67347  -0.66923  -0.66008  -0.65834
 Alpha  occ. eigenvalues --   -0.65517  -0.65295  -0.64120  -0.63349  -0.61880
 Alpha  occ. eigenvalues --   -0.61611  -0.61435  -0.60916  -0.60218  -0.60045
 Alpha  occ. eigenvalues --   -0.59381  -0.59234  -0.58960  -0.58158  -0.57607
 Alpha  occ. eigenvalues --   -0.57390  -0.57198  -0.56992  -0.56440  -0.56201
 Alpha  occ. eigenvalues --   -0.55850  -0.55525  -0.54925  -0.54833  -0.54818
 Alpha  occ. eigenvalues --   -0.54615  -0.54086  -0.53891  -0.53846  -0.53613
 Alpha  occ. eigenvalues --   -0.53422  -0.53174  -0.53061  -0.52876  -0.52607
 Alpha  occ. eigenvalues --   -0.52482  -0.52397  -0.52265  -0.52032  -0.51556
 Alpha  occ. eigenvalues --   -0.51356  -0.51198  -0.51154  -0.51001  -0.50764
 Alpha  occ. eigenvalues --   -0.50484  -0.50302  -0.50082  -0.50033  -0.49558
 Alpha  occ. eigenvalues --   -0.49359  -0.49161  -0.48946  -0.48845  -0.48662
 Alpha  occ. eigenvalues --   -0.48475  -0.48275  -0.48147  -0.48066  -0.47908
 Alpha  occ. eigenvalues --   -0.47643  -0.47506  -0.47435  -0.47010  -0.46853
 Alpha  occ. eigenvalues --   -0.46781  -0.46597  -0.46474  -0.46046  -0.45997
 Alpha  occ. eigenvalues --   -0.45685  -0.45518  -0.45365  -0.45251  -0.44989
 Alpha  occ. eigenvalues --   -0.44830  -0.44708  -0.44450  -0.44398  -0.44149
 Alpha  occ. eigenvalues --   -0.43987  -0.43955  -0.43776  -0.43279  -0.43191
 Alpha  occ. eigenvalues --   -0.42904  -0.42733  -0.42587  -0.42520  -0.41854
 Alpha  occ. eigenvalues --   -0.41766  -0.41707  -0.41589  -0.41191  -0.40525
 Alpha  occ. eigenvalues --   -0.40505  -0.39624  -0.39599  -0.39456  -0.39359
 Alpha  occ. eigenvalues --   -0.39223  -0.39088  -0.38898  -0.38798  -0.38552
 Alpha  occ. eigenvalues --   -0.38412  -0.38243  -0.37531  -0.36742  -0.36412
 Alpha  occ. eigenvalues --   -0.36189  -0.35998  -0.35580  -0.33386  -0.33086
 Alpha  occ. eigenvalues --   -0.32918  -0.32669  -0.32134  -0.32131  -0.26417
 Alpha  occ. eigenvalues --   -0.22795
 Alpha virt. eigenvalues --   -0.07198   0.00164   0.02003   0.03671   0.05365
 Alpha virt. eigenvalues --    0.06089   0.06527   0.06759   0.07641   0.09024
 Alpha virt. eigenvalues --    0.09417   0.10760   0.11340   0.12248   0.12325

 Mulliken charges:
               1
     1  Mg   0.967800
     2  C    0.017344
     3  C   -0.092667
     4  C   -0.100740
     5  C   -0.076364
     6  N   -0.348533
     7  C    0.016289
     8  C   -0.058847
     9  C   -0.096966
    10  C    0.066308
    11  C    0.035680
    12  C    0.008830
    13  C    0.027390
    14  C    0.201554
    15  O   -0.276166
    16  O   -0.341645
    17  N   -0.366450
    18  C    0.151161
    19  C   -0.140341
    20  C   -0.130738
    21  C    0.155379
    22  C    0.064536
    23  C    0.053656
    24  O   -0.228723
    25  C   -0.020998
    26  N   -0.467198
    27  C    0.104534
    28  C   -0.116482
    29  C   -0.030618
    30  C    0.139391
    31  C    0.049680
    32  C   -0.014988
    33  C   -0.058776
    34  N   -0.415188
    35  C    0.050165
    36  C   -0.219560
    37  C    0.010346
    38  C    0.096982
    39  C    0.081829
    40  C    0.159503
    41  O   -0.214549
    42  C   -0.129435
    43  C    0.259841
    44  O   -0.259048
    45  O   -0.389356
    46  C    0.138806
    47  C    0.239842
    48  C   -0.107030
    49  C   -0.252531
    50  C    0.027148
    51  C    0.027320
    52  C   -0.047347
    53  C    0.071274
    54  C   -0.204598
    55  C   -0.010074
    56  C   -0.002542
    57  C   -0.038194
    58  C    0.028801
    59  C   -0.163863
    60  C    0.008386
    61  C    0.025255
    62  C   -0.039891
    63  C    0.010292
    64  C   -0.198484
    65  C   -0.019960
    66  C   -0.012170
    67  H    0.013490
    68  H   -0.027426
    69  H   -0.027556
    70  H    0.026707
    71  H    0.042941
    72  H    0.042346
    73  H    0.042713
    74  H    0.036162
    75  H    0.036414
    76  H    0.038352
    77  H    0.047577
    78  H    0.042039
    79  H    0.064071
    80  H    0.045044
    81  H    0.048646
    82  H    0.063257
    83  H    0.067131
    84  H    0.051108
    85  H    0.051432
    86  H    0.036350
    87  H    0.041738
    88  H    0.031583
    89  H    0.035812
    90  H    0.041984
    91  H    0.028511
    92  H    0.025976
    93  H    0.034900
    94  H    0.042687
    95  H    0.020641
    96  H    0.065206
    97  H    0.063827
    98  H    0.075355
    99  H    0.044214
   100  H    0.055506
   101  H    0.082991
   102  H    0.038619
   103  H    0.056155
   104  H    0.016650
   105  H    0.040887
   106  H    0.057458
   107  H    0.060506
   108  H    0.023825
   109  H    0.047821
   110  H    0.038062
   111  H    0.017076
   112  H    0.015773
   113  H    0.020952
   114  H    0.018703
   115  H    0.028391
   116  H    0.024686
   117  H    0.037504
   118  H    0.004225
   119  H    0.012486
   120  H    0.020203
   121  H    0.015128
   122  H    0.003134
   123  H    0.007067
   124  H    0.010559
   125  H    0.030158
   126  H    0.033069
   127  H    0.023923
   128  H    0.014015
   129  H    0.005184
   130  H   -0.011326
   131  H    0.023117
   132  H    0.017351
   133  H    0.027308
   134  H    0.023045
   135  H    0.027157
   136  H    0.021454
   137  H    0.030378
   138  H    0.037118
   139  H    0.025807
   140  H    0.020383
 Sum of Mulliken charges =  -0.00000

 Dipole moment (field-independent basis, Debye):
    X=             -2.6147    Y=              1.4192    Z=              2.3413  Tot=              3.7858
 Quadrupole moment (field-independent basis, Debye-Ang):
   XX=           -362.1652   YY=           -437.6128   ZZ=           -401.2956
   XY=             31.0415   XZ=             24.9578   YZ=             22.8584

 Normal termination of Gaussian 16 at Wed Apr 27 18:03:22 2022.
