 Gaussian 16, Revision A.03,
 Gaussian 16:  ES64L-G16RevA.03 25-Dec-2016

 --------------------
 #p ZINDO=(nstates=5)
 --------------------

 ------------------------------
 step_1251_chromophore_23 ZINDO
 ------------------------------
 Symbolic Z-matrix:
 Charge =  0 Multiplicity = 1

                         Standard orientation:
 ---------------------------------------------------------------------
 Center     Atomic      Atomic             Coordinates (Angstroms)
 Number     Number       Type             X           Y           Z
 ---------------------------------------------------------------------
      1         12           0        4.920054    0.417112   -0.197372
      2          6           0        3.506600   -2.730128   -0.319086
      3          6           0        2.198193    1.642565   -2.226920
      4          6           0        6.055631    3.635512    0.080096
      5          6           0        7.175256   -0.677431    2.190082
      6          7           0        3.125264   -0.480298   -1.134226
      7          6           0        2.777303   -1.777949   -1.107452
      8          6           0        1.391776   -2.017148   -1.784946
      9          6           0        1.124606   -0.617436   -2.516907
     10          6           0        2.153981    0.255382   -1.844767
     11          6           0        1.142657   -0.668507   -4.049597
     12          6           0        0.345438   -2.401352   -0.737533
     13          6           0       -0.754458   -3.371093   -1.165169
     14          6           0       -2.011720   -2.794472   -1.800145
     15          8           0       -1.991467   -2.098673   -2.804364
     16          8           0       -3.125977   -3.146569   -1.107951
     17          7           0        4.143784    2.382052   -0.983097
     18          6           0        3.113260    2.585161   -1.842545
     19          6           0        3.057705    4.008948   -2.211561
     20          6           0        4.242710    4.614980   -1.655715
     21          6           0        4.838032    3.506024   -0.772408
     22          6           0        1.993810    4.563862   -3.128468
     23          6           0        4.717862    6.042989   -1.935219
     24          8           0        4.169726    6.803045   -2.728728
     25          6           0        5.955686    6.537049   -1.218209
     26          7           0        6.252532    1.325366    1.047039
     27          6           0        6.638656    2.658351    0.908296
     28          6           0        7.723648    3.037587    1.953336
     29          6           0        8.194550    1.680065    2.452106
     30          6           0        7.238778    0.662118    1.836337
     31          6           0        8.847119    3.972045    1.573060
     32          6           0        8.183782    1.535286    4.013909
     33          6           0        9.327773    0.741568    4.646734
     34          7           0        5.317594   -1.337454    0.840208
     35          6           0        6.248238   -1.643551    1.758191
     36          6           0        6.137487   -3.103591    2.083966
     37          6           0        5.139019   -3.604846    1.265512
     38          6           0        4.689069   -2.503332    0.524993
     39          6           0        6.900702   -3.851588    3.207426
     40          6           0        4.352369   -4.760505    0.887293
     41          8           0        4.496196   -5.951710    1.209582
     42          6           0        3.194001   -4.209090   -0.138644
     43          6           0        3.168203   -4.993693   -1.346641
     44          8           0        4.103694   -5.159894   -2.142543
     45          8           0        1.967670   -5.694052   -1.331003
     46          6           0        1.765611   -6.643574   -2.440232
     47          6           0       -4.394696   -2.875348   -1.743931
     48          6           0       -5.460484   -2.725859   -0.614598
     49          6           0       -5.896688   -1.519824   -0.156912
     50          6           0       -5.287423   -0.173342   -0.570367
     51          6           0       -7.126058   -1.474314    0.754094
     52          6           0       -8.350522   -1.829451   -0.087542
     53          6           0       -9.514430   -2.398958    0.805422
     54          6           0      -10.796438   -1.607619    0.641689
     55          6           0      -12.128964   -2.421009    0.518688
     56          6           0      -11.111071   -0.629060    1.785091
     57          6           0      -10.852677    0.855049    1.488092
     58          6           0      -10.399008    1.662746    2.764473
     59          6           0       -8.952306    1.711451    3.070959
     60          6           0       -8.513670    1.460459    4.571769
     61          6           0       -8.311459    3.018098    2.509147
     62          6           0       -7.897219    3.028914    0.996289
     63          6           0       -8.907720    3.656794   -0.000079
     64          6           0       -8.247567    4.476606   -1.106151
     65          6           0       -7.448321    3.562464   -2.108062
     66          6           0       -7.351672    5.571245   -0.574640
     67          1           0        1.330773    1.970663   -2.803548
     68          1           0        6.492253    4.631259    0.185037
     69          1           0        7.838106   -1.235294    2.854237
     70          1           0        1.514174   -2.843006   -2.486178
     71          1           0        0.118474   -0.298285   -2.243753
     72          1           0        0.243181   -0.191096   -4.437561
     73          1           0        1.132437   -1.664737   -4.490857
     74          1           0        2.026302   -0.121791   -4.377352
     75          1           0       -0.197722   -1.499952   -0.451733
     76          1           0        0.840770   -2.902408    0.094072
     77          1           0       -0.970976   -3.946121   -0.265431
     78          1           0       -0.241420   -4.027035   -1.868035
     79          1           0        2.153564    5.604819   -3.407435
     80          1           0        1.018154    4.494006   -2.645616
     81          1           0        1.936813    3.992985   -4.054876
     82          1           0        6.787993    5.882611   -1.480654
     83          1           0        5.797535    6.535373   -0.140015
     84          1           0        6.161058    7.563668   -1.524806
     85          1           0        7.069422    3.526650    2.675566
     86          1           0        9.168625    1.475889    2.007692
     87          1           0        8.990910    4.845580    2.210571
     88          1           0        8.530332    4.307743    0.585385
     89          1           0        9.780558    3.409579    1.549183
     90          1           0        7.266028    1.037432    4.327166
     91          1           0        8.193520    2.483953    4.551150
     92          1           0        8.996563    0.115190    5.474930
     93          1           0       10.008823    1.410871    5.173100
     94          1           0        9.792692    0.059882    3.933338
     95          1           0        7.690250   -3.223300    3.620130
     96          1           0        7.368255   -4.741340    2.785179
     97          1           0        6.179340   -4.061700    3.996228
     98          1           0        2.241117   -4.464366    0.325474
     99          1           0        1.563309   -5.913744   -3.224416
    100          1           0        0.838127   -7.126200   -2.132844
    101          1           0        2.508204   -7.382390   -2.741502
    102          1           0       -4.551832   -3.781081   -2.328535
    103          1           0       -4.394910   -1.989388   -2.378020
    104          1           0       -5.986461   -3.582952   -0.195588
    105          1           0       -4.309499   -0.285295   -1.038658
    106          1           0       -5.111558    0.404930    0.337130
    107          1           0       -5.977412    0.211323   -1.321444
    108          1           0       -7.252958   -0.439106    1.071286
    109          1           0       -6.959259   -2.121695    1.615089
    110          1           0       -8.191912   -2.518454   -0.916946
    111          1           0       -8.539722   -0.847377   -0.522256
    112          1           0       -9.315163   -2.403382    1.877392
    113          1           0       -9.609119   -3.441309    0.500716
    114          1           0      -10.730342   -1.001096   -0.261252
    115          1           0      -12.093984   -3.189969    1.291154
    116          1           0      -12.075009   -2.888668   -0.464419
    117          1           0      -13.025834   -1.814496    0.639475
    118          1           0      -10.576793   -0.955138    2.677418
    119          1           0      -12.158877   -0.632014    2.086308
    120          1           0      -11.843740    1.204692    1.198354
    121          1           0      -10.162670    0.940452    0.648034
    122          1           0      -10.996840    1.249760    3.577272
    123          1           0      -10.855860    2.648667    2.678950
    124          1           0       -8.515437    0.880034    2.518195
    125          1           0       -8.155690    0.440688    4.713608
    126          1           0       -9.365326    1.673220    5.217464
    127          1           0       -7.668574    2.081578    4.868865
    128          1           0       -7.478370    3.359918    3.123250
    129          1           0       -9.047164    3.822033    2.511377
    130          1           0       -7.898597    1.959012    0.788097
    131          1           0       -6.859272    3.295213    0.793348
    132          1           0       -9.588540    4.340593    0.506324
    133          1           0       -9.480436    2.879765   -0.506082
    134          1           0       -9.014775    5.042551   -1.634456
    135          1           0       -7.932979    3.592117   -3.084292
    136          1           0       -7.452523    2.488163   -1.925728
    137          1           0       -6.414004    3.893967   -2.200924
    138          1           0       -7.323914    6.324586   -1.361802
    139          1           0       -6.351202    5.237523   -0.297864
    140          1           0       -7.724223    6.009571    0.350771
 ---------------------------------------------------------------------

 SCF Done:  E(RZINDO/S) =  -474.091411696     A.U. after   19 cycles

 Excitation energies and oscillator strengths:

 Excited State   1:      Singlet-A      1.2204 eV 1015.92 nm  f=0.5999  <S**2>=0.000
     175 ->178        -0.17585
     176 ->177         0.66704
 This state for optimization and/or second-order correction.
 Total Energy, E(CIS/TDA) =  -474.046562420
 Copying the excited state density for this state as the 1-particle RhoCI density.

 Excited State   2:      Singlet-A      1.9462 eV  637.05 nm  f=0.0165  <S**2>=0.000
     175 ->177         0.52315
     176 ->178         0.44795

 Excited State   3:      Singlet-A      2.9061 eV  426.63 nm  f=0.4660  <S**2>=0.000
     175 ->177         0.29321
     176 ->178        -0.38636
     176 ->179         0.41788
     176 ->180         0.19574
     176 ->183        -0.11339

 Excited State   4:      Singlet-A      3.0380 eV  408.11 nm  f=0.0360  <S**2>=0.000
     168 ->177         0.25963
     168 ->179        -0.38927
     168 ->180         0.30690
     168 ->185        -0.22077
     168 ->187         0.12420
     168 ->191         0.13210
     171 ->177         0.11008
     176 ->179        -0.10970

 Excited State   5:      Singlet-A      3.0481 eV  406.76 nm  f=0.1074  <S**2>=0.000
     169 ->177         0.29160
     169 ->178        -0.16122
     169 ->179         0.32269
     169 ->180         0.33238
     169 ->183        -0.17033
     169 ->185         0.14583
     169 ->187         0.13181
     169 ->201        -0.11628
     175 ->177         0.11358
     176 ->178        -0.12788

 The electronic state is 1-A.
 Alpha  occ. eigenvalues --   -1.83278  -1.79232  -1.78876  -1.74239  -1.71986
 Alpha  occ. eigenvalues --   -1.70138  -1.67084  -1.61309  -1.58461  -1.56385
 Alpha  occ. eigenvalues --   -1.55835  -1.52836  -1.50419  -1.46797  -1.46579
 Alpha  occ. eigenvalues --   -1.44337  -1.43479  -1.41009  -1.38843  -1.37031
 Alpha  occ. eigenvalues --   -1.36190  -1.32143  -1.31805  -1.30678  -1.28785
 Alpha  occ. eigenvalues --   -1.28393  -1.27649  -1.23497  -1.20632  -1.18469
 Alpha  occ. eigenvalues --   -1.16929  -1.15795  -1.15065  -1.14259  -1.12552
 Alpha  occ. eigenvalues --   -1.11819  -1.11211  -1.09240  -1.04830  -1.03405
 Alpha  occ. eigenvalues --   -1.02242  -1.01109  -0.99123  -0.97913  -0.97634
 Alpha  occ. eigenvalues --   -0.96242  -0.95767  -0.93953  -0.93495  -0.92372
 Alpha  occ. eigenvalues --   -0.91972  -0.91349  -0.89577  -0.88199  -0.86169
 Alpha  occ. eigenvalues --   -0.84186  -0.84049  -0.83285  -0.81602  -0.79921
 Alpha  occ. eigenvalues --   -0.79200  -0.78827  -0.78014  -0.76936  -0.76277
 Alpha  occ. eigenvalues --   -0.76154  -0.75914  -0.74831  -0.74440  -0.73988
 Alpha  occ. eigenvalues --   -0.73150  -0.73120  -0.72700  -0.71934  -0.70309
 Alpha  occ. eigenvalues --   -0.69848  -0.69401  -0.69152  -0.68770  -0.67811
 Alpha  occ. eigenvalues --   -0.67456  -0.66805  -0.66552  -0.66499  -0.65499
 Alpha  occ. eigenvalues --   -0.65288  -0.65118  -0.64507  -0.64462  -0.63681
 Alpha  occ. eigenvalues --   -0.63247  -0.62974  -0.62903  -0.62478  -0.62138
 Alpha  occ. eigenvalues --   -0.61884  -0.60998  -0.60582  -0.60383  -0.60314
 Alpha  occ. eigenvalues --   -0.60254  -0.59782  -0.58840  -0.58508  -0.58201
 Alpha  occ. eigenvalues --   -0.57741  -0.57717  -0.57243  -0.56626  -0.56542
 Alpha  occ. eigenvalues --   -0.56378  -0.56189  -0.55948  -0.55211  -0.55131
 Alpha  occ. eigenvalues --   -0.54550  -0.53866  -0.53514  -0.53183  -0.52886
 Alpha  occ. eigenvalues --   -0.52497  -0.52412  -0.51985  -0.51629  -0.51452
 Alpha  occ. eigenvalues --   -0.51153  -0.51009  -0.50850  -0.50795  -0.50574
 Alpha  occ. eigenvalues --   -0.50167  -0.49878  -0.49645  -0.49353  -0.49193
 Alpha  occ. eigenvalues --   -0.48938  -0.48653  -0.48195  -0.47983  -0.47535
 Alpha  occ. eigenvalues --   -0.47388  -0.47152  -0.46921  -0.46858  -0.46343
 Alpha  occ. eigenvalues --   -0.46182  -0.46035  -0.45562  -0.45456  -0.45359
 Alpha  occ. eigenvalues --   -0.44968  -0.44853  -0.44797  -0.44514  -0.44251
 Alpha  occ. eigenvalues --   -0.43980  -0.43903  -0.43744  -0.42775  -0.42605
 Alpha  occ. eigenvalues --   -0.42021  -0.41674  -0.41411  -0.39277  -0.39056
 Alpha  occ. eigenvalues --   -0.38302  -0.37633  -0.35801  -0.35406  -0.34978
 Alpha  occ. eigenvalues --   -0.33379  -0.32842  -0.32237  -0.32013  -0.27141
 Alpha  occ. eigenvalues --   -0.21693
 Alpha virt. eigenvalues --   -0.08614  -0.02310  -0.00690   0.00604   0.01537
 Alpha virt. eigenvalues --    0.01629   0.02147   0.02214   0.04389   0.04431
 Alpha virt. eigenvalues --    0.05603   0.06340   0.06794   0.07631   0.08051

 Mulliken charges:
               1
     1  Mg   0.436333
     2  C   -0.036053
     3  C   -0.047017
     4  C   -0.131584
     5  C   -0.075314
     6  N   -0.253468
     7  C    0.095358
     8  C    0.002102
     9  C    0.008482
    10  C    0.117735
    11  C   -0.044533
    12  C   -0.018873
    13  C   -0.000719
    14  C    0.474611
    15  O   -0.529757
    16  O   -0.259948
    17  N   -0.309469
    18  C    0.112303
    19  C    0.053092
    20  C   -0.072712
    21  C    0.156895
    22  C   -0.033156
    23  C    0.333098
    24  O   -0.519634
    25  C   -0.028453
    26  N   -0.310442
    27  C    0.155222
    28  C    0.008407
    29  C    0.013094
    30  C    0.108036
    31  C   -0.053902
    32  C   -0.028974
    33  C   -0.060487
    34  N   -0.302841
    35  C    0.094738
    36  C    0.001510
    37  C   -0.031893
    38  C    0.079029
    39  C   -0.041016
    40  C    0.334418
    41  O   -0.514142
    42  C    0.054811
    43  C    0.488432
    44  O   -0.519368
    45  O   -0.278129
    46  C    0.069678
    47  C    0.106014
    48  C   -0.118482
    49  C   -0.000717
    50  C   -0.044897
    51  C   -0.019088
    52  C   -0.032265
    53  C   -0.030156
    54  C   -0.013620
    55  C   -0.059893
    56  C   -0.037696
    57  C   -0.042648
    58  C   -0.025159
    59  C    0.000721
    60  C   -0.060475
    61  C   -0.037715
    62  C   -0.044945
    63  C   -0.024980
    64  C   -0.006953
    65  C   -0.061375
    66  C   -0.052875
    67  H    0.036122
    68  H    0.033762
    69  H    0.030029
    70  H    0.034429
    71  H    0.034848
    72  H    0.022924
    73  H    0.028200
    74  H    0.021835
    75  H    0.027028
    76  H    0.027068
    77  H    0.029400
    78  H    0.044666
    79  H    0.041514
    80  H    0.030193
    81  H    0.031180
    82  H    0.039216
    83  H    0.036879
    84  H    0.034654
    85  H    0.033440
    86  H    0.034524
    87  H    0.023949
    88  H    0.023107
    89  H    0.024888
    90  H    0.023558
    91  H    0.015303
    92  H    0.012976
    93  H    0.019465
    94  H    0.024352
    95  H    0.017741
    96  H    0.038841
    97  H    0.035880
    98  H    0.053869
    99  H    0.035197
   100  H    0.026919
   101  H    0.066137
   102  H    0.037300
   103  H    0.058779
   104  H    0.034114
   105  H    0.023843
   106  H    0.031076
   107  H    0.037947
   108  H    0.019861
   109  H    0.030325
   110  H    0.027870
   111  H    0.020354
   112  H    0.024158
   113  H    0.016929
   114  H    0.015609
   115  H    0.018325
   116  H    0.010109
   117  H    0.027112
   118  H    0.012496
   119  H    0.015657
   120  H    0.014835
   121  H    0.025108
   122  H    0.010394
   123  H    0.011565
   124  H    0.016524
   125  H    0.018630
   126  H    0.022098
   127  H    0.019413
   128  H    0.017455
   129  H    0.016258
   130  H    0.005599
   131  H    0.028841
   132  H    0.017241
   133  H    0.016982
   134  H    0.016415
   135  H    0.012170
   136  H    0.019017
   137  H    0.021418
   138  H    0.015695
   139  H    0.018191
   140  H    0.011899
 Sum of Mulliken charges =  -0.00000

 Dipole moment (field-independent basis, Debye):
    X=             -3.0261    Y=              3.2313    Z=              3.0643  Tot=              5.3841
 N-N= 4.420847002179D+03 E-N= 0.000000000000D+00  KE=-9.515338517482D+03
 Leave Link  601 at Wed Apr 27 18:16:12 2022, MaxMem=  6710886400 cpu:               0.8 elap:               0.0
 (Enter /sw/apps/gaussian-16.0/g16/l9999.exe)
 1\1\GINC-BP1-COMPUTE183\SP\RZINDO CIS\STO-3G\C55H74Mg1N4O6\OF15641\27-
 Apr-2022\0\\#p ZINDO=(nstates=5)\\step_1251_chromophore_23 ZINDO\\0,1\
 Mg,0,-9.805,40.733,42.873\C,0,-8.786,37.541,42.042\C,0,-7.287,42.043,4
 0.643\C,0,-10.901,43.936,43.387\C,0,-12.545,39.434,44.543\N,0,-8.257,3
 9.855,41.555\C,0,-7.978,38.548,41.415\C,0,-6.897,38.304,40.316\C,0,-6.
 347,39.784,40.045\C,0,-7.418,40.611,40.71\C,0,-4.898,40.032,40.482\C,0
 ,-7.52,37.62,39.098\C,0,-6.644,36.644,38.315\C,0,-5.768,37.201,37.202\

 Normal termination of Gaussian 16 at Wed Apr 27 18:16:13 2022.
