 Gaussian 16, Revision A.03,
 Gaussian 16:  ES64L-G16RevA.03 25-Dec-2016

 ------------------------------
 #p blyp/Def2SVP td=(nstates=5)
 ------------------------------

 --------------------------------------------------
 step_401_chromophore_21 TDDFT with blyp functional
 --------------------------------------------------
 Symbolic Z-matrix:
 Charge =  0 Multiplicity = 1

                         Standard orientation:
 ---------------------------------------------------------------------
 Center     Atomic      Atomic             Coordinates (Angstroms)
 Number     Number       Type             X           Y           Z
 ---------------------------------------------------------------------
      1         12           0        4.844160    1.119003    0.011427
      2          6           0        4.678036   -2.380769    0.464583
      3          6           0        1.534880    1.138753   -0.525643
      4          6           0        5.154322    4.264824   -0.265906
      5          6           0        8.440013    0.704798    0.315655
      6          7           0        3.377330   -0.426639   -0.271676
      7          6           0        3.487469   -1.720279    0.207865
      8          6           0        2.105233   -2.373602    0.346559
      9          6           0        1.156905   -1.372489   -0.406704
     10          6           0        2.052105   -0.133478   -0.335642
     11          6           0        0.801228   -1.762391   -1.817492
     12          6           0        1.790179   -2.599591    1.770284
     13          6           0        0.499544   -3.459770    2.097672
     14          6           0       -0.391570   -3.833728    0.847861
     15          8           0       -0.036774   -4.723319    0.066122
     16          8           0       -1.503626   -3.053380    0.671982
     17          7           0        3.470067    2.607747   -0.363603
     18          6           0        2.167003    2.370660   -0.494833
     19          6           0        1.524775    3.661789   -0.709892
     20          6           0        2.603000    4.652561   -0.664327
     21          6           0        3.798017    3.840782   -0.399755
     22          6           0        0.091497    3.961315   -0.892286
     23          6           0        2.570175    6.174683   -0.812126
     24          8           0        3.543407    6.905149   -0.679546
     25          6           0        1.229878    6.931906   -1.000494
     26          7           0        6.536833    2.249155   -0.000965
     27          6           0        6.404790    3.596926   -0.118838
     28          6           0        7.648147    4.369155    0.137547
     29          6           0        8.732004    3.266521    0.144492
     30          6           0        7.867147    1.968165    0.132830
     31          6           0        7.894727    5.494603   -0.948502
     32          6           0        9.658404    3.343906    1.336069
     33          6           0       11.224898    3.153193    1.127660
     34          7           0        6.326129   -0.504353    0.397602
     35          6           0        7.754160   -0.534906    0.441118
     36          6           0        8.231982   -1.816917    0.711796
     37          6           0        6.986137   -2.625719    0.724165
     38          6           0        5.926366   -1.764837    0.533806
     39          6           0        9.703195   -2.122629    0.843311
     40          6           0        6.501534   -3.984855    0.780077
     41          8           0        7.072741   -5.092563    0.914772
     42          6           0        4.914535   -3.881044    0.734090
     43          6           0        4.467072   -4.818115   -0.398217
     44          8           0        4.300258   -4.544357   -1.558284
     45          8           0        4.250130   -6.019129    0.153104
     46          6           0        3.272416   -6.847410   -0.547337
     47          6           0       -2.353878   -3.476276   -0.418000
     48          6           0       -3.321886   -2.376518   -0.582367
     49          6           0       -3.943366   -2.006889   -1.740371
     50          6           0       -3.789200   -2.666659   -3.137115
     51          6           0       -4.989812   -0.933512   -1.589663
     52          6           0       -6.370000   -1.615222   -1.286336
     53          6           0       -6.815986   -1.303748    0.130911
     54          6           0       -7.947857   -0.220639    0.289170
     55          6           0       -7.867921    0.726017    1.577483
     56          6           0       -9.371792   -0.909924    0.286400
     57          6           0      -10.077964   -0.895620   -1.056727
     58          6           0      -10.949811    0.342398   -1.298698
     59          6           0      -12.447443    0.202712   -1.073915
     60          6           0      -13.123013   -0.878634   -1.960811
     61          6           0      -13.161581    1.570587   -1.115850
     62          6           0      -14.194302    1.764961    0.005857
     63          6           0      -13.539195    2.569517    1.192897
     64          6           0      -13.508914    1.909387    2.543743
     65          6           0      -13.915857    2.929205    3.674317
     66          6           0      -12.021699    1.321537    2.726700
     67          1           0        0.479087    1.268023   -0.772381
     68          1           0        5.268014    5.348424   -0.334854
     69          1           0        9.530434    0.708383    0.375434
     70          1           0        2.017179   -3.322097   -0.182626
     71          1           0        0.215506   -1.100028    0.070493
     72          1           0       -0.202578   -1.370748   -1.981363
     73          1           0        0.879785   -2.809123   -2.109816
     74          1           0        1.518298   -1.326182   -2.512576
     75          1           0        1.611577   -1.689334    2.342666
     76          1           0        2.505636   -3.224807    2.302958
     77          1           0       -0.114802   -2.891000    2.796652
     78          1           0        0.826354   -4.346325    2.640587
     79          1           0       -0.340734    4.482149   -0.038031
     80          1           0       -0.456564    3.024544   -0.991842
     81          1           0       -0.064384    4.480087   -1.838921
     82          1           0        0.659243    6.744763   -0.091088
     83          1           0        0.678948    6.593748   -1.877975
     84          1           0        1.504603    7.981842   -1.106430
     85          1           0        7.450086    4.817955    1.111223
     86          1           0        9.222003    3.278982   -0.829055
     87          1           0        7.311441    5.207979   -1.823255
     88          1           0        8.956084    5.662971   -1.130707
     89          1           0        7.512138    6.394962   -0.467380
     90          1           0        9.399117    2.476298    1.942526
     91          1           0        9.559769    4.322151    1.808271
     92          1           0       11.829684    4.044749    1.294447
     93          1           0       11.431845    2.913462    0.084149
     94          1           0       11.623095    2.369816    1.772698
     95          1           0       10.441008   -1.410141    0.475375
     96          1           0        9.775396   -3.082558    0.331463
     97          1           0        9.893315   -2.230025    1.911336
     98          1           0        4.560205   -4.315711    1.668178
     99          1           0        3.382328   -6.740972   -1.626707
    100          1           0        2.270983   -6.528949   -0.257388
    101          1           0        3.486054   -7.876553   -0.259760
    102          1           0       -2.823838   -4.424920   -0.158776
    103          1           0       -1.884676   -3.587814   -1.395516
    104          1           0       -3.626873   -1.936897    0.367634
    105          1           0       -3.058772   -2.046849   -3.657862
    106          1           0       -4.740516   -2.657811   -3.668210
    107          1           0       -3.347303   -3.659582   -3.057797
    108          1           0       -5.209812   -0.675704   -2.625786
    109          1           0       -4.712092    0.027520   -1.157011
    110          1           0       -6.249052   -2.688633   -1.435925
    111          1           0       -7.151133   -1.336443   -1.993434
    112          1           0       -6.008670   -0.929700    0.759862
    113          1           0       -7.177238   -2.164451    0.694131
    114          1           0       -7.943398    0.354377   -0.637522
    115          1           0       -7.656905    1.757055    1.293241
    116          1           0       -7.060039    0.444594    2.252231
    117          1           0       -8.755717    0.652748    2.205688
    118          1           0      -10.015750   -0.462397    1.043296
    119          1           0       -9.262456   -1.967731    0.522474
    120          1           0      -10.757533   -1.745005   -0.988146
    121          1           0       -9.498798   -1.031346   -1.970676
    122          1           0      -10.756985    0.800903   -2.268304
    123          1           0      -10.605633    1.113858   -0.608890
    124          1           0      -12.493549   -0.072090   -0.020233
    125          1           0      -12.423144   -1.000227   -2.786776
    126          1           0      -14.135622   -0.518713   -2.146710
    127          1           0      -13.172632   -1.775999   -1.343998
    128          1           0      -13.711006    1.635290   -2.054199
    129          1           0      -12.463763    2.408186   -1.121454
    130          1           0      -14.551633    0.792038    0.344738
    131          1           0      -15.099982    2.299887   -0.277866
    132          1           0      -14.112269    3.486164    1.335863
    133          1           0      -12.567526    2.955100    0.881403
    134          1           0      -14.293930    1.152799    2.566545
    135          1           0      -14.935400    2.706365    3.987760
    136          1           0      -13.794735    3.959448    3.340756
    137          1           0      -13.258189    2.759013    4.526339
    138          1           0      -11.228322    1.755966    2.118720
    139          1           0      -12.133536    0.260021    2.507152
    140          1           0      -11.665612    1.327457    3.756694
 ---------------------------------------------------------------------

 SCF Done:  E(RB-LYP) =  -3007.37337064     A.U. after   21 cycles

 Excitation energies and oscillator strengths:

 Excited State   1:      Singlet-A      1.5334 eV  808.54 nm  f=0.0018  <S**2>=0.000
     244 -> 247        0.60779
     245 -> 247        0.35422
 This state for optimization and/or second-order correction.
 Total Energy, E(TD-HF/TD-DFT) =  -3007.31701780
 Copying the excited state density for this state as the 1-particle RhoCI density.

 Excited State   2:      Singlet-A      1.8091 eV  685.35 nm  f=0.3203  <S**2>=0.000
     245 -> 248       -0.13878
     246 -> 247        0.68475
     246 <- 247       -0.15635

 Excited State   3:      Singlet-A      1.8475 eV  671.08 nm  f=0.0081  <S**2>=0.000
     243 -> 247        0.69591

 Excited State   4:      Singlet-A      1.9582 eV  633.17 nm  f=0.0864  <S**2>=0.000
     242 -> 247        0.27164
     244 -> 247       -0.31445
     245 -> 247        0.53065
     246 -> 248        0.15113
     246 -> 249        0.10349

 Excited State   5:      Singlet-A      2.1582 eV  574.47 nm  f=0.0424  <S**2>=0.000
     242 -> 247        0.64141
     244 -> 247        0.11660
     245 -> 247       -0.22442

 The electronic state is 1-A.
 Alpha  occ. eigenvalues --  -46.27002 -18.83782 -18.80314 -18.77840 -18.75721
 Alpha  occ. eigenvalues --  -18.75599 -18.74478 -14.03567 -14.03262 -14.00920
 Alpha  occ. eigenvalues --  -13.99552 -10.05274 -10.02625 -10.00112  -9.98668
 Alpha  occ. eigenvalues --   -9.98124  -9.96498  -9.96383  -9.96331  -9.96295
 Alpha  occ. eigenvalues --   -9.96214  -9.95677  -9.95556  -9.94634  -9.94241
 Alpha  occ. eigenvalues --   -9.94233  -9.94026  -9.93710  -9.93602  -9.93570
 Alpha  occ. eigenvalues --   -9.93565  -9.93564  -9.93439  -9.93402  -9.93369
 Alpha  occ. eigenvalues --   -9.93314  -9.93195  -9.92999  -9.92943  -9.92747
 Alpha  occ. eigenvalues --   -9.92709  -9.92664  -9.92651  -9.92627  -9.92486
 Alpha  occ. eigenvalues --   -9.92397  -9.92392  -9.92370  -9.92026  -9.91992
 Alpha  occ. eigenvalues --   -9.91856  -9.91840  -9.91631  -9.91565  -9.91498
 Alpha  occ. eigenvalues --   -9.91355  -9.91256  -9.91215  -9.91168  -9.91077
 Alpha  occ. eigenvalues --   -9.91026  -9.90989  -9.90898  -9.90708  -9.90544
 Alpha  occ. eigenvalues --   -9.90535  -2.91693  -1.72127  -1.71574  -1.71403
 Alpha  occ. eigenvalues --   -0.99168  -0.97567  -0.91603  -0.90690  -0.89374
 Alpha  occ. eigenvalues --   -0.88526  -0.88469  -0.86432  -0.86207  -0.84547
 Alpha  occ. eigenvalues --   -0.74753  -0.74333  -0.73410  -0.73264  -0.72564
 Alpha  occ. eigenvalues --   -0.72259  -0.71910  -0.71033  -0.70845  -0.70475
 Alpha  occ. eigenvalues --   -0.69580  -0.69352  -0.68557  -0.67241  -0.66785
 Alpha  occ. eigenvalues --   -0.66353  -0.65495  -0.65147  -0.64698  -0.64320
 Alpha  occ. eigenvalues --   -0.64075  -0.62584  -0.62563  -0.61661  -0.61152
 Alpha  occ. eigenvalues --   -0.60396  -0.60196  -0.59781  -0.59721  -0.58918
 Alpha  occ. eigenvalues --   -0.58571  -0.57912  -0.56883  -0.55756  -0.54841
 Alpha  occ. eigenvalues --   -0.54560  -0.53370  -0.53001  -0.52878  -0.51585
 Alpha  occ. eigenvalues --   -0.51364  -0.51089  -0.50771  -0.50685  -0.50148
 Alpha  occ. eigenvalues --   -0.49996  -0.49586  -0.47873  -0.47716  -0.47129
 Alpha  occ. eigenvalues --   -0.46839  -0.46214  -0.45390  -0.44722  -0.44251
 Alpha  occ. eigenvalues --   -0.43869  -0.43359  -0.43166  -0.42972  -0.42708
 Alpha  occ. eigenvalues --   -0.42186  -0.41905  -0.41466  -0.41357  -0.41064
 Alpha  occ. eigenvalues --   -0.40864  -0.40696  -0.40526  -0.40324  -0.40183
 Alpha  occ. eigenvalues --   -0.39863  -0.39758  -0.39392  -0.39275  -0.39061
 Alpha  occ. eigenvalues --   -0.38924  -0.38621  -0.38493  -0.38157  -0.37983
 Alpha  occ. eigenvalues --   -0.37921  -0.37747  -0.37700  -0.37400  -0.37243
 Alpha  occ. eigenvalues --   -0.37174  -0.36838  -0.36811  -0.36736  -0.36575
 Alpha  occ. eigenvalues --   -0.36402  -0.36228  -0.36138  -0.35910  -0.35827
 Alpha  occ. eigenvalues --   -0.35534  -0.35335  -0.35156  -0.35083  -0.35051
 Alpha  occ. eigenvalues --   -0.34763  -0.34708  -0.34300  -0.34186  -0.34095
 Alpha  occ. eigenvalues --   -0.33720  -0.33674  -0.33616  -0.33357  -0.33350
 Alpha  occ. eigenvalues --   -0.33166  -0.32715  -0.32506  -0.32471  -0.32406
 Alpha  occ. eigenvalues --   -0.32235  -0.32118  -0.31980  -0.31910  -0.31767
 Alpha  occ. eigenvalues --   -0.31423  -0.31151  -0.31043  -0.30988  -0.30928
 Alpha  occ. eigenvalues --   -0.30686  -0.30406  -0.30258  -0.30100  -0.29749
 Alpha  occ. eigenvalues --   -0.29684  -0.29528  -0.29006  -0.28926  -0.28870
 Alpha  occ. eigenvalues --   -0.28609  -0.28412  -0.28236  -0.28202  -0.28094
 Alpha  occ. eigenvalues --   -0.27503  -0.27422  -0.27236  -0.26708  -0.26540
 Alpha  occ. eigenvalues --   -0.26324  -0.26083  -0.25988  -0.25759  -0.25444
 Alpha  occ. eigenvalues --   -0.24861  -0.24673  -0.24248  -0.24227  -0.23444
 Alpha  occ. eigenvalues --   -0.23029  -0.22442  -0.21888  -0.20980  -0.20797
 Alpha  occ. eigenvalues --   -0.20513  -0.19163  -0.18676  -0.17589  -0.17201
 Alpha  occ. eigenvalues --   -0.16139
 Alpha virt. eigenvalues --   -0.11962  -0.06434  -0.05837  -0.04454  -0.04305
 Alpha virt. eigenvalues --   -0.02705  -0.01960  -0.01395  -0.01044   0.00193
 Alpha virt. eigenvalues --    0.01328   0.01549   0.01854   0.02526   0.02728

 Mulliken charges:
               1
     1  Mg   0.685654
     2  C    0.045292
     3  C   -0.085417
     4  C   -0.043797
     5  C   -0.073218
     6  N   -0.233161
     7  C   -0.037632
     8  C    0.032866
     9  C   -0.018240
    10  C    0.057497
    11  C    0.135903
    12  C    0.116547
    13  C    0.137191
    14  C    0.081992
    15  O   -0.213339
    16  O   -0.254964
    17  N   -0.214522
    18  C    0.119551
    19  C   -0.162255
    20  C    0.044322
    21  C    0.055767
    22  C    0.188265
    23  C   -0.087536
    24  O   -0.161299
    25  C    0.119098
    26  N   -0.232228
    27  C    0.019005
    28  C   -0.036010
    29  C    0.104989
    30  C   -0.015962
    31  C    0.128386
    32  C    0.093804
    33  C    0.037782
    34  N   -0.231165
    35  C    0.116755
    36  C   -0.150507
    37  C    0.072194
    38  C    0.084129
    39  C    0.170720
    40  C   -0.079649
    41  O   -0.163939
    42  C    0.011626
    43  C    0.096833
    44  O   -0.162368
    45  O   -0.250363
    46  C    0.201675
    47  C    0.324429
    48  C   -0.128437
    49  C   -0.182709
    50  C    0.152808
    51  C    0.156843
    52  C    0.095592
    53  C    0.123736
    54  C   -0.094907
    55  C    0.095528
    56  C    0.111109
    57  C    0.092839
    58  C    0.051222
    59  C   -0.094122
    60  C    0.156255
    61  C    0.116655
    62  C    0.076223
    63  C    0.097100
    64  C   -0.091342
    65  C    0.102556
    66  C    0.065722
    67  H   -0.076036
    68  H   -0.056576
    69  H   -0.074082
    70  H   -0.008301
    71  H   -0.033555
    72  H   -0.003499
    73  H    0.011511
    74  H   -0.011624
    75  H   -0.025512
    76  H   -0.016671
    77  H   -0.020641
    78  H   -0.001221
    79  H    0.013215
    80  H   -0.033817
    81  H    0.005979
    82  H    0.007098
    83  H   -0.000538
    84  H   -0.003547
    85  H   -0.006948
    86  H   -0.027091
    87  H    0.009369
    88  H   -0.006010
    89  H    0.008089
    90  H   -0.007508
    91  H   -0.008919
    92  H   -0.010011
    93  H   -0.014392
    94  H   -0.002443
    95  H   -0.005445
    96  H    0.021241
    97  H    0.005025
    98  H    0.007587
    99  H    0.016971
   100  H    0.020145
   101  H    0.013425
   102  H    0.000888
   103  H    0.003076
   104  H   -0.028854
   105  H    0.009804
   106  H    0.004757
   107  H    0.000257
   108  H   -0.063841
   109  H   -0.008550
   110  H   -0.029439
   111  H   -0.024315
   112  H   -0.039219
   113  H   -0.042742
   114  H   -0.036845
   115  H   -0.007754
   116  H   -0.027149
   117  H   -0.006393
   118  H   -0.033341
   119  H   -0.042321
   120  H   -0.051225
   121  H   -0.031314
   122  H   -0.046917
   123  H   -0.042836
   124  H   -0.049513
   125  H   -0.007545
   126  H   -0.012244
   127  H   -0.011892
   128  H   -0.051981
   129  H   -0.039339
   130  H   -0.032564
   131  H   -0.037703
   132  H   -0.049856
   133  H   -0.035517
   134  H   -0.032286
   135  H   -0.012298
   136  H   -0.009322
   137  H   -0.026239
   138  H    0.011163
   139  H    0.004283
   140  H   -0.025514
 Sum of Mulliken charges =  -0.00000

 Dipole moment (field-independent basis, Debye):
    X=             -5.5887    Y=              3.1961    Z=              1.1237  Tot=              6.5354
 Quadrupole moment (field-independent basis, Debye-Ang):
   XX=           -390.2237   YY=           -442.9589   ZZ=           -401.4143
   XY=             41.1269   XZ=              9.6023   YZ=              0.3342

 Normal termination of Gaussian 16 at Wed May  4 20:44:20 2022.
