 Gaussian 16, Revision A.03,
 Gaussian 16:  ES64L-G16RevA.03 25-Dec-2016

 -----------------------------------
 #p cam-b3lyp/Def2SVP td=(nstates=5)
 -----------------------------------

 -------------------------------------------------------
 step_401_chromophore_21 TDDFT with cam-b3lyp functional
 -------------------------------------------------------
 Symbolic Z-matrix:
 Charge =  0 Multiplicity = 1

                         Standard orientation:
 ---------------------------------------------------------------------
 Center     Atomic      Atomic             Coordinates (Angstroms)
 Number     Number       Type             X           Y           Z
 ---------------------------------------------------------------------
      1         12           0        4.844160    1.119003    0.011427
      2          6           0        4.678036   -2.380769    0.464583
      3          6           0        1.534880    1.138753   -0.525643
      4          6           0        5.154322    4.264824   -0.265906
      5          6           0        8.440013    0.704798    0.315655
      6          7           0        3.377330   -0.426639   -0.271676
      7          6           0        3.487469   -1.720279    0.207865
      8          6           0        2.105233   -2.373602    0.346559
      9          6           0        1.156905   -1.372489   -0.406704
     10          6           0        2.052105   -0.133478   -0.335642
     11          6           0        0.801228   -1.762391   -1.817492
     12          6           0        1.790179   -2.599591    1.770284
     13          6           0        0.499544   -3.459770    2.097672
     14          6           0       -0.391570   -3.833728    0.847861
     15          8           0       -0.036774   -4.723319    0.066122
     16          8           0       -1.503626   -3.053380    0.671982
     17          7           0        3.470067    2.607747   -0.363603
     18          6           0        2.167003    2.370660   -0.494833
     19          6           0        1.524775    3.661789   -0.709892
     20          6           0        2.603000    4.652561   -0.664327
     21          6           0        3.798017    3.840782   -0.399755
     22          6           0        0.091497    3.961315   -0.892286
     23          6           0        2.570175    6.174683   -0.812126
     24          8           0        3.543407    6.905149   -0.679546
     25          6           0        1.229878    6.931906   -1.000494
     26          7           0        6.536833    2.249155   -0.000965
     27          6           0        6.404790    3.596926   -0.118838
     28          6           0        7.648147    4.369155    0.137547
     29          6           0        8.732004    3.266521    0.144492
     30          6           0        7.867147    1.968165    0.132830
     31          6           0        7.894727    5.494603   -0.948502
     32          6           0        9.658404    3.343906    1.336069
     33          6           0       11.224898    3.153193    1.127660
     34          7           0        6.326129   -0.504353    0.397602
     35          6           0        7.754160   -0.534906    0.441118
     36          6           0        8.231982   -1.816917    0.711796
     37          6           0        6.986137   -2.625719    0.724165
     38          6           0        5.926366   -1.764837    0.533806
     39          6           0        9.703195   -2.122629    0.843311
     40          6           0        6.501534   -3.984855    0.780077
     41          8           0        7.072741   -5.092563    0.914772
     42          6           0        4.914535   -3.881044    0.734090
     43          6           0        4.467072   -4.818115   -0.398217
     44          8           0        4.300258   -4.544357   -1.558284
     45          8           0        4.250130   -6.019129    0.153104
     46          6           0        3.272416   -6.847410   -0.547337
     47          6           0       -2.353878   -3.476276   -0.418000
     48          6           0       -3.321886   -2.376518   -0.582367
     49          6           0       -3.943366   -2.006889   -1.740371
     50          6           0       -3.789200   -2.666659   -3.137115
     51          6           0       -4.989812   -0.933512   -1.589663
     52          6           0       -6.370000   -1.615222   -1.286336
     53          6           0       -6.815986   -1.303748    0.130911
     54          6           0       -7.947857   -0.220639    0.289170
     55          6           0       -7.867921    0.726017    1.577483
     56          6           0       -9.371792   -0.909924    0.286400
     57          6           0      -10.077964   -0.895620   -1.056727
     58          6           0      -10.949811    0.342398   -1.298698
     59          6           0      -12.447443    0.202712   -1.073915
     60          6           0      -13.123013   -0.878634   -1.960811
     61          6           0      -13.161581    1.570587   -1.115850
     62          6           0      -14.194302    1.764961    0.005857
     63          6           0      -13.539195    2.569517    1.192897
     64          6           0      -13.508914    1.909387    2.543743
     65          6           0      -13.915857    2.929205    3.674317
     66          6           0      -12.021699    1.321537    2.726700
     67          1           0        0.479087    1.268023   -0.772381
     68          1           0        5.268014    5.348424   -0.334854
     69          1           0        9.530434    0.708383    0.375434
     70          1           0        2.017179   -3.322097   -0.182626
     71          1           0        0.215506   -1.100028    0.070493
     72          1           0       -0.202578   -1.370748   -1.981363
     73          1           0        0.879785   -2.809123   -2.109816
     74          1           0        1.518298   -1.326182   -2.512576
     75          1           0        1.611577   -1.689334    2.342666
     76          1           0        2.505636   -3.224807    2.302958
     77          1           0       -0.114802   -2.891000    2.796652
     78          1           0        0.826354   -4.346325    2.640587
     79          1           0       -0.340734    4.482149   -0.038031
     80          1           0       -0.456564    3.024544   -0.991842
     81          1           0       -0.064384    4.480087   -1.838921
     82          1           0        0.659243    6.744763   -0.091088
     83          1           0        0.678948    6.593748   -1.877975
     84          1           0        1.504603    7.981842   -1.106430
     85          1           0        7.450086    4.817955    1.111223
     86          1           0        9.222003    3.278982   -0.829055
     87          1           0        7.311441    5.207979   -1.823255
     88          1           0        8.956084    5.662971   -1.130707
     89          1           0        7.512138    6.394962   -0.467380
     90          1           0        9.399117    2.476298    1.942526
     91          1           0        9.559769    4.322151    1.808271
     92          1           0       11.829684    4.044749    1.294447
     93          1           0       11.431845    2.913462    0.084149
     94          1           0       11.623095    2.369816    1.772698
     95          1           0       10.441008   -1.410141    0.475375
     96          1           0        9.775396   -3.082558    0.331463
     97          1           0        9.893315   -2.230025    1.911336
     98          1           0        4.560205   -4.315711    1.668178
     99          1           0        3.382328   -6.740972   -1.626707
    100          1           0        2.270983   -6.528949   -0.257388
    101          1           0        3.486054   -7.876553   -0.259760
    102          1           0       -2.823838   -4.424920   -0.158776
    103          1           0       -1.884676   -3.587814   -1.395516
    104          1           0       -3.626873   -1.936897    0.367634
    105          1           0       -3.058772   -2.046849   -3.657862
    106          1           0       -4.740516   -2.657811   -3.668210
    107          1           0       -3.347303   -3.659582   -3.057797
    108          1           0       -5.209812   -0.675704   -2.625786
    109          1           0       -4.712092    0.027520   -1.157011
    110          1           0       -6.249052   -2.688633   -1.435925
    111          1           0       -7.151133   -1.336443   -1.993434
    112          1           0       -6.008670   -0.929700    0.759862
    113          1           0       -7.177238   -2.164451    0.694131
    114          1           0       -7.943398    0.354377   -0.637522
    115          1           0       -7.656905    1.757055    1.293241
    116          1           0       -7.060039    0.444594    2.252231
    117          1           0       -8.755717    0.652748    2.205688
    118          1           0      -10.015750   -0.462397    1.043296
    119          1           0       -9.262456   -1.967731    0.522474
    120          1           0      -10.757533   -1.745005   -0.988146
    121          1           0       -9.498798   -1.031346   -1.970676
    122          1           0      -10.756985    0.800903   -2.268304
    123          1           0      -10.605633    1.113858   -0.608890
    124          1           0      -12.493549   -0.072090   -0.020233
    125          1           0      -12.423144   -1.000227   -2.786776
    126          1           0      -14.135622   -0.518713   -2.146710
    127          1           0      -13.172632   -1.775999   -1.343998
    128          1           0      -13.711006    1.635290   -2.054199
    129          1           0      -12.463763    2.408186   -1.121454
    130          1           0      -14.551633    0.792038    0.344738
    131          1           0      -15.099982    2.299887   -0.277866
    132          1           0      -14.112269    3.486164    1.335863
    133          1           0      -12.567526    2.955100    0.881403
    134          1           0      -14.293930    1.152799    2.566545
    135          1           0      -14.935400    2.706365    3.987760
    136          1           0      -13.794735    3.959448    3.340756
    137          1           0      -13.258189    2.759013    4.526339
    138          1           0      -11.228322    1.755966    2.118720
    139          1           0      -12.133536    0.260021    2.507152
    140          1           0      -11.665612    1.327457    3.756694
 ---------------------------------------------------------------------

 SCF Done:  E(RCAM-B3LYP) =  -3007.17455931     A.U. after   17 cycles

 Excitation energies and oscillator strengths:

 Excited State   1:      Singlet-A      1.6934 eV  732.17 nm  f=0.4147  <S**2>=0.000
     245 -> 248       -0.16061
     246 -> 247        0.69052
     245 <- 248       -0.10300
 This state for optimization and/or second-order correction.
 Total Energy, E(TD-HF/TD-DFT) =  -3007.11232904
 Copying the excited state density for this state as the 1-particle RhoCI density.

 Excited State   2:      Singlet-A      2.1522 eV  576.09 nm  f=0.1818  <S**2>=0.000
     245 -> 247        0.66235
     246 -> 248        0.21939

 Excited State   3:      Singlet-A      2.8933 eV  428.53 nm  f=0.0194  <S**2>=0.000
     244 -> 247        0.68612

 Excited State   4:      Singlet-A      3.1921 eV  388.41 nm  f=0.0004  <S**2>=0.000
     243 -> 247        0.61909
     243 -> 249       -0.22342
     243 -> 250        0.21279

 Excited State   5:      Singlet-A      3.4434 eV  360.07 nm  f=0.0091  <S**2>=0.000
     240 -> 247        0.15430
     241 -> 247        0.66534

 The electronic state is 1-A.
 Alpha  occ. eigenvalues --  -46.88525 -19.26734 -19.23078 -19.20854 -19.19243
 Alpha  occ. eigenvalues --  -19.18535 -19.17262 -14.42506 -14.42130 -14.39499
 Alpha  occ. eigenvalues --  -14.37652 -10.40676 -10.37854 -10.35656 -10.33774
 Alpha  occ. eigenvalues --  -10.32168 -10.31159 -10.31051 -10.30733 -10.30444
 Alpha  occ. eigenvalues --  -10.30350 -10.30243 -10.30100 -10.29347 -10.28398
 Alpha  occ. eigenvalues --  -10.28305 -10.28257 -10.27743 -10.27648 -10.27504
 Alpha  occ. eigenvalues --  -10.27490 -10.27472 -10.27463 -10.27460 -10.27453
 Alpha  occ. eigenvalues --  -10.27372 -10.27353 -10.27352 -10.27115 -10.26926
 Alpha  occ. eigenvalues --  -10.26657 -10.26477 -10.26383 -10.26367 -10.26233
 Alpha  occ. eigenvalues --  -10.26222 -10.26196 -10.26175 -10.26109 -10.25844
 Alpha  occ. eigenvalues --  -10.25805 -10.25624 -10.25326 -10.25271 -10.25203
 Alpha  occ. eigenvalues --  -10.25097 -10.24962 -10.24922 -10.24812 -10.24785
 Alpha  occ. eigenvalues --  -10.24727 -10.24658 -10.24541 -10.24407 -10.24250
 Alpha  occ. eigenvalues --  -10.24228  -3.17125  -1.92035  -1.91593  -1.91420
 Alpha  occ. eigenvalues --   -1.17631  -1.16023  -1.10312  -1.08609  -1.07203
 Alpha  occ. eigenvalues --   -1.06513  -1.06473  -1.04085  -1.03941  -1.01792
 Alpha  occ. eigenvalues --   -0.91689  -0.91264  -0.90285  -0.90085  -0.89341
 Alpha  occ. eigenvalues --   -0.89031  -0.88631  -0.87602  -0.87431  -0.87355
 Alpha  occ. eigenvalues --   -0.85965  -0.85585  -0.84858  -0.83387  -0.82796
 Alpha  occ. eigenvalues --   -0.82431  -0.81477  -0.81212  -0.80566  -0.80334
 Alpha  occ. eigenvalues --   -0.79899  -0.78619  -0.78165  -0.77111  -0.76563
 Alpha  occ. eigenvalues --   -0.75725  -0.75590  -0.75124  -0.75006  -0.74169
 Alpha  occ. eigenvalues --   -0.73648  -0.72818  -0.71838  -0.70610  -0.69440
 Alpha  occ. eigenvalues --   -0.69226  -0.68090  -0.67467  -0.67314  -0.65705
 Alpha  occ. eigenvalues --   -0.65415  -0.65328  -0.64779  -0.64703  -0.64119
 Alpha  occ. eigenvalues --   -0.64068  -0.63614  -0.61704  -0.61393  -0.60816
 Alpha  occ. eigenvalues --   -0.60693  -0.59707  -0.58745  -0.58045  -0.57571
 Alpha  occ. eigenvalues --   -0.57142  -0.56649  -0.56483  -0.56271  -0.55970
 Alpha  occ. eigenvalues --   -0.55320  -0.54944  -0.54726  -0.54333  -0.53887
 Alpha  occ. eigenvalues --   -0.53809  -0.53481  -0.53324  -0.53255  -0.52965
 Alpha  occ. eigenvalues --   -0.52750  -0.52418  -0.52239  -0.51932  -0.51615
 Alpha  occ. eigenvalues --   -0.51431  -0.51285  -0.50813  -0.50653  -0.50496
 Alpha  occ. eigenvalues --   -0.50395  -0.50091  -0.49937  -0.49713  -0.49600
 Alpha  occ. eigenvalues --   -0.49417  -0.49202  -0.49070  -0.48917  -0.48772
 Alpha  occ. eigenvalues --   -0.48760  -0.48488  -0.48399  -0.48165  -0.47839
 Alpha  occ. eigenvalues --   -0.47717  -0.47696  -0.47288  -0.47165  -0.46927
 Alpha  occ. eigenvalues --   -0.46911  -0.46501  -0.46219  -0.46066  -0.45881
 Alpha  occ. eigenvalues --   -0.45524  -0.45477  -0.45309  -0.45159  -0.45045
 Alpha  occ. eigenvalues --   -0.44944  -0.44422  -0.44295  -0.44217  -0.44142
 Alpha  occ. eigenvalues --   -0.43906  -0.43849  -0.43486  -0.43448  -0.43371
 Alpha  occ. eigenvalues --   -0.43131  -0.42857  -0.42650  -0.42477  -0.42373
 Alpha  occ. eigenvalues --   -0.42325  -0.41879  -0.41488  -0.41374  -0.41224
 Alpha  occ. eigenvalues --   -0.41095  -0.40648  -0.40217  -0.40089  -0.40039
 Alpha  occ. eigenvalues --   -0.39866  -0.39619  -0.39578  -0.39097  -0.39075
 Alpha  occ. eigenvalues --   -0.38489  -0.38277  -0.38093  -0.37861  -0.37214
 Alpha  occ. eigenvalues --   -0.37172  -0.36953  -0.36824  -0.36584  -0.36439
 Alpha  occ. eigenvalues --   -0.35433  -0.35212  -0.35087  -0.34734  -0.34503
 Alpha  occ. eigenvalues --   -0.33940  -0.33738  -0.32920  -0.31149  -0.31035
 Alpha  occ. eigenvalues --   -0.30389  -0.30133  -0.29229  -0.27966  -0.23968
 Alpha  occ. eigenvalues --   -0.21567
 Alpha virt. eigenvalues --   -0.09325  -0.00928   0.00443   0.02626   0.03096
 Alpha virt. eigenvalues --    0.03365   0.04801   0.05159   0.06669   0.07076
 Alpha virt. eigenvalues --    0.07768   0.08106   0.08652   0.08860   0.08950

 Mulliken charges:
               1
     1  Mg   0.821225
     2  C    0.016938
     3  C   -0.093452
     4  C   -0.064727
     5  C   -0.076468
     6  N   -0.300070
     7  C    0.001336
     8  C   -0.034092
     9  C   -0.070446
    10  C    0.073342
    11  C    0.080865
    12  C    0.070507
    13  C    0.081648
    14  C    0.150232
    15  O   -0.253488
    16  O   -0.318667
    17  N   -0.310835
    18  C    0.129494
    19  C   -0.163611
    20  C   -0.026281
    21  C    0.085138
    22  C    0.126928
    23  C   -0.005962
    24  O   -0.201057
    25  C    0.043846
    26  N   -0.309222
    27  C    0.046876
    28  C   -0.093233
    29  C    0.044770
    30  C    0.005290
    31  C    0.069884
    32  C    0.030238
    33  C   -0.020129
    34  N   -0.317004
    35  C    0.114175
    36  C   -0.144653
    37  C   -0.013448
    38  C    0.121508
    39  C    0.120493
    40  C    0.022084
    41  O   -0.205919
    42  C   -0.059123
    43  C    0.185081
    44  O   -0.201112
    45  O   -0.313023
    46  C    0.162962
    47  C    0.291636
    48  C   -0.143270
    49  C   -0.205093
    50  C    0.090815
    51  C    0.085902
    52  C    0.043762
    53  C    0.071327
    54  C   -0.150436
    55  C    0.042159
    56  C    0.066269
    57  C    0.030996
    58  C    0.005064
    59  C   -0.139833
    60  C    0.092671
    61  C    0.054969
    62  C    0.023543
    63  C    0.039730
    64  C   -0.149946
    65  C    0.045741
    66  C    0.010566
    67  H   -0.039957
    68  H   -0.015499
    69  H   -0.039235
    70  H    0.025890
    71  H    0.003530
    72  H    0.016605
    73  H    0.037274
    74  H    0.016605
    75  H    0.005358
    76  H    0.013491
    77  H    0.013724
    78  H    0.030976
    79  H    0.041122
    80  H   -0.003251
    81  H    0.033210
    82  H    0.033052
    83  H    0.026309
    84  H    0.032520
    85  H    0.028137
    86  H    0.008360
    87  H    0.034716
    88  H    0.019647
    89  H    0.031141
    90  H    0.024009
    91  H    0.019149
    92  H    0.013886
    93  H    0.007642
    94  H    0.020609
    95  H    0.018398
    96  H    0.045017
    97  H    0.030072
    98  H    0.048147
    99  H    0.043512
   100  H    0.040683
   101  H    0.036595
   102  H    0.029825
   103  H    0.027882
   104  H    0.004969
   105  H    0.034136
   106  H    0.028516
   107  H    0.023829
   108  H   -0.029415
   109  H    0.022044
   110  H    0.002031
   111  H    0.000932
   112  H   -0.013026
   113  H   -0.012883
   114  H   -0.006695
   115  H    0.015501
   116  H   -0.002668
   117  H    0.014187
   118  H   -0.009719
   119  H   -0.013031
   120  H   -0.019719
   121  H   -0.003202
   122  H   -0.017214
   123  H   -0.018314
   124  H   -0.022334
   125  H    0.016030
   126  H    0.012090
   127  H    0.011556
   128  H   -0.020379
   129  H   -0.008640
   130  H   -0.005895
   131  H   -0.006170
   132  H   -0.017836
   133  H   -0.008317
   134  H   -0.000091
   135  H    0.011653
   136  H    0.013378
   137  H   -0.002230
   138  H    0.027537
   139  H    0.025120
   140  H   -0.000295
 Sum of Mulliken charges =  -0.00000

 Dipole moment (field-independent basis, Debye):
    X=             -6.5808    Y=              4.1545    Z=              1.0662  Tot=              7.8552
 Quadrupole moment (field-independent basis, Debye-Ang):
   XX=           -396.0782   YY=           -438.9434   ZZ=           -401.0137
   XY=             44.3733   XZ=              9.4114   YZ=             -0.7011

 Normal termination of Gaussian 16 at Wed May  4 19:30:12 2022.
