 Gaussian 16, Revision A.03,
 Gaussian 16:  ES64L-G16RevA.03 25-Dec-2016

 ---------------------------------
 #p PBE1PBE/Def2SVP td=(nstates=5)
 ---------------------------------

 -----------------------------------------------------
 step_401_chromophore_21 TDDFT with PBE1PBE functional
 -----------------------------------------------------
 Symbolic Z-matrix:
 Charge =  0 Multiplicity = 1

                         Standard orientation:
 ---------------------------------------------------------------------
 Center     Atomic      Atomic             Coordinates (Angstroms)
 Number     Number       Type             X           Y           Z
 ---------------------------------------------------------------------
      1         12           0        4.844160    1.119003    0.011427
      2          6           0        4.678036   -2.380769    0.464583
      3          6           0        1.534880    1.138753   -0.525643
      4          6           0        5.154322    4.264824   -0.265906
      5          6           0        8.440013    0.704798    0.315655
      6          7           0        3.377330   -0.426639   -0.271676
      7          6           0        3.487469   -1.720279    0.207865
      8          6           0        2.105233   -2.373602    0.346559
      9          6           0        1.156905   -1.372489   -0.406704
     10          6           0        2.052105   -0.133478   -0.335642
     11          6           0        0.801228   -1.762391   -1.817492
     12          6           0        1.790179   -2.599591    1.770284
     13          6           0        0.499544   -3.459770    2.097672
     14          6           0       -0.391570   -3.833728    0.847861
     15          8           0       -0.036774   -4.723319    0.066122
     16          8           0       -1.503626   -3.053380    0.671982
     17          7           0        3.470067    2.607747   -0.363603
     18          6           0        2.167003    2.370660   -0.494833
     19          6           0        1.524775    3.661789   -0.709892
     20          6           0        2.603000    4.652561   -0.664327
     21          6           0        3.798017    3.840782   -0.399755
     22          6           0        0.091497    3.961315   -0.892286
     23          6           0        2.570175    6.174683   -0.812126
     24          8           0        3.543407    6.905149   -0.679546
     25          6           0        1.229878    6.931906   -1.000494
     26          7           0        6.536833    2.249155   -0.000965
     27          6           0        6.404790    3.596926   -0.118838
     28          6           0        7.648147    4.369155    0.137547
     29          6           0        8.732004    3.266521    0.144492
     30          6           0        7.867147    1.968165    0.132830
     31          6           0        7.894727    5.494603   -0.948502
     32          6           0        9.658404    3.343906    1.336069
     33          6           0       11.224898    3.153193    1.127660
     34          7           0        6.326129   -0.504353    0.397602
     35          6           0        7.754160   -0.534906    0.441118
     36          6           0        8.231982   -1.816917    0.711796
     37          6           0        6.986137   -2.625719    0.724165
     38          6           0        5.926366   -1.764837    0.533806
     39          6           0        9.703195   -2.122629    0.843311
     40          6           0        6.501534   -3.984855    0.780077
     41          8           0        7.072741   -5.092563    0.914772
     42          6           0        4.914535   -3.881044    0.734090
     43          6           0        4.467072   -4.818115   -0.398217
     44          8           0        4.300258   -4.544357   -1.558284
     45          8           0        4.250130   -6.019129    0.153104
     46          6           0        3.272416   -6.847410   -0.547337
     47          6           0       -2.353878   -3.476276   -0.418000
     48          6           0       -3.321886   -2.376518   -0.582367
     49          6           0       -3.943366   -2.006889   -1.740371
     50          6           0       -3.789200   -2.666659   -3.137115
     51          6           0       -4.989812   -0.933512   -1.589663
     52          6           0       -6.370000   -1.615222   -1.286336
     53          6           0       -6.815986   -1.303748    0.130911
     54          6           0       -7.947857   -0.220639    0.289170
     55          6           0       -7.867921    0.726017    1.577483
     56          6           0       -9.371792   -0.909924    0.286400
     57          6           0      -10.077964   -0.895620   -1.056727
     58          6           0      -10.949811    0.342398   -1.298698
     59          6           0      -12.447443    0.202712   -1.073915
     60          6           0      -13.123013   -0.878634   -1.960811
     61          6           0      -13.161581    1.570587   -1.115850
     62          6           0      -14.194302    1.764961    0.005857
     63          6           0      -13.539195    2.569517    1.192897
     64          6           0      -13.508914    1.909387    2.543743
     65          6           0      -13.915857    2.929205    3.674317
     66          6           0      -12.021699    1.321537    2.726700
     67          1           0        0.479087    1.268023   -0.772381
     68          1           0        5.268014    5.348424   -0.334854
     69          1           0        9.530434    0.708383    0.375434
     70          1           0        2.017179   -3.322097   -0.182626
     71          1           0        0.215506   -1.100028    0.070493
     72          1           0       -0.202578   -1.370748   -1.981363
     73          1           0        0.879785   -2.809123   -2.109816
     74          1           0        1.518298   -1.326182   -2.512576
     75          1           0        1.611577   -1.689334    2.342666
     76          1           0        2.505636   -3.224807    2.302958
     77          1           0       -0.114802   -2.891000    2.796652
     78          1           0        0.826354   -4.346325    2.640587
     79          1           0       -0.340734    4.482149   -0.038031
     80          1           0       -0.456564    3.024544   -0.991842
     81          1           0       -0.064384    4.480087   -1.838921
     82          1           0        0.659243    6.744763   -0.091088
     83          1           0        0.678948    6.593748   -1.877975
     84          1           0        1.504603    7.981842   -1.106430
     85          1           0        7.450086    4.817955    1.111223
     86          1           0        9.222003    3.278982   -0.829055
     87          1           0        7.311441    5.207979   -1.823255
     88          1           0        8.956084    5.662971   -1.130707
     89          1           0        7.512138    6.394962   -0.467380
     90          1           0        9.399117    2.476298    1.942526
     91          1           0        9.559769    4.322151    1.808271
     92          1           0       11.829684    4.044749    1.294447
     93          1           0       11.431845    2.913462    0.084149
     94          1           0       11.623095    2.369816    1.772698
     95          1           0       10.441008   -1.410141    0.475375
     96          1           0        9.775396   -3.082558    0.331463
     97          1           0        9.893315   -2.230025    1.911336
     98          1           0        4.560205   -4.315711    1.668178
     99          1           0        3.382328   -6.740972   -1.626707
    100          1           0        2.270983   -6.528949   -0.257388
    101          1           0        3.486054   -7.876553   -0.259760
    102          1           0       -2.823838   -4.424920   -0.158776
    103          1           0       -1.884676   -3.587814   -1.395516
    104          1           0       -3.626873   -1.936897    0.367634
    105          1           0       -3.058772   -2.046849   -3.657862
    106          1           0       -4.740516   -2.657811   -3.668210
    107          1           0       -3.347303   -3.659582   -3.057797
    108          1           0       -5.209812   -0.675704   -2.625786
    109          1           0       -4.712092    0.027520   -1.157011
    110          1           0       -6.249052   -2.688633   -1.435925
    111          1           0       -7.151133   -1.336443   -1.993434
    112          1           0       -6.008670   -0.929700    0.759862
    113          1           0       -7.177238   -2.164451    0.694131
    114          1           0       -7.943398    0.354377   -0.637522
    115          1           0       -7.656905    1.757055    1.293241
    116          1           0       -7.060039    0.444594    2.252231
    117          1           0       -8.755717    0.652748    2.205688
    118          1           0      -10.015750   -0.462397    1.043296
    119          1           0       -9.262456   -1.967731    0.522474
    120          1           0      -10.757533   -1.745005   -0.988146
    121          1           0       -9.498798   -1.031346   -1.970676
    122          1           0      -10.756985    0.800903   -2.268304
    123          1           0      -10.605633    1.113858   -0.608890
    124          1           0      -12.493549   -0.072090   -0.020233
    125          1           0      -12.423144   -1.000227   -2.786776
    126          1           0      -14.135622   -0.518713   -2.146710
    127          1           0      -13.172632   -1.775999   -1.343998
    128          1           0      -13.711006    1.635290   -2.054199
    129          1           0      -12.463763    2.408186   -1.121454
    130          1           0      -14.551633    0.792038    0.344738
    131          1           0      -15.099982    2.299887   -0.277866
    132          1           0      -14.112269    3.486164    1.335863
    133          1           0      -12.567526    2.955100    0.881403
    134          1           0      -14.293930    1.152799    2.566545
    135          1           0      -14.935400    2.706365    3.987760
    136          1           0      -13.794735    3.959448    3.340756
    137          1           0      -13.258189    2.759013    4.526339
    138          1           0      -11.228322    1.755966    2.118720
    139          1           0      -12.133536    0.260021    2.507152
    140          1           0      -11.665612    1.327457    3.756694
 ---------------------------------------------------------------------

 SCF Done:  E(RPBE1PBE) =  -3005.36380243     A.U. after   15 cycles

 Excitation energies and oscillator strengths:

 Excited State   1:      Singlet-A      1.8443 eV  672.24 nm  f=0.3992  <S**2>=0.000
     245 -> 248       -0.15232
     246 -> 247        0.69782
     246 <- 247       -0.11636
 This state for optimization and/or second-order correction.
 Total Energy, E(TD-HF/TD-DFT) =  -3005.29602453
 Copying the excited state density for this state as the 1-particle RhoCI density.

 Excited State   2:      Singlet-A      2.1595 eV  574.12 nm  f=0.1564  <S**2>=0.000
     244 -> 247        0.12603
     245 -> 247        0.66331
     246 -> 248        0.19274

 Excited State   3:      Singlet-A      2.5720 eV  482.05 nm  f=0.0082  <S**2>=0.000
     243 -> 247       -0.41178
     244 -> 247        0.55685

 Excited State   4:      Singlet-A      2.6075 eV  475.50 nm  f=0.0190  <S**2>=0.000
     243 -> 247        0.54800
     244 -> 247        0.40756
     245 -> 247       -0.10910

 Excited State   5:      Singlet-A      2.9635 eV  418.37 nm  f=0.0001  <S**2>=0.000
     240 -> 247       -0.18310
     241 -> 247        0.65731
     241 -> 249        0.12940

 The electronic state is 1-A.
 Alpha  occ. eigenvalues --  -46.91905 -19.27370 -19.23814 -19.21109 -19.19263
 Alpha  occ. eigenvalues --  -19.18835 -19.17757 -14.41987 -14.41645 -14.38963
 Alpha  occ. eigenvalues --  -14.37499 -10.37742 -10.34943 -10.32612 -10.31132
 Alpha  occ. eigenvalues --  -10.29518 -10.28745 -10.28591 -10.28581 -10.28380
 Alpha  occ. eigenvalues --  -10.27762 -10.27615 -10.27385 -10.26723 -10.26415
 Alpha  occ. eigenvalues --  -10.25949 -10.25814 -10.25628 -10.25278 -10.25248
 Alpha  occ. eigenvalues --  -10.25231 -10.25220 -10.25211 -10.25172 -10.25155
 Alpha  occ. eigenvalues --  -10.25052 -10.24977 -10.24856 -10.24725 -10.24423
 Alpha  occ. eigenvalues --  -10.24392 -10.24211 -10.24080 -10.23938 -10.23858
 Alpha  occ. eigenvalues --  -10.23825 -10.23816 -10.23591 -10.23427 -10.23385
 Alpha  occ. eigenvalues --  -10.23343 -10.23129 -10.22773 -10.22761 -10.22711
 Alpha  occ. eigenvalues --  -10.22700 -10.22686 -10.22463 -10.22385 -10.22383
 Alpha  occ. eigenvalues --  -10.22254 -10.22161 -10.21966 -10.21940 -10.21791
 Alpha  occ. eigenvalues --  -10.21779  -3.14085  -1.86937  -1.86474  -1.86303
 Alpha  occ. eigenvalues --   -1.12414  -1.10889  -1.04855  -1.03430  -1.02113
 Alpha  occ. eigenvalues --   -1.01428  -1.01028  -0.98716  -0.98510  -0.96665
 Alpha  occ. eigenvalues --   -0.86141  -0.85392  -0.84400  -0.84263  -0.83579
 Alpha  occ. eigenvalues --   -0.83325  -0.82727  -0.81927  -0.81555  -0.81475
 Alpha  occ. eigenvalues --   -0.80318  -0.79920  -0.79059  -0.77596  -0.77142
 Alpha  occ. eigenvalues --   -0.76715  -0.75683  -0.75346  -0.74818  -0.74620
 Alpha  occ. eigenvalues --   -0.74035  -0.72710  -0.72479  -0.71449  -0.70722
 Alpha  occ. eigenvalues --   -0.70083  -0.69661  -0.69388  -0.69239  -0.68342
 Alpha  occ. eigenvalues --   -0.67950  -0.67337  -0.66216  -0.64890  -0.63815
 Alpha  occ. eigenvalues --   -0.63476  -0.62380  -0.61855  -0.61710  -0.60134
 Alpha  occ. eigenvalues --   -0.59856  -0.59572  -0.59357  -0.59091  -0.58704
 Alpha  occ. eigenvalues --   -0.58186  -0.57758  -0.56011  -0.55888  -0.55224
 Alpha  occ. eigenvalues --   -0.55137  -0.54155  -0.53366  -0.52711  -0.52249
 Alpha  occ. eigenvalues --   -0.51534  -0.51107  -0.51063  -0.50748  -0.50444
 Alpha  occ. eigenvalues --   -0.49868  -0.49491  -0.49125  -0.48842  -0.48353
 Alpha  occ. eigenvalues --   -0.48294  -0.48020  -0.47894  -0.47487  -0.47446
 Alpha  occ. eigenvalues --   -0.47357  -0.47008  -0.46688  -0.46537  -0.46164
 Alpha  occ. eigenvalues --   -0.45933  -0.45896  -0.45337  -0.45186  -0.45064
 Alpha  occ. eigenvalues --   -0.44869  -0.44635  -0.44457  -0.44346  -0.44252
 Alpha  occ. eigenvalues --   -0.43958  -0.43760  -0.43614  -0.43501  -0.43361
 Alpha  occ. eigenvalues --   -0.43326  -0.43062  -0.43003  -0.42825  -0.42432
 Alpha  occ. eigenvalues --   -0.42397  -0.42362  -0.41967  -0.41848  -0.41514
 Alpha  occ. eigenvalues --   -0.41432  -0.41131  -0.40961  -0.40710  -0.40664
 Alpha  occ. eigenvalues --   -0.40297  -0.40199  -0.40003  -0.39933  -0.39892
 Alpha  occ. eigenvalues --   -0.39638  -0.39197  -0.38991  -0.38943  -0.38850
 Alpha  occ. eigenvalues --   -0.38616  -0.38565  -0.38341  -0.38241  -0.38057
 Alpha  occ. eigenvalues --   -0.37899  -0.37693  -0.37370  -0.37303  -0.37173
 Alpha  occ. eigenvalues --   -0.37052  -0.36714  -0.36222  -0.36176  -0.36084
 Alpha  occ. eigenvalues --   -0.35894  -0.35607  -0.35113  -0.34957  -0.34884
 Alpha  occ. eigenvalues --   -0.34659  -0.34483  -0.34348  -0.34089  -0.33835
 Alpha  occ. eigenvalues --   -0.33440  -0.33131  -0.33012  -0.32786  -0.32248
 Alpha  occ. eigenvalues --   -0.32016  -0.32001  -0.31635  -0.31597  -0.31279
 Alpha  occ. eigenvalues --   -0.30308  -0.30088  -0.30038  -0.29651  -0.29417
 Alpha  occ. eigenvalues --   -0.29253  -0.29127  -0.27917  -0.26676  -0.25884
 Alpha  occ. eigenvalues --   -0.25697  -0.25441  -0.24298  -0.23883  -0.20924
 Alpha  occ. eigenvalues --   -0.19143
 Alpha virt. eigenvalues --   -0.11680  -0.04569  -0.03680  -0.01797  -0.01251
 Alpha virt. eigenvalues --    0.00273   0.00490   0.01209   0.02126   0.03098
 Alpha virt. eigenvalues --    0.04117   0.04486   0.04811   0.05388   0.05644

 Mulliken charges:
               1
     1  Mg   0.972589
     2  C    0.011019
     3  C   -0.074992
     4  C   -0.054734
     5  C   -0.074665
     6  N   -0.400245
     7  C    0.069468
     8  C   -0.128320
     9  C   -0.143044
    10  C    0.100364
    11  C    0.031645
    12  C    0.028887
    13  C    0.017200
    14  C    0.206155
    15  O   -0.283988
    16  O   -0.350196
    17  N   -0.441939
    18  C    0.152463
    19  C   -0.195507
    20  C   -0.075484
    21  C    0.123512
    22  C    0.066190
    23  C    0.046463
    24  O   -0.239084
    25  C   -0.031168
    26  N   -0.421558
    27  C    0.081866
    28  C   -0.167911
    29  C   -0.036130
    30  C    0.048539
    31  C    0.009717
    32  C   -0.033414
    33  C   -0.088982
    34  N   -0.437633
    35  C    0.136309
    36  C   -0.155728
    37  C   -0.061021
    38  C    0.175328
    39  C    0.067486
    40  C    0.114023
    41  O   -0.248033
    42  C   -0.164634
    43  C    0.277350
    44  O   -0.237269
    45  O   -0.345897
    46  C    0.106413
    47  C    0.252177
    48  C   -0.147164
    49  C   -0.253477
    50  C    0.023253
    51  C    0.014795
    52  C   -0.018065
    53  C    0.018916
    54  C   -0.232623
    55  C   -0.019054
    56  C    0.008326
    57  C   -0.036028
    58  C   -0.049274
    59  C   -0.223646
    60  C    0.027506
    61  C   -0.004125
    62  C   -0.038160
    63  C   -0.011025
    64  C   -0.242347
    65  C   -0.015358
    66  C   -0.050661
    67  H   -0.006721
    68  H    0.018059
    69  H   -0.003521
    70  H    0.067829
    71  H    0.040720
    72  H    0.044484
    73  H    0.061488
    74  H    0.044358
    75  H    0.038078
    76  H    0.048325
    77  H    0.045903
    78  H    0.061801
    79  H    0.067261
    80  H    0.024805
    81  H    0.060112
    82  H    0.060011
    83  H    0.052369
    84  H    0.059063
    85  H    0.064625
    86  H    0.046183
    87  H    0.063177
    88  H    0.047590
    89  H    0.058189
    90  H    0.057549
    91  H    0.052267
    92  H    0.041975
    93  H    0.034608
    94  H    0.047268
    95  H    0.044898
    96  H    0.073283
    97  H    0.059764
    98  H    0.084135
    99  H    0.064962
   100  H    0.065078
   101  H    0.058504
   102  H    0.057075
   103  H    0.054674
   104  H    0.035501
   105  H    0.062797
   106  H    0.054883
   107  H    0.050333
   108  H    0.007853
   109  H    0.052000
   110  H    0.035544
   111  H    0.033582
   112  H    0.020335
   113  H    0.019508
   114  H    0.032776
   115  H    0.042634
   116  H    0.024446
   117  H    0.041556
   118  H    0.026396
   119  H    0.019531
   120  H    0.015534
   121  H    0.029269
   122  H    0.015740
   123  H    0.017341
   124  H    0.022201
   125  H    0.044420
   126  H    0.039880
   127  H    0.038644
   128  H    0.013678
   129  H    0.023267
   130  H    0.025782
   131  H    0.026397
   132  H    0.016227
   133  H    0.022791
   134  H    0.036711
   135  H    0.039335
   136  H    0.039790
   137  H    0.025754
   138  H    0.053597
   139  H    0.051200
   140  H    0.027163
 Sum of Mulliken charges =  -0.00000

 Dipole moment (field-independent basis, Debye):
    X=             -6.1916    Y=              3.7820    Z=              1.1502  Tot=              7.3458
 Quadrupole moment (field-independent basis, Debye-Ang):
   XX=           -386.5464   YY=           -436.7143   ZZ=           -398.5488
   XY=             43.7200   XZ=             10.0533   YZ=             -0.3550

 Normal termination of Gaussian 16 at Wed May  4 19:50:57 2022.
