 Gaussian 16, Revision A.03,
 Gaussian 16:  ES64L-G16RevA.03 25-Dec-2016

 --------------------------------
 #p wB97XD/Def2SVP td=(nstates=5)
 --------------------------------

 ----------------------------------------------------
 step_401_chromophore_21 TDDFT with wB97XD functional
 ----------------------------------------------------
 Symbolic Z-matrix:
 Charge =  0 Multiplicity = 1

                         Standard orientation:
 ---------------------------------------------------------------------
 Center     Atomic      Atomic             Coordinates (Angstroms)
 Number     Number       Type             X           Y           Z
 ---------------------------------------------------------------------
      1         12           0        4.844160    1.119003    0.011427
      2          6           0        4.678036   -2.380769    0.464583
      3          6           0        1.534880    1.138753   -0.525643
      4          6           0        5.154322    4.264824   -0.265906
      5          6           0        8.440013    0.704798    0.315655
      6          7           0        3.377330   -0.426639   -0.271676
      7          6           0        3.487469   -1.720279    0.207865
      8          6           0        2.105233   -2.373602    0.346559
      9          6           0        1.156905   -1.372489   -0.406704
     10          6           0        2.052105   -0.133478   -0.335642
     11          6           0        0.801228   -1.762391   -1.817492
     12          6           0        1.790179   -2.599591    1.770284
     13          6           0        0.499544   -3.459770    2.097672
     14          6           0       -0.391570   -3.833728    0.847861
     15          8           0       -0.036774   -4.723319    0.066122
     16          8           0       -1.503626   -3.053380    0.671982
     17          7           0        3.470067    2.607747   -0.363603
     18          6           0        2.167003    2.370660   -0.494833
     19          6           0        1.524775    3.661789   -0.709892
     20          6           0        2.603000    4.652561   -0.664327
     21          6           0        3.798017    3.840782   -0.399755
     22          6           0        0.091497    3.961315   -0.892286
     23          6           0        2.570175    6.174683   -0.812126
     24          8           0        3.543407    6.905149   -0.679546
     25          6           0        1.229878    6.931906   -1.000494
     26          7           0        6.536833    2.249155   -0.000965
     27          6           0        6.404790    3.596926   -0.118838
     28          6           0        7.648147    4.369155    0.137547
     29          6           0        8.732004    3.266521    0.144492
     30          6           0        7.867147    1.968165    0.132830
     31          6           0        7.894727    5.494603   -0.948502
     32          6           0        9.658404    3.343906    1.336069
     33          6           0       11.224898    3.153193    1.127660
     34          7           0        6.326129   -0.504353    0.397602
     35          6           0        7.754160   -0.534906    0.441118
     36          6           0        8.231982   -1.816917    0.711796
     37          6           0        6.986137   -2.625719    0.724165
     38          6           0        5.926366   -1.764837    0.533806
     39          6           0        9.703195   -2.122629    0.843311
     40          6           0        6.501534   -3.984855    0.780077
     41          8           0        7.072741   -5.092563    0.914772
     42          6           0        4.914535   -3.881044    0.734090
     43          6           0        4.467072   -4.818115   -0.398217
     44          8           0        4.300258   -4.544357   -1.558284
     45          8           0        4.250130   -6.019129    0.153104
     46          6           0        3.272416   -6.847410   -0.547337
     47          6           0       -2.353878   -3.476276   -0.418000
     48          6           0       -3.321886   -2.376518   -0.582367
     49          6           0       -3.943366   -2.006889   -1.740371
     50          6           0       -3.789200   -2.666659   -3.137115
     51          6           0       -4.989812   -0.933512   -1.589663
     52          6           0       -6.370000   -1.615222   -1.286336
     53          6           0       -6.815986   -1.303748    0.130911
     54          6           0       -7.947857   -0.220639    0.289170
     55          6           0       -7.867921    0.726017    1.577483
     56          6           0       -9.371792   -0.909924    0.286400
     57          6           0      -10.077964   -0.895620   -1.056727
     58          6           0      -10.949811    0.342398   -1.298698
     59          6           0      -12.447443    0.202712   -1.073915
     60          6           0      -13.123013   -0.878634   -1.960811
     61          6           0      -13.161581    1.570587   -1.115850
     62          6           0      -14.194302    1.764961    0.005857
     63          6           0      -13.539195    2.569517    1.192897
     64          6           0      -13.508914    1.909387    2.543743
     65          6           0      -13.915857    2.929205    3.674317
     66          6           0      -12.021699    1.321537    2.726700
     67          1           0        0.479087    1.268023   -0.772381
     68          1           0        5.268014    5.348424   -0.334854
     69          1           0        9.530434    0.708383    0.375434
     70          1           0        2.017179   -3.322097   -0.182626
     71          1           0        0.215506   -1.100028    0.070493
     72          1           0       -0.202578   -1.370748   -1.981363
     73          1           0        0.879785   -2.809123   -2.109816
     74          1           0        1.518298   -1.326182   -2.512576
     75          1           0        1.611577   -1.689334    2.342666
     76          1           0        2.505636   -3.224807    2.302958
     77          1           0       -0.114802   -2.891000    2.796652
     78          1           0        0.826354   -4.346325    2.640587
     79          1           0       -0.340734    4.482149   -0.038031
     80          1           0       -0.456564    3.024544   -0.991842
     81          1           0       -0.064384    4.480087   -1.838921
     82          1           0        0.659243    6.744763   -0.091088
     83          1           0        0.678948    6.593748   -1.877975
     84          1           0        1.504603    7.981842   -1.106430
     85          1           0        7.450086    4.817955    1.111223
     86          1           0        9.222003    3.278982   -0.829055
     87          1           0        7.311441    5.207979   -1.823255
     88          1           0        8.956084    5.662971   -1.130707
     89          1           0        7.512138    6.394962   -0.467380
     90          1           0        9.399117    2.476298    1.942526
     91          1           0        9.559769    4.322151    1.808271
     92          1           0       11.829684    4.044749    1.294447
     93          1           0       11.431845    2.913462    0.084149
     94          1           0       11.623095    2.369816    1.772698
     95          1           0       10.441008   -1.410141    0.475375
     96          1           0        9.775396   -3.082558    0.331463
     97          1           0        9.893315   -2.230025    1.911336
     98          1           0        4.560205   -4.315711    1.668178
     99          1           0        3.382328   -6.740972   -1.626707
    100          1           0        2.270983   -6.528949   -0.257388
    101          1           0        3.486054   -7.876553   -0.259760
    102          1           0       -2.823838   -4.424920   -0.158776
    103          1           0       -1.884676   -3.587814   -1.395516
    104          1           0       -3.626873   -1.936897    0.367634
    105          1           0       -3.058772   -2.046849   -3.657862
    106          1           0       -4.740516   -2.657811   -3.668210
    107          1           0       -3.347303   -3.659582   -3.057797
    108          1           0       -5.209812   -0.675704   -2.625786
    109          1           0       -4.712092    0.027520   -1.157011
    110          1           0       -6.249052   -2.688633   -1.435925
    111          1           0       -7.151133   -1.336443   -1.993434
    112          1           0       -6.008670   -0.929700    0.759862
    113          1           0       -7.177238   -2.164451    0.694131
    114          1           0       -7.943398    0.354377   -0.637522
    115          1           0       -7.656905    1.757055    1.293241
    116          1           0       -7.060039    0.444594    2.252231
    117          1           0       -8.755717    0.652748    2.205688
    118          1           0      -10.015750   -0.462397    1.043296
    119          1           0       -9.262456   -1.967731    0.522474
    120          1           0      -10.757533   -1.745005   -0.988146
    121          1           0       -9.498798   -1.031346   -1.970676
    122          1           0      -10.756985    0.800903   -2.268304
    123          1           0      -10.605633    1.113858   -0.608890
    124          1           0      -12.493549   -0.072090   -0.020233
    125          1           0      -12.423144   -1.000227   -2.786776
    126          1           0      -14.135622   -0.518713   -2.146710
    127          1           0      -13.172632   -1.775999   -1.343998
    128          1           0      -13.711006    1.635290   -2.054199
    129          1           0      -12.463763    2.408186   -1.121454
    130          1           0      -14.551633    0.792038    0.344738
    131          1           0      -15.099982    2.299887   -0.277866
    132          1           0      -14.112269    3.486164    1.335863
    133          1           0      -12.567526    2.955100    0.881403
    134          1           0      -14.293930    1.152799    2.566545
    135          1           0      -14.935400    2.706365    3.987760
    136          1           0      -13.794735    3.959448    3.340756
    137          1           0      -13.258189    2.759013    4.526339
    138          1           0      -11.228322    1.755966    2.118720
    139          1           0      -12.133536    0.260021    2.507152
    140          1           0      -11.665612    1.327457    3.756694
 ---------------------------------------------------------------------

 SCF Done:  E(RwB97XD) =  -3007.87739430     A.U. after   19 cycles

 Excitation energies and oscillator strengths:

 Excited State   1:      Singlet-A      1.6419 eV  755.12 nm  f=0.4139  <S**2>=0.000
     245 -> 248       -0.16575
     246 -> 247        0.68824
     245 <- 248       -0.11151
 This state for optimization and/or second-order correction.
 Total Energy, E(TD-HF/TD-DFT) =  -3007.81705509
 Copying the excited state density for this state as the 1-particle RhoCI density.

 Excited State   2:      Singlet-A      2.0973 eV  591.17 nm  f=0.1760  <S**2>=0.000
     244 -> 247        0.10039
     245 -> 247        0.65932
     246 -> 248        0.22417

 Excited State   3:      Singlet-A      2.9357 eV  422.33 nm  f=0.0198  <S**2>=0.000
     244 -> 247        0.67777

 Excited State   4:      Singlet-A      3.2581 eV  380.55 nm  f=0.0006  <S**2>=0.000
     243 -> 247        0.59895
     243 -> 249       -0.24476
     243 -> 250        0.23898

 Excited State   5:      Singlet-A      3.4787 eV  356.41 nm  f=0.0057  <S**2>=0.000
     239 -> 247        0.15354
     241 -> 247        0.65572
     246 -> 248       -0.13104

 The electronic state is 1-A.
 Alpha  occ. eigenvalues --  -46.94876 -19.31939 -19.28298 -19.25759 -19.24311
 Alpha  occ. eigenvalues --  -19.23455 -19.22294 -14.47119 -14.46726 -14.44079
 Alpha  occ. eigenvalues --  -14.42245 -10.44501 -10.41685 -10.39681 -10.37775
 Alpha  occ. eigenvalues --  -10.36043 -10.35215 -10.35116 -10.34734 -10.34421
 Alpha  occ. eigenvalues --  -10.34408 -10.34325 -10.33827 -10.33574 -10.32352
 Alpha  occ. eigenvalues --  -10.32289 -10.32207 -10.31935 -10.31714 -10.31551
 Alpha  occ. eigenvalues --  -10.31513 -10.31506 -10.31480 -10.31413 -10.31393
 Alpha  occ. eigenvalues --  -10.31390 -10.31326 -10.31274 -10.31207 -10.30978
 Alpha  occ. eigenvalues --  -10.30657 -10.30500 -10.30327 -10.30315 -10.30299
 Alpha  occ. eigenvalues --  -10.30196 -10.30140 -10.30130 -10.30002 -10.29790
 Alpha  occ. eigenvalues --  -10.29637 -10.29448 -10.29180 -10.29158 -10.29124
 Alpha  occ. eigenvalues --  -10.29071 -10.28837 -10.28825 -10.28770 -10.28667
 Alpha  occ. eigenvalues --  -10.28664 -10.28622 -10.28367 -10.28341 -10.28184
 Alpha  occ. eigenvalues --  -10.28152  -3.20899  -1.94501  -1.94040  -1.93869
 Alpha  occ. eigenvalues --   -1.19791  -1.18191  -1.12568  -1.10770  -1.09385
 Alpha  occ. eigenvalues --   -1.08693  -1.08577  -1.06085  -1.05948  -1.03795
 Alpha  occ. eigenvalues --   -0.93631  -0.93085  -0.92063  -0.91915  -0.91296
 Alpha  occ. eigenvalues --   -0.90921  -0.90414  -0.89516  -0.89338  -0.89221
 Alpha  occ. eigenvalues --   -0.87861  -0.87468  -0.86723  -0.85255  -0.84674
 Alpha  occ. eigenvalues --   -0.84353  -0.83378  -0.83105  -0.82491  -0.82295
 Alpha  occ. eigenvalues --   -0.81727  -0.80608  -0.80057  -0.79020  -0.78420
 Alpha  occ. eigenvalues --   -0.77674  -0.77384  -0.76948  -0.76937  -0.76015
 Alpha  occ. eigenvalues --   -0.75559  -0.74776  -0.73797  -0.72533  -0.71352
 Alpha  occ. eigenvalues --   -0.71116  -0.70093  -0.69374  -0.69310  -0.67653
 Alpha  occ. eigenvalues --   -0.67330  -0.67212  -0.66768  -0.66626  -0.66112
 Alpha  occ. eigenvalues --   -0.65892  -0.65432  -0.63542  -0.63394  -0.62778
 Alpha  occ. eigenvalues --   -0.62693  -0.61650  -0.60708  -0.60030  -0.59552
 Alpha  occ. eigenvalues --   -0.59025  -0.58564  -0.58471  -0.58224  -0.57880
 Alpha  occ. eigenvalues --   -0.57247  -0.56920  -0.56607  -0.56229  -0.55813
 Alpha  occ. eigenvalues --   -0.55721  -0.55347  -0.55273  -0.55209  -0.54854
 Alpha  occ. eigenvalues --   -0.54702  -0.54335  -0.54188  -0.53828  -0.53514
 Alpha  occ. eigenvalues --   -0.53303  -0.53214  -0.52694  -0.52614  -0.52404
 Alpha  occ. eigenvalues --   -0.52338  -0.52023  -0.51816  -0.51663  -0.51512
 Alpha  occ. eigenvalues --   -0.51336  -0.51144  -0.50987  -0.50880  -0.50686
 Alpha  occ. eigenvalues --   -0.50674  -0.50403  -0.50302  -0.50066  -0.49718
 Alpha  occ. eigenvalues --   -0.49671  -0.49604  -0.49192  -0.49064  -0.48793
 Alpha  occ. eigenvalues --   -0.48738  -0.48377  -0.48129  -0.47940  -0.47812
 Alpha  occ. eigenvalues --   -0.47472  -0.47366  -0.47194  -0.47108  -0.46939
 Alpha  occ. eigenvalues --   -0.46836  -0.46342  -0.46187  -0.46132  -0.46054
 Alpha  occ. eigenvalues --   -0.45798  -0.45765  -0.45370  -0.45353  -0.45240
 Alpha  occ. eigenvalues --   -0.45076  -0.44806  -0.44651  -0.44397  -0.44272
 Alpha  occ. eigenvalues --   -0.44211  -0.43790  -0.43352  -0.43259  -0.43212
 Alpha  occ. eigenvalues --   -0.42957  -0.42521  -0.42187  -0.41985  -0.41919
 Alpha  occ. eigenvalues --   -0.41725  -0.41483  -0.41430  -0.40983  -0.40928
 Alpha  occ. eigenvalues --   -0.40404  -0.40139  -0.40032  -0.39789  -0.39349
 Alpha  occ. eigenvalues --   -0.39072  -0.38882  -0.38681  -0.38502  -0.38290
 Alpha  occ. eigenvalues --   -0.37296  -0.37074  -0.37049  -0.36583  -0.36394
 Alpha  occ. eigenvalues --   -0.36009  -0.35850  -0.34892  -0.33288  -0.33113
 Alpha  occ. eigenvalues --   -0.32637  -0.32179  -0.31169  -0.30100  -0.25890
 Alpha  occ. eigenvalues --   -0.23372
 Alpha virt. eigenvalues --   -0.07682   0.01000   0.02472   0.04745   0.05538
 Alpha virt. eigenvalues --    0.06266   0.07056   0.07741   0.08983   0.09572
 Alpha virt. eigenvalues --    0.10616   0.11228   0.11644   0.11921   0.12323

 Mulliken charges:
               1
     1  Mg   0.962782
     2  C    0.005086
     3  C   -0.096999
     4  C   -0.073513
     5  C   -0.086525
     6  N   -0.369749
     7  C    0.038732
     8  C   -0.080961
     9  C   -0.117884
    10  C    0.091775
    11  C    0.036247
    12  C    0.032867
    13  C    0.028763
    14  C    0.195195
    15  O   -0.280866
    16  O   -0.347254
    17  N   -0.402095
    18  C    0.147156
    19  C   -0.181422
    20  C   -0.070250
    21  C    0.113734
    22  C    0.076906
    23  C    0.042280
    24  O   -0.232113
    25  C   -0.017124
    26  N   -0.388809
    27  C    0.074966
    28  C   -0.146154
    29  C   -0.010577
    30  C    0.035032
    31  C    0.020772
    32  C   -0.017007
    33  C   -0.073775
    34  N   -0.399861
    35  C    0.125995
    36  C   -0.154216
    37  C   -0.060630
    38  C    0.158411
    39  C    0.077616
    40  C    0.095896
    41  O   -0.240984
    42  C   -0.126187
    43  C    0.253688
    44  O   -0.231551
    45  O   -0.345243
    46  C    0.122517
    47  C    0.264784
    48  C   -0.159523
    49  C   -0.233850
    50  C    0.036627
    51  C    0.034097
    52  C   -0.000458
    53  C    0.034587
    54  C   -0.206525
    55  C   -0.002891
    56  C    0.036300
    57  C   -0.019106
    58  C   -0.029195
    59  C   -0.185566
    60  C    0.039249
    61  C    0.011458
    62  C   -0.021078
    63  C    0.003748
    64  C   -0.214526
    65  C   -0.001557
    66  C   -0.034427
    67  H   -0.014439
    68  H    0.009367
    69  H   -0.014088
    70  H    0.046486
    71  H    0.028623
    72  H    0.037325
    73  H    0.058630
    74  H    0.039441
    75  H    0.030931
    76  H    0.038239
    77  H    0.040664
    78  H    0.057468
    79  H    0.064183
    80  H    0.021674
    81  H    0.055389
    82  H    0.054361
    83  H    0.047270
    84  H    0.058741
    85  H    0.054587
    86  H    0.034868
    87  H    0.056655
    88  H    0.042956
    89  H    0.052818
    90  H    0.047335
    91  H    0.044084
    92  H    0.036338
    93  H    0.027672
    94  H    0.042140
    95  H    0.039768
    96  H    0.067702
    97  H    0.053467
    98  H    0.077405
    99  H    0.060633
   100  H    0.061494
   101  H    0.055095
   102  H    0.053321
   103  H    0.045010
   104  H    0.031507
   105  H    0.056935
   106  H    0.050136
   107  H    0.045527
   108  H   -0.002950
   109  H    0.047421
   110  H    0.026769
   111  H    0.022183
   112  H    0.007252
   113  H    0.011090
   114  H    0.017507
   115  H    0.037351
   116  H    0.018602
   117  H    0.033932
   118  H    0.005167
   119  H    0.010644
   120  H    0.005040
   121  H    0.020933
   122  H    0.007479
   123  H    0.000263
   124  H   -0.004002
   125  H    0.037950
   126  H    0.034042
   127  H    0.033397
   128  H    0.005214
   129  H    0.013978
   130  H    0.014932
   131  H    0.020787
   132  H    0.006792
   133  H    0.010828
   134  H    0.026610
   135  H    0.034170
   136  H    0.033318
   137  H    0.019012
   138  H    0.043381
   139  H    0.044666
   140  H    0.021709
 Sum of Mulliken charges =  -0.00000

 Dipole moment (field-independent basis, Debye):
    X=             -6.7562    Y=              4.3092    Z=              1.0418  Tot=              8.0809
 Quadrupole moment (field-independent basis, Debye-Ang):
   XX=           -392.0665   YY=           -434.4508   ZZ=           -398.0632
   XY=             45.0045   XZ=              9.6660   YZ=             -0.7575

 Normal termination of Gaussian 16 at Wed May  4 20:30:19 2022.
