 Gaussian 16, Revision A.03,
 Gaussian 16:  ES64L-G16RevA.03 25-Dec-2016

 --------------------
 #p ZINDO=(nstates=5)
 --------------------

 -----------------------------
 step_401_chromophore_21 ZINDO
 -----------------------------
 Symbolic Z-matrix:
 Charge =  0 Multiplicity = 1

                         Standard orientation:
 ---------------------------------------------------------------------
 Center     Atomic      Atomic             Coordinates (Angstroms)
 Number     Number       Type             X           Y           Z
 ---------------------------------------------------------------------
      1         12           0        4.844160    1.119003    0.011427
      2          6           0        4.678036   -2.380769    0.464583
      3          6           0        1.534880    1.138753   -0.525643
      4          6           0        5.154322    4.264824   -0.265906
      5          6           0        8.440013    0.704798    0.315655
      6          7           0        3.377330   -0.426639   -0.271676
      7          6           0        3.487469   -1.720279    0.207865
      8          6           0        2.105233   -2.373602    0.346559
      9          6           0        1.156905   -1.372489   -0.406704
     10          6           0        2.052105   -0.133478   -0.335642
     11          6           0        0.801228   -1.762391   -1.817492
     12          6           0        1.790179   -2.599591    1.770284
     13          6           0        0.499544   -3.459770    2.097672
     14          6           0       -0.391570   -3.833728    0.847861
     15          8           0       -0.036774   -4.723319    0.066122
     16          8           0       -1.503626   -3.053380    0.671982
     17          7           0        3.470067    2.607747   -0.363603
     18          6           0        2.167003    2.370660   -0.494833
     19          6           0        1.524775    3.661789   -0.709892
     20          6           0        2.603000    4.652561   -0.664327
     21          6           0        3.798017    3.840782   -0.399755
     22          6           0        0.091497    3.961315   -0.892286
     23          6           0        2.570175    6.174683   -0.812126
     24          8           0        3.543407    6.905149   -0.679546
     25          6           0        1.229878    6.931906   -1.000494
     26          7           0        6.536833    2.249155   -0.000965
     27          6           0        6.404790    3.596926   -0.118838
     28          6           0        7.648147    4.369155    0.137547
     29          6           0        8.732004    3.266521    0.144492
     30          6           0        7.867147    1.968165    0.132830
     31          6           0        7.894727    5.494603   -0.948502
     32          6           0        9.658404    3.343906    1.336069
     33          6           0       11.224898    3.153193    1.127660
     34          7           0        6.326129   -0.504353    0.397602
     35          6           0        7.754160   -0.534906    0.441118
     36          6           0        8.231982   -1.816917    0.711796
     37          6           0        6.986137   -2.625719    0.724165
     38          6           0        5.926366   -1.764837    0.533806
     39          6           0        9.703195   -2.122629    0.843311
     40          6           0        6.501534   -3.984855    0.780077
     41          8           0        7.072741   -5.092563    0.914772
     42          6           0        4.914535   -3.881044    0.734090
     43          6           0        4.467072   -4.818115   -0.398217
     44          8           0        4.300258   -4.544357   -1.558284
     45          8           0        4.250130   -6.019129    0.153104
     46          6           0        3.272416   -6.847410   -0.547337
     47          6           0       -2.353878   -3.476276   -0.418000
     48          6           0       -3.321886   -2.376518   -0.582367
     49          6           0       -3.943366   -2.006889   -1.740371
     50          6           0       -3.789200   -2.666659   -3.137115
     51          6           0       -4.989812   -0.933512   -1.589663
     52          6           0       -6.370000   -1.615222   -1.286336
     53          6           0       -6.815986   -1.303748    0.130911
     54          6           0       -7.947857   -0.220639    0.289170
     55          6           0       -7.867921    0.726017    1.577483
     56          6           0       -9.371792   -0.909924    0.286400
     57          6           0      -10.077964   -0.895620   -1.056727
     58          6           0      -10.949811    0.342398   -1.298698
     59          6           0      -12.447443    0.202712   -1.073915
     60          6           0      -13.123013   -0.878634   -1.960811
     61          6           0      -13.161581    1.570587   -1.115850
     62          6           0      -14.194302    1.764961    0.005857
     63          6           0      -13.539195    2.569517    1.192897
     64          6           0      -13.508914    1.909387    2.543743
     65          6           0      -13.915857    2.929205    3.674317
     66          6           0      -12.021699    1.321537    2.726700
     67          1           0        0.479087    1.268023   -0.772381
     68          1           0        5.268014    5.348424   -0.334854
     69          1           0        9.530434    0.708383    0.375434
     70          1           0        2.017179   -3.322097   -0.182626
     71          1           0        0.215506   -1.100028    0.070493
     72          1           0       -0.202578   -1.370748   -1.981363
     73          1           0        0.879785   -2.809123   -2.109816
     74          1           0        1.518298   -1.326182   -2.512576
     75          1           0        1.611577   -1.689334    2.342666
     76          1           0        2.505636   -3.224807    2.302958
     77          1           0       -0.114802   -2.891000    2.796652
     78          1           0        0.826354   -4.346325    2.640587
     79          1           0       -0.340734    4.482149   -0.038031
     80          1           0       -0.456564    3.024544   -0.991842
     81          1           0       -0.064384    4.480087   -1.838921
     82          1           0        0.659243    6.744763   -0.091088
     83          1           0        0.678948    6.593748   -1.877975
     84          1           0        1.504603    7.981842   -1.106430
     85          1           0        7.450086    4.817955    1.111223
     86          1           0        9.222003    3.278982   -0.829055
     87          1           0        7.311441    5.207979   -1.823255
     88          1           0        8.956084    5.662971   -1.130707
     89          1           0        7.512138    6.394962   -0.467380
     90          1           0        9.399117    2.476298    1.942526
     91          1           0        9.559769    4.322151    1.808271
     92          1           0       11.829684    4.044749    1.294447
     93          1           0       11.431845    2.913462    0.084149
     94          1           0       11.623095    2.369816    1.772698
     95          1           0       10.441008   -1.410141    0.475375
     96          1           0        9.775396   -3.082558    0.331463
     97          1           0        9.893315   -2.230025    1.911336
     98          1           0        4.560205   -4.315711    1.668178
     99          1           0        3.382328   -6.740972   -1.626707
    100          1           0        2.270983   -6.528949   -0.257388
    101          1           0        3.486054   -7.876553   -0.259760
    102          1           0       -2.823838   -4.424920   -0.158776
    103          1           0       -1.884676   -3.587814   -1.395516
    104          1           0       -3.626873   -1.936897    0.367634
    105          1           0       -3.058772   -2.046849   -3.657862
    106          1           0       -4.740516   -2.657811   -3.668210
    107          1           0       -3.347303   -3.659582   -3.057797
    108          1           0       -5.209812   -0.675704   -2.625786
    109          1           0       -4.712092    0.027520   -1.157011
    110          1           0       -6.249052   -2.688633   -1.435925
    111          1           0       -7.151133   -1.336443   -1.993434
    112          1           0       -6.008670   -0.929700    0.759862
    113          1           0       -7.177238   -2.164451    0.694131
    114          1           0       -7.943398    0.354377   -0.637522
    115          1           0       -7.656905    1.757055    1.293241
    116          1           0       -7.060039    0.444594    2.252231
    117          1           0       -8.755717    0.652748    2.205688
    118          1           0      -10.015750   -0.462397    1.043296
    119          1           0       -9.262456   -1.967731    0.522474
    120          1           0      -10.757533   -1.745005   -0.988146
    121          1           0       -9.498798   -1.031346   -1.970676
    122          1           0      -10.756985    0.800903   -2.268304
    123          1           0      -10.605633    1.113858   -0.608890
    124          1           0      -12.493549   -0.072090   -0.020233
    125          1           0      -12.423144   -1.000227   -2.786776
    126          1           0      -14.135622   -0.518713   -2.146710
    127          1           0      -13.172632   -1.775999   -1.343998
    128          1           0      -13.711006    1.635290   -2.054199
    129          1           0      -12.463763    2.408186   -1.121454
    130          1           0      -14.551633    0.792038    0.344738
    131          1           0      -15.099982    2.299887   -0.277866
    132          1           0      -14.112269    3.486164    1.335863
    133          1           0      -12.567526    2.955100    0.881403
    134          1           0      -14.293930    1.152799    2.566545
    135          1           0      -14.935400    2.706365    3.987760
    136          1           0      -13.794735    3.959448    3.340756
    137          1           0      -13.258189    2.759013    4.526339
    138          1           0      -11.228322    1.755966    2.118720
    139          1           0      -12.133536    0.260021    2.507152
    140          1           0      -11.665612    1.327457    3.756694
 ---------------------------------------------------------------------

 SCF Done:  E(RZINDO/S) =  -474.474709725     A.U. after   19 cycles

 Excitation energies and oscillator strengths:

 Excited State   1:      Singlet-A      1.2519 eV  990.39 nm  f=0.6188  <S**2>=0.000
     175 ->178        -0.16730
     176 ->177         0.66988
 This state for optimization and/or second-order correction.
 Total Energy, E(CIS/TDA) =  -474.428704058
 Copying the excited state density for this state as the 1-particle RhoCI density.

 Excited State   2:      Singlet-A      1.8957 eV  654.02 nm  f=0.1531  <S**2>=0.000
     175 ->177         0.60256
     176 ->178         0.32963

 Excited State   3:      Singlet-A      2.9235 eV  424.10 nm  f=0.0025  <S**2>=0.000
     167 ->179        -0.13227
     168 ->177         0.21512
     168 ->179        -0.25895
     168 ->181         0.11897
     168 ->186        -0.11787
     170 ->177         0.11176
     172 ->177         0.16929
     174 ->177         0.47606

 Excited State   4:      Singlet-A      2.9372 eV  422.11 nm  f=0.0042  <S**2>=0.000
     167 ->177        -0.11541
     167 ->179         0.14816
     168 ->177        -0.22692
     168 ->179         0.30884
     168 ->181        -0.13804
     168 ->186         0.13886
     172 ->177         0.13878
     174 ->177         0.41203

 Excited State   5:      Singlet-A      3.0111 eV  411.76 nm  f=0.0264  <S**2>=0.000
     171 ->177         0.33273
     171 ->178        -0.13851
     171 ->179         0.25121
     171 ->180         0.11066
     171 ->181         0.37169
     171 ->186         0.14000
     171 ->187        -0.12105
     171 ->188        -0.12342
     171 ->189         0.13076
     176 ->178        -0.12114

 The electronic state is 1-A.
 Alpha  occ. eigenvalues --   -1.86105  -1.83292  -1.82133  -1.74915  -1.73238
 Alpha  occ. eigenvalues --   -1.71678  -1.66972  -1.61159  -1.59285  -1.55826
 Alpha  occ. eigenvalues --   -1.55478  -1.52002  -1.49452  -1.47088  -1.46888
 Alpha  occ. eigenvalues --   -1.43656  -1.43013  -1.41136  -1.40151  -1.38369
 Alpha  occ. eigenvalues --   -1.36722  -1.34029  -1.32263  -1.31718  -1.27633
 Alpha  occ. eigenvalues --   -1.26618  -1.24719  -1.22231  -1.21098  -1.18375
 Alpha  occ. eigenvalues --   -1.17210  -1.16559  -1.15152  -1.14995  -1.13134
 Alpha  occ. eigenvalues --   -1.12796  -1.11673  -1.10331  -1.05214  -1.03884
 Alpha  occ. eigenvalues --   -1.02402  -1.01196  -0.99618  -0.98291  -0.97619
 Alpha  occ. eigenvalues --   -0.96031  -0.95078  -0.93773  -0.92878  -0.92848
 Alpha  occ. eigenvalues --   -0.91156  -0.90958  -0.89375  -0.87784  -0.86675
 Alpha  occ. eigenvalues --   -0.85727  -0.85544  -0.83775  -0.82936  -0.80158
 Alpha  occ. eigenvalues --   -0.79706  -0.78954  -0.77662  -0.76099  -0.75600
 Alpha  occ. eigenvalues --   -0.75348  -0.74475  -0.73919  -0.73784  -0.73174
 Alpha  occ. eigenvalues --   -0.72794  -0.72123  -0.71570  -0.71239  -0.70743
 Alpha  occ. eigenvalues --   -0.69695  -0.69465  -0.68772  -0.68325  -0.67801
 Alpha  occ. eigenvalues --   -0.67591  -0.66632  -0.66526  -0.66319  -0.65623
 Alpha  occ. eigenvalues --   -0.64937  -0.64556  -0.64223  -0.63961  -0.63262
 Alpha  occ. eigenvalues --   -0.62913  -0.62383  -0.62316  -0.61948  -0.61888
 Alpha  occ. eigenvalues --   -0.61755  -0.61637  -0.61070  -0.60911  -0.60775
 Alpha  occ. eigenvalues --   -0.60551  -0.59922  -0.59475  -0.59191  -0.59054
 Alpha  occ. eigenvalues --   -0.58481  -0.58202  -0.57739  -0.57268  -0.56974
 Alpha  occ. eigenvalues --   -0.56711  -0.56005  -0.55811  -0.55214  -0.54776
 Alpha  occ. eigenvalues --   -0.54610  -0.54000  -0.53435  -0.53149  -0.52768
 Alpha  occ. eigenvalues --   -0.52358  -0.52312  -0.52166  -0.51865  -0.51413
 Alpha  occ. eigenvalues --   -0.51234  -0.50955  -0.50730  -0.50379  -0.50109
 Alpha  occ. eigenvalues --   -0.49994  -0.49354  -0.49186  -0.49117  -0.49008
 Alpha  occ. eigenvalues --   -0.48799  -0.48645  -0.48229  -0.48170  -0.47701
 Alpha  occ. eigenvalues --   -0.47387  -0.47138  -0.46880  -0.46620  -0.46591
 Alpha  occ. eigenvalues --   -0.46064  -0.45999  -0.45956  -0.45391  -0.45104
 Alpha  occ. eigenvalues --   -0.45078  -0.44389  -0.44258  -0.43963  -0.43542
 Alpha  occ. eigenvalues --   -0.43267  -0.43127  -0.42710  -0.42514  -0.42151
 Alpha  occ. eigenvalues --   -0.42104  -0.41385  -0.40330  -0.39228  -0.39007
 Alpha  occ. eigenvalues --   -0.37139  -0.36629  -0.35803  -0.35084  -0.33618
 Alpha  occ. eigenvalues --   -0.33570  -0.32163  -0.32032  -0.30625  -0.26509
 Alpha  occ. eigenvalues --   -0.22191
 Alpha virt. eigenvalues --   -0.09084  -0.01374  -0.00605   0.01139   0.01468
 Alpha virt. eigenvalues --    0.02916   0.03344   0.03893   0.04106   0.04944
 Alpha virt. eigenvalues --    0.06387   0.06516   0.06863   0.07944   0.08221

 Mulliken charges:
               1
     1  Mg   0.427873
     2  C   -0.035854
     3  C   -0.088556
     4  C   -0.089290
     5  C   -0.053326
     6  N   -0.280816
     7  C    0.110144
     8  C    0.015691
     9  C    0.006386
    10  C    0.166653
    11  C   -0.045165
    12  C   -0.013045
    13  C   -0.007352
    14  C    0.460210
    15  O   -0.526145
    16  O   -0.258783
    17  N   -0.295231
    18  C    0.134242
    19  C    0.017379
    20  C   -0.062255
    21  C    0.164377
    22  C   -0.037137
    23  C    0.321840
    24  O   -0.514603
    25  C   -0.032341
    26  N   -0.259074
    27  C    0.166086
    28  C    0.002069
    29  C    0.005266
    30  C    0.089211
    31  C   -0.055472
    32  C   -0.033017
    33  C   -0.066660
    34  N   -0.363265
    35  C    0.065002
    36  C    0.017244
    37  C   -0.072875
    38  C    0.137766
    39  C   -0.037315
    40  C    0.319847
    41  O   -0.549297
    42  C    0.044453
    43  C    0.495798
    44  O   -0.524283
    45  O   -0.264736
    46  C    0.074201
    47  C    0.108590
    48  C   -0.104285
    49  C   -0.007125
    50  C   -0.038406
    51  C   -0.030577
    52  C   -0.016519
    53  C   -0.031397
    54  C   -0.022020
    55  C   -0.061235
    56  C   -0.034063
    57  C   -0.035948
    58  C   -0.033332
    59  C   -0.013784
    60  C   -0.060233
    61  C   -0.031779
    62  C   -0.038102
    63  C   -0.036897
    64  C   -0.012023
    65  C   -0.062152
    66  C   -0.063025
    67  H    0.022594
    68  H    0.035984
    69  H    0.025548
    70  H    0.049456
    71  H    0.026616
    72  H    0.016932
    73  H    0.037684
    74  H    0.021433
    75  H    0.023829
    76  H    0.026250
    77  H    0.023799
    78  H    0.043779
    79  H    0.038359
    80  H    0.016959
    81  H    0.035046
    82  H    0.037918
    83  H    0.033637
    84  H    0.041625
    85  H    0.042292
    86  H    0.035064
    87  H    0.035432
    88  H    0.024919
    89  H    0.023212
    90  H    0.030773
    91  H    0.023671
    92  H    0.018018
    93  H    0.016162
    94  H    0.022594
    95  H    0.030278
    96  H    0.035935
    97  H    0.030587
    98  H    0.060712
    99  H    0.050389
   100  H    0.042155
   101  H    0.033748
   102  H    0.049889
   103  H    0.052147
   104  H    0.030249
   105  H    0.030014
   106  H    0.034215
   107  H    0.028618
   108  H   -0.003171
   109  H    0.045231
   110  H    0.021833
   111  H    0.022167
   112  H    0.013548
   113  H    0.016267
   114  H    0.021273
   115  H    0.019898
   116  H    0.014105
   117  H    0.025430
   118  H    0.025118
   119  H    0.012249
   120  H    0.008495
   121  H    0.023360
   122  H    0.010747
   123  H    0.004925
   124  H    0.013772
   125  H    0.032727
   126  H    0.028759
   127  H    0.018970
   128  H    0.007454
   129  H    0.020012
   130  H    0.018437
   131  H    0.017286
   132  H    0.005183
   133  H    0.020526
   134  H    0.027469
   135  H    0.020395
   136  H    0.025258
   137  H    0.014618
   138  H    0.030483
   139  H    0.013135
   140  H    0.013985
 Sum of Mulliken charges =  -0.00000

 Dipole moment (field-independent basis, Debye):
    X=            -10.2738    Y=              7.2282    Z=              2.2999  Tot=             12.7706
 N-N= 4.376234314106D+03 E-N= 0.000000000000D+00  KE=-9.426916226581D+03
 Leave Link  601 at Wed May  4 20:44:29 2022, MaxMem=  6710886400 cpu:               4.0 elap:               0.2
 (Enter /sw/apps/gaussian-16.0/g16/l9999.exe)
 1\1\GINC-BP1-COMPUTE215\SP\RZINDO CIS\STO-3G\C55H74Mg1N4O6\OF15641\04-
 May-2022\0\\#p ZINDO=(nstates=5)\\step_401_chromophore_21 ZINDO\\0,1\M
 g,0,15.87,51.63,24.75\C,0,17.922,50.569,27.423\C,0,13.529,52.507,26.98
 4\C,0,14.199,52.626,22.243\C,0,18.464,50.282,22.594\N,0,15.646,51.318,
 26.865\C,0,16.69,51.112,27.75\C,0,16.28,51.491,29.18\C,0,14.724,51.68,
 29.07\C,0,14.642,51.914,27.56\C,0,13.9,50.506,29.53\C,0,17.035,52.677,
 29.628\C,0,16.902,53.085,31.154\C,0,15.836,52.26,31.978\O,0,16.08,51.1

 Normal termination of Gaussian 16 at Wed May  4 20:44:29 2022.
