 Gaussian 16, Revision A.03,
 Gaussian 16:  ES64L-G16RevA.03 25-Dec-2016

 ------------------------------
 #p blyp/Def2SVP td=(nstates=5)
 ------------------------------

 ---------------------------------------------------
 step_1001_chromophore_27 TDDFT with blyp functional
 ---------------------------------------------------
 Symbolic Z-matrix:
 Charge =  0 Multiplicity = 1

                         Standard orientation:
 ---------------------------------------------------------------------
 Center     Atomic      Atomic             Coordinates (Angstroms)
 Number     Number       Type             X           Y           Z
 ---------------------------------------------------------------------
      1         12           0       -4.476498    0.853779    0.200990
      2          6           0       -3.744751   -2.563637    0.263091
      3          6           0       -1.069139    1.488176    0.221784
      4          6           0       -5.155381    4.127061    0.149834
      5          6           0       -7.847825    0.146294    0.303885
      6          7           0       -2.642604   -0.421246    0.312419
      7          6           0       -2.612621   -1.754926    0.205140
      8          6           0       -1.248450   -2.268308   -0.210492
      9          6           0       -0.280940   -1.042871    0.050664
     10          6           0       -1.388959    0.095138    0.174696
     11          6           0        0.642313   -1.135123    1.274804
     12          6           0       -1.272603   -2.685445   -1.723862
     13          6           0       -0.517090   -4.038752   -1.925693
     14          6           0        1.030022   -3.908744   -2.309707
     15          8           0        1.434275   -4.065236   -3.453333
     16          8           0        1.791898   -3.651909   -1.219754
     17          7           0       -3.284184    2.525052    0.238379
     18          6           0       -1.915505    2.591943    0.244436
     19          6           0       -1.505411    3.968823    0.210015
     20          6           0       -2.633433    4.784812    0.181247
     21          6           0       -3.729685    3.802697    0.137327
     22          6           0       -0.028144    4.380177    0.187865
     23          6           0       -2.767899    6.305367    0.104564
     24          8           0       -3.860558    6.861120    0.027261
     25          6           0       -1.506697    7.072061    0.121852
     26          7           0       -6.256915    1.965323    0.318691
     27          6           0       -6.253955    3.286214    0.121935
     28          6           0       -7.722668    3.768518    0.242306
     29          6           0       -8.558851    2.479952    0.269972
     30          6           0       -7.462343    1.450341    0.156299
     31          6           0       -8.181643    4.698763    1.426736
     32          6           0       -9.625926    2.381584   -0.918043
     33          6           0      -11.097858    2.121549   -0.473597
     34          7           0       -5.569882   -0.884304    0.410327
     35          6           0       -6.944187   -0.970626    0.425361
     36          6           0       -7.252964   -2.408022    0.424656
     37          6           0       -6.100699   -3.065012    0.432366
     38          6           0       -5.069821   -2.112368    0.391247
     39          6           0       -8.643387   -2.963903    0.463516
     40          6           0       -5.416699   -4.355960    0.456152
     41          8           0       -5.988582   -5.400501    0.455876
     42          6           0       -3.834332   -4.066502    0.247129
     43          6           0       -3.229775   -4.875248    1.387292
     44          8           0       -3.345148   -4.629242    2.582113
     45          8           0       -2.511041   -5.923145    0.800938
     46          6           0       -1.652741   -6.636549    1.785875
     47          6           0        3.239052   -3.823016   -1.438537
     48          6           0        3.994511   -2.491883   -1.720594
     49          6           0        5.330117   -2.357737   -1.685011
     50          6           0        6.289666   -3.548628   -1.333982
     51          6           0        5.929770   -0.953773   -1.751445
     52          6           0        5.857866   -0.180810   -3.093801
     53          6           0        7.234303    0.380411   -3.579692
     54          6           0        7.309553    1.914670   -3.656504
     55          6           0        6.959754    2.370327   -5.074112
     56          6           0        8.719081    2.387906   -3.378501
     57          6           0        8.843490    2.685325   -1.851196
     58          6           0        9.983390    1.792210   -1.302978
     59          6           0        9.612795    1.334969    0.171569
     60          6           0        9.479345   -0.216097    0.127802
     61          6           0       10.680207    1.668878    1.217840
     62          6           0       10.102332    1.670790    2.647548
     63          6           0       10.366418    0.412615    3.491155
     64          6           0       10.506445    0.676020    5.003191
     65          6           0       11.775286   -0.002599    5.633784
     66          6           0        9.202328    0.326265    5.765555
     67          1           0        0.010341    1.595994    0.096501
     68          1           0       -5.467060    5.173766    0.163653
     69          1           0       -8.886949   -0.182126    0.229673
     70          1           0       -1.102784   -3.016471    0.567898
     71          1           0        0.373530   -0.814203   -0.790936
     72          1           0        1.559875   -0.700061    0.876858
     73          1           0        0.884644   -2.157026    1.565665
     74          1           0        0.369279   -0.549219    2.151909
     75          1           0       -0.756694   -1.886914   -2.257346
     76          1           0       -2.262497   -2.648251   -2.178247
     77          1           0       -1.071563   -4.554018   -2.710124
     78          1           0       -0.470986   -4.712578   -1.070574
     79          1           0        0.172682    5.052486   -0.646302
     80          1           0        0.690068    3.560952    0.221484
     81          1           0        0.177233    4.913381    1.116503
     82          1           0       -1.759120    8.126194    0.234805
     83          1           0       -0.984714    6.884228   -0.816490
     84          1           0       -0.847047    6.802212    0.946516
     85          1           0       -7.848942    4.296641   -0.702865
     86          1           0       -9.118747    2.290970    1.186168
     87          1           0       -8.350120    5.751218    1.198757
     88          1           0       -7.515331    4.760083    2.287072
     89          1           0       -9.097373    4.266443    1.832107
     90          1           0       -9.296549    1.580899   -1.580512
     91          1           0       -9.543189    3.169282   -1.667209
     92          1           0      -11.221180    2.396384    0.574351
     93          1           0      -11.426220    1.117008   -0.741231
     94          1           0      -11.801967    2.747769   -1.021953
     95          1           0       -9.145734   -2.690128    1.391540
     96          1           0       -8.451136   -4.023477    0.631012
     97          1           0       -9.106191   -2.695227   -0.486621
     98          1           0       -3.519422   -4.529203   -0.688367
     99          1           0       -1.940831   -6.782334    2.827517
    100          1           0       -0.923489   -5.849343    1.982133
    101          1           0       -0.982316   -7.425100    1.447146
    102          1           0        3.427870   -4.625790   -2.150388
    103          1           0        3.550960   -4.219852   -0.472245
    104          1           0        3.375035   -1.600274   -1.811917
    105          1           0        5.841298   -4.168608   -0.557428
    106          1           0        7.255048   -3.161713   -1.007393
    107          1           0        6.473755   -4.087734   -2.264057
    108          1           0        6.943442   -1.152175   -1.402066
    109          1           0        5.322024   -0.387890   -1.045478
    110          1           0        5.074077    0.574769   -3.033853
    111          1           0        5.642103   -0.965001   -3.819039
    112          1           0        7.559578    0.068451   -4.571929
    113          1           0        8.047937   -0.088533   -3.027152
    114          1           0        6.545785    2.401730   -3.049657
    115          1           0        6.484488    1.620809   -5.707145
    116          1           0        7.916724    2.657243   -5.508702
    117          1           0        6.298133    3.227315   -4.948833
    118          1           0        8.941051    3.277181   -3.968963
    119          1           0        9.440349    1.641630   -3.709430
    120          1           0        7.867870    2.605431   -1.371672
    121          1           0        9.091946    3.736728   -1.704379
    122          1           0       10.937884    2.310520   -1.391805
    123          1           0       10.147115    0.986565   -2.019426
    124          1           0        8.616812    1.640219    0.494100
    125          1           0        9.788580   -0.684469   -0.806893
    126          1           0        8.432587   -0.513121    0.186785
    127          1           0       10.135145   -0.791595    0.781551
    128          1           0       11.121646    2.623115    0.933071
    129          1           0       11.440321    0.888932    1.180950
    130          1           0        9.041886    1.923491    2.628270
    131          1           0       10.528569    2.536349    3.156630
    132          1           0       11.179523   -0.211918    3.120884
    133          1           0        9.474561   -0.188736    3.316110
    134          1           0       10.664547    1.745186    5.147437
    135          1           0       12.318926    0.660250    6.307532
    136          1           0       12.495827   -0.289703    4.868951
    137          1           0       11.415505   -0.855340    6.210565
    138          1           0        9.271924    0.753146    6.766031
    139          1           0        9.129179   -0.759453    5.831379
    140          1           0        8.352816    0.674924    5.177260
 ---------------------------------------------------------------------

 SCF Done:  E(RB-LYP) =  -3007.34685683     A.U. after   20 cycles

 Excitation energies and oscillator strengths:

 Excited State   1:      Singlet-A      1.8619 eV  665.91 nm  f=0.3062  <S**2>=0.000
     245 -> 248       -0.19096
     246 -> 247        0.68948
     246 <- 247       -0.14685
 This state for optimization and/or second-order correction.
 Total Energy, E(TD-HF/TD-DFT) =  -3007.27843415
 Copying the excited state density for this state as the 1-particle RhoCI density.

 Excited State   2:      Singlet-A      2.0971 eV  591.23 nm  f=0.0733  <S**2>=0.000
     245 -> 247        0.64060
     246 -> 248        0.26510

 Excited State   3:      Singlet-A      2.2058 eV  562.07 nm  f=0.0002  <S**2>=0.000
     244 -> 247        0.70305

 Excited State   4:      Singlet-A      2.2137 eV  560.08 nm  f=0.0010  <S**2>=0.000
     243 -> 247        0.69981

 Excited State   5:      Singlet-A      2.5852 eV  479.60 nm  f=0.0001  <S**2>=0.000
     242 -> 247        0.70555

 The electronic state is 1-A.
 Alpha  occ. eigenvalues --  -46.26480 -18.83418 -18.83113 -18.77552 -18.76936
 Alpha  occ. eigenvalues --  -18.76505 -18.75894 -14.03135 -14.02487 -14.01250
 Alpha  occ. eigenvalues --  -14.00425 -10.04480 -10.04470 -10.00163 -10.00017
 Alpha  occ. eigenvalues --   -9.98960  -9.97782  -9.96454  -9.96000  -9.95957
 Alpha  occ. eigenvalues --   -9.95509  -9.95330  -9.95211  -9.95128  -9.94404
 Alpha  occ. eigenvalues --   -9.94372  -9.94211  -9.93859  -9.93828  -9.93821
 Alpha  occ. eigenvalues --   -9.93610  -9.93359  -9.93308  -9.93284  -9.93208
 Alpha  occ. eigenvalues --   -9.93202  -9.93058  -9.92932  -9.92507  -9.92486
 Alpha  occ. eigenvalues --   -9.92477  -9.92349  -9.92341  -9.92287  -9.92223
 Alpha  occ. eigenvalues --   -9.92217  -9.92128  -9.92105  -9.91984  -9.91958
 Alpha  occ. eigenvalues --   -9.91874  -9.91724  -9.91697  -9.91423  -9.91417
 Alpha  occ. eigenvalues --   -9.91266  -9.91181  -9.91176  -9.91097  -9.91092
 Alpha  occ. eigenvalues --   -9.91006  -9.90960  -9.90852  -9.90601  -9.90350
 Alpha  occ. eigenvalues --   -9.89972  -2.91222  -1.71662  -1.71083  -1.70945
 Alpha  occ. eigenvalues --   -0.98728  -0.97183  -0.93575  -0.91535  -0.90281
 Alpha  occ. eigenvalues --   -0.90149  -0.87538  -0.86732  -0.86134  -0.85507
 Alpha  occ. eigenvalues --   -0.75280  -0.74023  -0.73153  -0.72576  -0.72336
 Alpha  occ. eigenvalues --   -0.72050  -0.71232  -0.70910  -0.70851  -0.70629
 Alpha  occ. eigenvalues --   -0.70102  -0.68914  -0.68084  -0.67118  -0.66864
 Alpha  occ. eigenvalues --   -0.66425  -0.66020  -0.65488  -0.64923  -0.64695
 Alpha  occ. eigenvalues --   -0.64189  -0.62616  -0.62296  -0.61652  -0.61098
 Alpha  occ. eigenvalues --   -0.60660  -0.60134  -0.59841  -0.59664  -0.58798
 Alpha  occ. eigenvalues --   -0.58584  -0.57564  -0.56541  -0.55832  -0.54605
 Alpha  occ. eigenvalues --   -0.53938  -0.53791  -0.52905  -0.52787  -0.51925
 Alpha  occ. eigenvalues --   -0.51902  -0.51638  -0.51058  -0.50417  -0.50285
 Alpha  occ. eigenvalues --   -0.49687  -0.49572  -0.49221  -0.48679  -0.46569
 Alpha  occ. eigenvalues --   -0.46512  -0.46079  -0.45525  -0.44881  -0.44206
 Alpha  occ. eigenvalues --   -0.44090  -0.43786  -0.43024  -0.42513  -0.42356
 Alpha  occ. eigenvalues --   -0.42093  -0.41364  -0.41259  -0.41102  -0.40815
 Alpha  occ. eigenvalues --   -0.40674  -0.40466  -0.40326  -0.40259  -0.40199
 Alpha  occ. eigenvalues --   -0.39993  -0.39688  -0.39534  -0.39292  -0.39179
 Alpha  occ. eigenvalues --   -0.39165  -0.38896  -0.38582  -0.38493  -0.38240
 Alpha  occ. eigenvalues --   -0.38098  -0.37813  -0.37710  -0.37682  -0.37517
 Alpha  occ. eigenvalues --   -0.37388  -0.37260  -0.37083  -0.36689  -0.36540
 Alpha  occ. eigenvalues --   -0.36422  -0.36279  -0.35950  -0.35855  -0.35746
 Alpha  occ. eigenvalues --   -0.35655  -0.35359  -0.35217  -0.35128  -0.34834
 Alpha  occ. eigenvalues --   -0.34645  -0.34524  -0.34123  -0.34058  -0.33886
 Alpha  occ. eigenvalues --   -0.33604  -0.33491  -0.33304  -0.33255  -0.33233
 Alpha  occ. eigenvalues --   -0.32964  -0.32935  -0.32885  -0.32683  -0.32502
 Alpha  occ. eigenvalues --   -0.32073  -0.31938  -0.31911  -0.31904  -0.31628
 Alpha  occ. eigenvalues --   -0.31473  -0.31382  -0.31289  -0.31176  -0.30938
 Alpha  occ. eigenvalues --   -0.30895  -0.30701  -0.30670  -0.30613  -0.30498
 Alpha  occ. eigenvalues --   -0.30150  -0.29906  -0.29829  -0.29236  -0.29209
 Alpha  occ. eigenvalues --   -0.28848  -0.28408  -0.28304  -0.28272  -0.27894
 Alpha  occ. eigenvalues --   -0.27435  -0.27351  -0.27298  -0.27048  -0.26471
 Alpha  occ. eigenvalues --   -0.26430  -0.26031  -0.25999  -0.25440  -0.25211
 Alpha  occ. eigenvalues --   -0.24978  -0.24862  -0.24319  -0.23760  -0.23154
 Alpha  occ. eigenvalues --   -0.22933  -0.22823  -0.22007  -0.21480  -0.21427
 Alpha  occ. eigenvalues --   -0.20837  -0.20611  -0.19164  -0.19117  -0.17183
 Alpha  occ. eigenvalues --   -0.15551
 Alpha virt. eigenvalues --   -0.11112  -0.06582  -0.05702  -0.04541  -0.03205
 Alpha virt. eigenvalues --   -0.03087  -0.02457  -0.01654  -0.01096   0.00332
 Alpha virt. eigenvalues --    0.01119   0.01608   0.01863   0.02369   0.02447

 Mulliken charges:
               1
     1  Mg   0.692614
     2  C    0.072881
     3  C   -0.076565
     4  C   -0.055042
     5  C   -0.097535
     6  N   -0.166974
     7  C   -0.150792
     8  C    0.069119
     9  C   -0.025470
    10  C   -0.040615
    11  C    0.134986
    12  C    0.132779
    13  C    0.149320
    14  C    0.052072
    15  O   -0.186346
    16  O   -0.263156
    17  N   -0.274211
    18  C    0.196989
    19  C   -0.148354
    20  C    0.024335
    21  C    0.077984
    22  C    0.181407
    23  C   -0.069032
    24  O   -0.155872
    25  C    0.144037
    26  N   -0.219550
    27  C    0.025878
    28  C    0.087825
    29  C   -0.036052
    30  C    0.108221
    31  C    0.121711
    32  C    0.082415
    33  C    0.065496
    34  N   -0.240611
    35  C    0.083026
    36  C   -0.266236
    37  C    0.178685
    38  C    0.004966
    39  C    0.190642
    40  C   -0.081179
    41  O   -0.089811
    42  C    0.037746
    43  C    0.125183
    44  O   -0.174374
    45  O   -0.281895
    46  C    0.242190
    47  C    0.284329
    48  C   -0.062423
    49  C   -0.204643
    50  C    0.130397
    51  C    0.123289
    52  C    0.132838
    53  C    0.096099
    54  C   -0.119158
    55  C    0.126988
    56  C    0.107891
    57  C    0.074772
    58  C    0.124238
    59  C   -0.072915
    60  C    0.067430
    61  C    0.130982
    62  C    0.065348
    63  C    0.104125
    64  C   -0.082511
    65  C    0.093259
    66  C    0.097849
    67  H   -0.075685
    68  H   -0.044091
    69  H   -0.058810
    70  H   -0.027926
    71  H   -0.021257
    72  H   -0.019161
    73  H   -0.002908
    74  H   -0.000271
    75  H   -0.018442
    76  H   -0.007340
    77  H   -0.012110
    78  H   -0.000901
    79  H   -0.000500
    80  H   -0.019967
    81  H   -0.003053
    82  H   -0.009415
    83  H    0.013237
    84  H    0.003160
    85  H   -0.029727
    86  H   -0.009449
    87  H   -0.006109
    88  H   -0.010015
    89  H   -0.017207
    90  H   -0.038064
    91  H   -0.032184
    92  H   -0.001935
    93  H    0.000456
    94  H   -0.017733
    95  H   -0.000555
    96  H   -0.004685
    97  H    0.014134
    98  H   -0.002408
    99  H    0.020784
   100  H   -0.025720
   101  H    0.016589
   102  H    0.013403
   103  H   -0.003392
   104  H   -0.035884
   105  H    0.005101
   106  H   -0.007682
   107  H    0.013187
   108  H   -0.026600
   109  H   -0.018389
   110  H   -0.019106
   111  H   -0.026427
   112  H   -0.048509
   113  H   -0.049657
   114  H   -0.039764
   115  H   -0.018804
   116  H   -0.022975
   117  H   -0.020553
   118  H   -0.043938
   119  H   -0.032964
   120  H   -0.023984
   121  H   -0.035510
   122  H   -0.040304
   123  H   -0.030693
   124  H   -0.028909
   125  H   -0.033578
   126  H   -0.008060
   127  H   -0.021183
   128  H   -0.039649
   129  H   -0.036263
   130  H   -0.037541
   131  H   -0.039381
   132  H   -0.033684
   133  H   -0.039146
   134  H   -0.033846
   135  H   -0.016109
   136  H   -0.015759
   137  H   -0.017876
   138  H   -0.009329
   139  H   -0.015068
   140  H   -0.012932
 Sum of Mulliken charges =  -0.00000

 Dipole moment (field-independent basis, Debye):
    X=              4.7900    Y=              1.7503    Z=             -0.2136  Tot=              5.1042
 Quadrupole moment (field-independent basis, Debye-Ang):
   XX=           -379.5947   YY=           -430.8780   ZZ=           -420.7359
   XY=            -18.9736   XZ=             11.1943   YZ=             -2.5482

 Normal termination of Gaussian 16 at Tue May  3 19:51:51 2022.
