 Gaussian 16, Revision A.03,
 Gaussian 16:  ES64L-G16RevA.03 25-Dec-2016

 -----------------------------------
 #p cam-b3lyp/Def2SVP td=(nstates=5)
 -----------------------------------

 --------------------------------------------------------
 step_1001_chromophore_27 TDDFT with cam-b3lyp functional
 --------------------------------------------------------
 Symbolic Z-matrix:
 Charge =  0 Multiplicity = 1

                         Standard orientation:
 ---------------------------------------------------------------------
 Center     Atomic      Atomic             Coordinates (Angstroms)
 Number     Number       Type             X           Y           Z
 ---------------------------------------------------------------------
      1         12           0       -4.476498    0.853779    0.200990
      2          6           0       -3.744751   -2.563637    0.263091
      3          6           0       -1.069139    1.488176    0.221784
      4          6           0       -5.155381    4.127061    0.149834
      5          6           0       -7.847825    0.146294    0.303885
      6          7           0       -2.642604   -0.421246    0.312419
      7          6           0       -2.612621   -1.754926    0.205140
      8          6           0       -1.248450   -2.268308   -0.210492
      9          6           0       -0.280940   -1.042871    0.050664
     10          6           0       -1.388959    0.095138    0.174696
     11          6           0        0.642313   -1.135123    1.274804
     12          6           0       -1.272603   -2.685445   -1.723862
     13          6           0       -0.517090   -4.038752   -1.925693
     14          6           0        1.030022   -3.908744   -2.309707
     15          8           0        1.434275   -4.065236   -3.453333
     16          8           0        1.791898   -3.651909   -1.219754
     17          7           0       -3.284184    2.525052    0.238379
     18          6           0       -1.915505    2.591943    0.244436
     19          6           0       -1.505411    3.968823    0.210015
     20          6           0       -2.633433    4.784812    0.181247
     21          6           0       -3.729685    3.802697    0.137327
     22          6           0       -0.028144    4.380177    0.187865
     23          6           0       -2.767899    6.305367    0.104564
     24          8           0       -3.860558    6.861120    0.027261
     25          6           0       -1.506697    7.072061    0.121852
     26          7           0       -6.256915    1.965323    0.318691
     27          6           0       -6.253955    3.286214    0.121935
     28          6           0       -7.722668    3.768518    0.242306
     29          6           0       -8.558851    2.479952    0.269972
     30          6           0       -7.462343    1.450341    0.156299
     31          6           0       -8.181643    4.698763    1.426736
     32          6           0       -9.625926    2.381584   -0.918043
     33          6           0      -11.097858    2.121549   -0.473597
     34          7           0       -5.569882   -0.884304    0.410327
     35          6           0       -6.944187   -0.970626    0.425361
     36          6           0       -7.252964   -2.408022    0.424656
     37          6           0       -6.100699   -3.065012    0.432366
     38          6           0       -5.069821   -2.112368    0.391247
     39          6           0       -8.643387   -2.963903    0.463516
     40          6           0       -5.416699   -4.355960    0.456152
     41          8           0       -5.988582   -5.400501    0.455876
     42          6           0       -3.834332   -4.066502    0.247129
     43          6           0       -3.229775   -4.875248    1.387292
     44          8           0       -3.345148   -4.629242    2.582113
     45          8           0       -2.511041   -5.923145    0.800938
     46          6           0       -1.652741   -6.636549    1.785875
     47          6           0        3.239052   -3.823016   -1.438537
     48          6           0        3.994511   -2.491883   -1.720594
     49          6           0        5.330117   -2.357737   -1.685011
     50          6           0        6.289666   -3.548628   -1.333982
     51          6           0        5.929770   -0.953773   -1.751445
     52          6           0        5.857866   -0.180810   -3.093801
     53          6           0        7.234303    0.380411   -3.579692
     54          6           0        7.309553    1.914670   -3.656504
     55          6           0        6.959754    2.370327   -5.074112
     56          6           0        8.719081    2.387906   -3.378501
     57          6           0        8.843490    2.685325   -1.851196
     58          6           0        9.983390    1.792210   -1.302978
     59          6           0        9.612795    1.334969    0.171569
     60          6           0        9.479345   -0.216097    0.127802
     61          6           0       10.680207    1.668878    1.217840
     62          6           0       10.102332    1.670790    2.647548
     63          6           0       10.366418    0.412615    3.491155
     64          6           0       10.506445    0.676020    5.003191
     65          6           0       11.775286   -0.002599    5.633784
     66          6           0        9.202328    0.326265    5.765555
     67          1           0        0.010341    1.595994    0.096501
     68          1           0       -5.467060    5.173766    0.163653
     69          1           0       -8.886949   -0.182126    0.229673
     70          1           0       -1.102784   -3.016471    0.567898
     71          1           0        0.373530   -0.814203   -0.790936
     72          1           0        1.559875   -0.700061    0.876858
     73          1           0        0.884644   -2.157026    1.565665
     74          1           0        0.369279   -0.549219    2.151909
     75          1           0       -0.756694   -1.886914   -2.257346
     76          1           0       -2.262497   -2.648251   -2.178247
     77          1           0       -1.071563   -4.554018   -2.710124
     78          1           0       -0.470986   -4.712578   -1.070574
     79          1           0        0.172682    5.052486   -0.646302
     80          1           0        0.690068    3.560952    0.221484
     81          1           0        0.177233    4.913381    1.116503
     82          1           0       -1.759120    8.126194    0.234805
     83          1           0       -0.984714    6.884228   -0.816490
     84          1           0       -0.847047    6.802212    0.946516
     85          1           0       -7.848942    4.296641   -0.702865
     86          1           0       -9.118747    2.290970    1.186168
     87          1           0       -8.350120    5.751218    1.198757
     88          1           0       -7.515331    4.760083    2.287072
     89          1           0       -9.097373    4.266443    1.832107
     90          1           0       -9.296549    1.580899   -1.580512
     91          1           0       -9.543189    3.169282   -1.667209
     92          1           0      -11.221180    2.396384    0.574351
     93          1           0      -11.426220    1.117008   -0.741231
     94          1           0      -11.801967    2.747769   -1.021953
     95          1           0       -9.145734   -2.690128    1.391540
     96          1           0       -8.451136   -4.023477    0.631012
     97          1           0       -9.106191   -2.695227   -0.486621
     98          1           0       -3.519422   -4.529203   -0.688367
     99          1           0       -1.940831   -6.782334    2.827517
    100          1           0       -0.923489   -5.849343    1.982133
    101          1           0       -0.982316   -7.425100    1.447146
    102          1           0        3.427870   -4.625790   -2.150388
    103          1           0        3.550960   -4.219852   -0.472245
    104          1           0        3.375035   -1.600274   -1.811917
    105          1           0        5.841298   -4.168608   -0.557428
    106          1           0        7.255048   -3.161713   -1.007393
    107          1           0        6.473755   -4.087734   -2.264057
    108          1           0        6.943442   -1.152175   -1.402066
    109          1           0        5.322024   -0.387890   -1.045478
    110          1           0        5.074077    0.574769   -3.033853
    111          1           0        5.642103   -0.965001   -3.819039
    112          1           0        7.559578    0.068451   -4.571929
    113          1           0        8.047937   -0.088533   -3.027152
    114          1           0        6.545785    2.401730   -3.049657
    115          1           0        6.484488    1.620809   -5.707145
    116          1           0        7.916724    2.657243   -5.508702
    117          1           0        6.298133    3.227315   -4.948833
    118          1           0        8.941051    3.277181   -3.968963
    119          1           0        9.440349    1.641630   -3.709430
    120          1           0        7.867870    2.605431   -1.371672
    121          1           0        9.091946    3.736728   -1.704379
    122          1           0       10.937884    2.310520   -1.391805
    123          1           0       10.147115    0.986565   -2.019426
    124          1           0        8.616812    1.640219    0.494100
    125          1           0        9.788580   -0.684469   -0.806893
    126          1           0        8.432587   -0.513121    0.186785
    127          1           0       10.135145   -0.791595    0.781551
    128          1           0       11.121646    2.623115    0.933071
    129          1           0       11.440321    0.888932    1.180950
    130          1           0        9.041886    1.923491    2.628270
    131          1           0       10.528569    2.536349    3.156630
    132          1           0       11.179523   -0.211918    3.120884
    133          1           0        9.474561   -0.188736    3.316110
    134          1           0       10.664547    1.745186    5.147437
    135          1           0       12.318926    0.660250    6.307532
    136          1           0       12.495827   -0.289703    4.868951
    137          1           0       11.415505   -0.855340    6.210565
    138          1           0        9.271924    0.753146    6.766031
    139          1           0        9.129179   -0.759453    5.831379
    140          1           0        8.352816    0.674924    5.177260
 ---------------------------------------------------------------------

 SCF Done:  E(RCAM-B3LYP) =  -3007.14732536     A.U. after   16 cycles

 Excitation energies and oscillator strengths:

 Excited State   1:      Singlet-A      1.7502 eV  708.39 nm  f=0.3792  <S**2>=0.000
     245 -> 248        0.18591
     246 -> 247        0.68490
     245 <- 248        0.10888
 This state for optimization and/or second-order correction.
 Total Energy, E(TD-HF/TD-DFT) =  -3007.08300588
 Copying the excited state density for this state as the 1-particle RhoCI density.

 Excited State   2:      Singlet-A      2.3162 eV  535.28 nm  f=0.0952  <S**2>=0.000
     245 -> 247        0.62666
     246 -> 248       -0.32035

 Excited State   3:      Singlet-A      3.5769 eV  346.62 nm  f=0.7564  <S**2>=0.000
     241 -> 247        0.12678
     242 -> 247       -0.11985
     245 -> 247        0.30447
     246 -> 248        0.61327
     245 <- 247       -0.11209

 Excited State   4:      Singlet-A      3.6619 eV  338.58 nm  f=0.0001  <S**2>=0.000
     241 -> 247        0.39478
     241 -> 249       -0.19052
     241 -> 250       -0.16792
     242 -> 247        0.41757
     242 -> 249       -0.18417
     242 -> 250       -0.14316
     244 -> 247        0.15762

 Excited State   5:      Singlet-A      3.6900 eV  336.00 nm  f=0.0059  <S**2>=0.000
     241 -> 247       -0.16074
     244 -> 247        0.64997

 The electronic state is 1-A.
 Alpha  occ. eigenvalues --  -46.87978 -19.26330 -19.26225 -19.20880 -19.19896
 Alpha  occ. eigenvalues --  -19.19894 -19.19049 -14.42101 -14.41118 -14.39675
 Alpha  occ. eigenvalues --  -14.38908 -10.40216 -10.39744 -10.35490 -10.35294
 Alpha  occ. eigenvalues --  -10.33084 -10.31943 -10.30812 -10.30438 -10.30351
 Alpha  occ. eigenvalues --  -10.29769 -10.29690 -10.29599 -10.29261 -10.29033
 Alpha  occ. eigenvalues --  -10.28422 -10.28174 -10.28163 -10.28064 -10.27941
 Alpha  occ. eigenvalues --  -10.27916 -10.27666 -10.27548 -10.27147 -10.27091
 Alpha  occ. eigenvalues --  -10.27051 -10.27008 -10.26986 -10.26924 -10.26543
 Alpha  occ. eigenvalues --  -10.26508 -10.26253 -10.26219 -10.26114 -10.26097
 Alpha  occ. eigenvalues --  -10.25911 -10.25868 -10.25865 -10.25684 -10.25599
 Alpha  occ. eigenvalues --  -10.25559 -10.25509 -10.25455 -10.25116 -10.25093
 Alpha  occ. eigenvalues --  -10.24988 -10.24838 -10.24776 -10.24762 -10.24745
 Alpha  occ. eigenvalues --  -10.24626 -10.24620 -10.24516 -10.24259 -10.24177
 Alpha  occ. eigenvalues --  -10.23932  -3.16631  -1.91544  -1.91065  -1.90953
 Alpha  occ. eigenvalues --   -1.17180  -1.15881  -1.12239  -1.09868  -1.08261
 Alpha  occ. eigenvalues --   -1.08174  -1.05259  -1.04490  -1.03775  -1.03021
 Alpha  occ. eigenvalues --   -0.92534  -0.90918  -0.89980  -0.89333  -0.89083
 Alpha  occ. eigenvalues --   -0.88709  -0.87830  -0.87624  -0.87435  -0.87191
 Alpha  occ. eigenvalues --   -0.86663  -0.85206  -0.84350  -0.83288  -0.83002
 Alpha  occ. eigenvalues --   -0.82560  -0.82087  -0.81429  -0.80706  -0.80551
 Alpha  occ. eigenvalues --   -0.79984  -0.78319  -0.77941  -0.77176  -0.76504
 Alpha  occ. eigenvalues --   -0.76090  -0.75480  -0.75084  -0.74990  -0.73938
 Alpha  occ. eigenvalues --   -0.73720  -0.72611  -0.71395  -0.70659  -0.69160
 Alpha  occ. eigenvalues --   -0.68504  -0.68447  -0.67351  -0.67210  -0.66174
 Alpha  occ. eigenvalues --   -0.66013  -0.65765  -0.65087  -0.64526  -0.64411
 Alpha  occ. eigenvalues --   -0.63543  -0.63453  -0.63185  -0.62486  -0.60123
 Alpha  occ. eigenvalues --   -0.60038  -0.59733  -0.59127  -0.58233  -0.57925
 Alpha  occ. eigenvalues --   -0.57688  -0.57281  -0.56256  -0.55793  -0.55437
 Alpha  occ. eigenvalues --   -0.55338  -0.54688  -0.54502  -0.54050  -0.53493
 Alpha  occ. eigenvalues --   -0.53462  -0.53095  -0.53028  -0.52969  -0.52887
 Alpha  occ. eigenvalues --   -0.52758  -0.52540  -0.52305  -0.51978  -0.51933
 Alpha  occ. eigenvalues --   -0.51619  -0.51272  -0.51185  -0.50881  -0.50606
 Alpha  occ. eigenvalues --   -0.50456  -0.50401  -0.50079  -0.49983  -0.49926
 Alpha  occ. eigenvalues --   -0.49869  -0.49486  -0.49420  -0.49241  -0.49162
 Alpha  occ. eigenvalues --   -0.48760  -0.48452  -0.48340  -0.48084  -0.47759
 Alpha  occ. eigenvalues --   -0.47705  -0.47464  -0.47220  -0.47101  -0.46791
 Alpha  occ. eigenvalues --   -0.46577  -0.46279  -0.46108  -0.45844  -0.45783
 Alpha  occ. eigenvalues --   -0.45449  -0.45352  -0.45273  -0.44875  -0.44851
 Alpha  occ. eigenvalues --   -0.44650  -0.44634  -0.44461  -0.44254  -0.44191
 Alpha  occ. eigenvalues --   -0.43921  -0.43709  -0.43540  -0.43361  -0.43310
 Alpha  occ. eigenvalues --   -0.43161  -0.43024  -0.42821  -0.42572  -0.42488
 Alpha  occ. eigenvalues --   -0.42239  -0.42208  -0.42083  -0.41917  -0.41872
 Alpha  occ. eigenvalues --   -0.41616  -0.41339  -0.41010  -0.40351  -0.40246
 Alpha  occ. eigenvalues --   -0.39968  -0.39384  -0.39318  -0.39174  -0.38799
 Alpha  occ. eigenvalues --   -0.38507  -0.38392  -0.38211  -0.37898  -0.37702
 Alpha  occ. eigenvalues --   -0.37532  -0.36766  -0.36722  -0.36636  -0.36310
 Alpha  occ. eigenvalues --   -0.35847  -0.35840  -0.35122  -0.34853  -0.33838
 Alpha  occ. eigenvalues --   -0.33511  -0.33360  -0.33004  -0.31507  -0.31403
 Alpha  occ. eigenvalues --   -0.31021  -0.30913  -0.30330  -0.30182  -0.23956
 Alpha  occ. eigenvalues --   -0.20786
 Alpha virt. eigenvalues --   -0.08090  -0.01353   0.00948   0.02475   0.03159
 Alpha virt. eigenvalues --    0.04161   0.04359   0.05371   0.05798   0.06805
 Alpha virt. eigenvalues --    0.07904   0.08197   0.08325   0.08587   0.09028

 Mulliken charges:
               1
     1  Mg   0.827924
     2  C    0.037612
     3  C   -0.083092
     4  C   -0.072582
     5  C   -0.102614
     6  N   -0.234380
     7  C   -0.097215
     8  C    0.011390
     9  C   -0.066601
    10  C   -0.027534
    11  C    0.078791
    12  C    0.076416
    13  C    0.081270
    14  C    0.131647
    15  O   -0.228078
    16  O   -0.325886
    17  N   -0.362553
    18  C    0.195374
    19  C   -0.154091
    20  C   -0.046006
    21  C    0.103783
    22  C    0.123915
    23  C    0.016293
    24  O   -0.197980
    25  C    0.055398
    26  N   -0.295832
    27  C    0.046880
    28  C    0.027211
    29  C   -0.097661
    30  C    0.129191
    31  C    0.064252
    32  C    0.027955
    33  C    0.003352
    34  N   -0.333514
    35  C    0.093305
    36  C   -0.258768
    37  C    0.098508
    38  C    0.044782
    39  C    0.132874
    40  C    0.018160
    41  O   -0.126896
    42  C   -0.027073
    43  C    0.211327
    44  O   -0.210254
    45  O   -0.345875
    46  C    0.193946
    47  C    0.251405
    48  C   -0.081382
    49  C   -0.224211
    50  C    0.071221
    51  C    0.073442
    52  C    0.069903
    53  C    0.048398
    54  C   -0.174183
    55  C    0.067075
    56  C    0.048552
    57  C    0.023346
    58  C    0.071873
    59  C   -0.128691
    60  C    0.013811
    61  C    0.075899
    62  C    0.012643
    63  C    0.046366
    64  C   -0.143817
    65  C    0.036233
    66  C    0.042569
    67  H   -0.040371
    68  H   -0.004259
    69  H   -0.023685
    70  H    0.003192
    71  H    0.010021
    72  H    0.002458
    73  H    0.021234
    74  H    0.026281
    75  H    0.013426
    76  H    0.024858
    77  H    0.022622
    78  H    0.027858
    79  H    0.024137
    80  H    0.008993
    81  H    0.022837
    82  H    0.026658
    83  H    0.040378
    84  H    0.031269
    85  H    0.005948
    86  H    0.025090
    87  H    0.018540
    88  H    0.015953
    89  H    0.004985
    90  H   -0.006394
    91  H   -0.001690
    92  H    0.019204
    93  H    0.022466
    94  H    0.007788
    95  H    0.026843
    96  H    0.024745
    97  H    0.038473
    98  H    0.040373
    99  H    0.048987
   100  H   -0.002902
   101  H    0.042874
   102  H    0.043894
   103  H    0.024315
   104  H   -0.005540
   105  H    0.027087
   106  H    0.015938
   107  H    0.037481
   108  H   -0.005666
   109  H    0.010840
   110  H    0.007604
   111  H    0.006090
   112  H   -0.017734
   113  H   -0.023740
   114  H   -0.008392
   115  H    0.006515
   116  H    0.001457
   117  H    0.004100
   118  H   -0.011353
   119  H   -0.004871
   120  H    0.001806
   121  H   -0.006038
   122  H   -0.010011
   123  H   -0.004752
   124  H    0.001933
   125  H   -0.010174
   126  H    0.012707
   127  H    0.002864
   128  H   -0.008920
   129  H   -0.008191
   130  H   -0.010303
   131  H   -0.009418
   132  H   -0.006306
   133  H   -0.010473
   134  H   -0.002494
   135  H    0.008226
   136  H    0.008188
   137  H    0.004979
   138  H    0.014782
   139  H    0.007245
   140  H    0.009614
 Sum of Mulliken charges =  -0.00000

 Dipole moment (field-independent basis, Debye):
    X=              5.0967    Y=              1.6796    Z=             -0.2126  Tot=              5.3706
 Quadrupole moment (field-independent basis, Debye-Ang):
   XX=           -378.0050   YY=           -427.2147   ZZ=           -421.5892
   XY=            -18.1534   XZ=             11.7296   YZ=             -3.2617

 Normal termination of Gaussian 16 at Tue May  3 18:43:43 2022.
