 Gaussian 16, Revision A.03,
 Gaussian 16:  ES64L-G16RevA.03 25-Dec-2016

 ---------------------------------
 #p PBE1PBE/Def2SVP td=(nstates=5)
 ---------------------------------

 ------------------------------------------------------
 step_1001_chromophore_27 TDDFT with PBE1PBE functional
 ------------------------------------------------------
 Symbolic Z-matrix:
 Charge =  0 Multiplicity = 1

                         Standard orientation:
 ---------------------------------------------------------------------
 Center     Atomic      Atomic             Coordinates (Angstroms)
 Number     Number       Type             X           Y           Z
 ---------------------------------------------------------------------
      1         12           0       -4.476498    0.853779    0.200990
      2          6           0       -3.744751   -2.563637    0.263091
      3          6           0       -1.069139    1.488176    0.221784
      4          6           0       -5.155381    4.127061    0.149834
      5          6           0       -7.847825    0.146294    0.303885
      6          7           0       -2.642604   -0.421246    0.312419
      7          6           0       -2.612621   -1.754926    0.205140
      8          6           0       -1.248450   -2.268308   -0.210492
      9          6           0       -0.280940   -1.042871    0.050664
     10          6           0       -1.388959    0.095138    0.174696
     11          6           0        0.642313   -1.135123    1.274804
     12          6           0       -1.272603   -2.685445   -1.723862
     13          6           0       -0.517090   -4.038752   -1.925693
     14          6           0        1.030022   -3.908744   -2.309707
     15          8           0        1.434275   -4.065236   -3.453333
     16          8           0        1.791898   -3.651909   -1.219754
     17          7           0       -3.284184    2.525052    0.238379
     18          6           0       -1.915505    2.591943    0.244436
     19          6           0       -1.505411    3.968823    0.210015
     20          6           0       -2.633433    4.784812    0.181247
     21          6           0       -3.729685    3.802697    0.137327
     22          6           0       -0.028144    4.380177    0.187865
     23          6           0       -2.767899    6.305367    0.104564
     24          8           0       -3.860558    6.861120    0.027261
     25          6           0       -1.506697    7.072061    0.121852
     26          7           0       -6.256915    1.965323    0.318691
     27          6           0       -6.253955    3.286214    0.121935
     28          6           0       -7.722668    3.768518    0.242306
     29          6           0       -8.558851    2.479952    0.269972
     30          6           0       -7.462343    1.450341    0.156299
     31          6           0       -8.181643    4.698763    1.426736
     32          6           0       -9.625926    2.381584   -0.918043
     33          6           0      -11.097858    2.121549   -0.473597
     34          7           0       -5.569882   -0.884304    0.410327
     35          6           0       -6.944187   -0.970626    0.425361
     36          6           0       -7.252964   -2.408022    0.424656
     37          6           0       -6.100699   -3.065012    0.432366
     38          6           0       -5.069821   -2.112368    0.391247
     39          6           0       -8.643387   -2.963903    0.463516
     40          6           0       -5.416699   -4.355960    0.456152
     41          8           0       -5.988582   -5.400501    0.455876
     42          6           0       -3.834332   -4.066502    0.247129
     43          6           0       -3.229775   -4.875248    1.387292
     44          8           0       -3.345148   -4.629242    2.582113
     45          8           0       -2.511041   -5.923145    0.800938
     46          6           0       -1.652741   -6.636549    1.785875
     47          6           0        3.239052   -3.823016   -1.438537
     48          6           0        3.994511   -2.491883   -1.720594
     49          6           0        5.330117   -2.357737   -1.685011
     50          6           0        6.289666   -3.548628   -1.333982
     51          6           0        5.929770   -0.953773   -1.751445
     52          6           0        5.857866   -0.180810   -3.093801
     53          6           0        7.234303    0.380411   -3.579692
     54          6           0        7.309553    1.914670   -3.656504
     55          6           0        6.959754    2.370327   -5.074112
     56          6           0        8.719081    2.387906   -3.378501
     57          6           0        8.843490    2.685325   -1.851196
     58          6           0        9.983390    1.792210   -1.302978
     59          6           0        9.612795    1.334969    0.171569
     60          6           0        9.479345   -0.216097    0.127802
     61          6           0       10.680207    1.668878    1.217840
     62          6           0       10.102332    1.670790    2.647548
     63          6           0       10.366418    0.412615    3.491155
     64          6           0       10.506445    0.676020    5.003191
     65          6           0       11.775286   -0.002599    5.633784
     66          6           0        9.202328    0.326265    5.765555
     67          1           0        0.010341    1.595994    0.096501
     68          1           0       -5.467060    5.173766    0.163653
     69          1           0       -8.886949   -0.182126    0.229673
     70          1           0       -1.102784   -3.016471    0.567898
     71          1           0        0.373530   -0.814203   -0.790936
     72          1           0        1.559875   -0.700061    0.876858
     73          1           0        0.884644   -2.157026    1.565665
     74          1           0        0.369279   -0.549219    2.151909
     75          1           0       -0.756694   -1.886914   -2.257346
     76          1           0       -2.262497   -2.648251   -2.178247
     77          1           0       -1.071563   -4.554018   -2.710124
     78          1           0       -0.470986   -4.712578   -1.070574
     79          1           0        0.172682    5.052486   -0.646302
     80          1           0        0.690068    3.560952    0.221484
     81          1           0        0.177233    4.913381    1.116503
     82          1           0       -1.759120    8.126194    0.234805
     83          1           0       -0.984714    6.884228   -0.816490
     84          1           0       -0.847047    6.802212    0.946516
     85          1           0       -7.848942    4.296641   -0.702865
     86          1           0       -9.118747    2.290970    1.186168
     87          1           0       -8.350120    5.751218    1.198757
     88          1           0       -7.515331    4.760083    2.287072
     89          1           0       -9.097373    4.266443    1.832107
     90          1           0       -9.296549    1.580899   -1.580512
     91          1           0       -9.543189    3.169282   -1.667209
     92          1           0      -11.221180    2.396384    0.574351
     93          1           0      -11.426220    1.117008   -0.741231
     94          1           0      -11.801967    2.747769   -1.021953
     95          1           0       -9.145734   -2.690128    1.391540
     96          1           0       -8.451136   -4.023477    0.631012
     97          1           0       -9.106191   -2.695227   -0.486621
     98          1           0       -3.519422   -4.529203   -0.688367
     99          1           0       -1.940831   -6.782334    2.827517
    100          1           0       -0.923489   -5.849343    1.982133
    101          1           0       -0.982316   -7.425100    1.447146
    102          1           0        3.427870   -4.625790   -2.150388
    103          1           0        3.550960   -4.219852   -0.472245
    104          1           0        3.375035   -1.600274   -1.811917
    105          1           0        5.841298   -4.168608   -0.557428
    106          1           0        7.255048   -3.161713   -1.007393
    107          1           0        6.473755   -4.087734   -2.264057
    108          1           0        6.943442   -1.152175   -1.402066
    109          1           0        5.322024   -0.387890   -1.045478
    110          1           0        5.074077    0.574769   -3.033853
    111          1           0        5.642103   -0.965001   -3.819039
    112          1           0        7.559578    0.068451   -4.571929
    113          1           0        8.047937   -0.088533   -3.027152
    114          1           0        6.545785    2.401730   -3.049657
    115          1           0        6.484488    1.620809   -5.707145
    116          1           0        7.916724    2.657243   -5.508702
    117          1           0        6.298133    3.227315   -4.948833
    118          1           0        8.941051    3.277181   -3.968963
    119          1           0        9.440349    1.641630   -3.709430
    120          1           0        7.867870    2.605431   -1.371672
    121          1           0        9.091946    3.736728   -1.704379
    122          1           0       10.937884    2.310520   -1.391805
    123          1           0       10.147115    0.986565   -2.019426
    124          1           0        8.616812    1.640219    0.494100
    125          1           0        9.788580   -0.684469   -0.806893
    126          1           0        8.432587   -0.513121    0.186785
    127          1           0       10.135145   -0.791595    0.781551
    128          1           0       11.121646    2.623115    0.933071
    129          1           0       11.440321    0.888932    1.180950
    130          1           0        9.041886    1.923491    2.628270
    131          1           0       10.528569    2.536349    3.156630
    132          1           0       11.179523   -0.211918    3.120884
    133          1           0        9.474561   -0.188736    3.316110
    134          1           0       10.664547    1.745186    5.147437
    135          1           0       12.318926    0.660250    6.307532
    136          1           0       12.495827   -0.289703    4.868951
    137          1           0       11.415505   -0.855340    6.210565
    138          1           0        9.271924    0.753146    6.766031
    139          1           0        9.129179   -0.759453    5.831379
    140          1           0        8.352816    0.674924    5.177260
 ---------------------------------------------------------------------

 SCF Done:  E(RPBE1PBE) =  -3005.33430361     A.U. after   15 cycles

 Excitation energies and oscillator strengths:

 Excited State   1:      Singlet-A      1.9087 eV  649.57 nm  f=0.3696  <S**2>=0.000
     245 -> 248        0.17864
     246 -> 247        0.69172
     246 <- 247       -0.10500
 This state for optimization and/or second-order correction.
 Total Energy, E(TD-HF/TD-DFT) =  -3005.26415922
 Copying the excited state density for this state as the 1-particle RhoCI density.

 Excited State   2:      Singlet-A      2.3210 eV  534.18 nm  f=0.0971  <S**2>=0.000
     245 -> 247        0.63981
     246 -> 248       -0.29354

 Excited State   3:      Singlet-A      3.1925 eV  388.36 nm  f=0.0004  <S**2>=0.000
     242 -> 247        0.57658
     242 -> 249       -0.12630
     242 -> 250       -0.10192
     243 -> 247        0.35676

 Excited State   4:      Singlet-A      3.3320 eV  372.11 nm  f=0.0022  <S**2>=0.000
     241 -> 247       -0.15066
     242 -> 247       -0.35135
     243 -> 247        0.56816

 Excited State   5:      Singlet-A      3.3694 eV  367.97 nm  f=0.3093  <S**2>=0.000
     240 -> 247        0.17130
     241 -> 247       -0.26448
     245 -> 247        0.21470
     246 -> 248        0.53966
     246 -> 249        0.20019

 The electronic state is 1-A.
 Alpha  occ. eigenvalues --  -46.91374 -19.27019 -19.26839 -19.21016 -19.20206
 Alpha  occ. eigenvalues --  -19.19981 -19.19328 -14.41540 -14.40687 -14.39363
 Alpha  occ. eigenvalues --  -14.38503 -10.37170 -10.36827 -10.32577 -10.32473
 Alpha  occ. eigenvalues --  -10.30512 -10.29152 -10.28683 -10.28125 -10.28125
 Alpha  occ. eigenvalues --  -10.27537 -10.27332 -10.27225 -10.27075 -10.26571
 Alpha  occ. eigenvalues --  -10.26257 -10.25807 -10.25805 -10.25770 -10.25751
 Alpha  occ. eigenvalues --  -10.25422 -10.25372 -10.25239 -10.24870 -10.24794
 Alpha  occ. eigenvalues --  -10.24744 -10.24582 -10.24567 -10.24461 -10.24367
 Alpha  occ. eigenvalues --  -10.24074 -10.23942 -10.23898 -10.23674 -10.23600
 Alpha  occ. eigenvalues --  -10.23478 -10.23444 -10.23359 -10.23356 -10.23355
 Alpha  occ. eigenvalues --  -10.23051 -10.22983 -10.22882 -10.22808 -10.22702
 Alpha  occ. eigenvalues --  -10.22597 -10.22381 -10.22335 -10.22302 -10.22177
 Alpha  occ. eigenvalues --  -10.22156 -10.22128 -10.22016 -10.21747 -10.21695
 Alpha  occ. eigenvalues --  -10.21350  -3.13604  -1.86460  -1.85958  -1.85850
 Alpha  occ. eigenvalues --   -1.12023  -1.10557  -1.06911  -1.04654  -1.03063
 Alpha  occ. eigenvalues --   -1.03013  -0.99918  -0.99113  -0.98450  -0.97741
 Alpha  occ. eigenvalues --   -0.86805  -0.85039  -0.84117  -0.83469  -0.83278
 Alpha  occ. eigenvalues --   -0.83041  -0.82160  -0.81928  -0.81548  -0.81539
 Alpha  occ. eigenvalues --   -0.80989  -0.79436  -0.78544  -0.77544  -0.77225
 Alpha  occ. eigenvalues --   -0.76759  -0.76329  -0.75690  -0.75027  -0.74834
 Alpha  occ. eigenvalues --   -0.74161  -0.72638  -0.72194  -0.71472  -0.70690
 Alpha  occ. eigenvalues --   -0.70388  -0.69566  -0.69445  -0.69108  -0.68188
 Alpha  occ. eigenvalues --   -0.67990  -0.67032  -0.65866  -0.64942  -0.63512
 Alpha  occ. eigenvalues --   -0.62915  -0.62715  -0.61717  -0.61579  -0.60440
 Alpha  occ. eigenvalues --   -0.60333  -0.60242  -0.59679  -0.58965  -0.58691
 Alpha  occ. eigenvalues --   -0.58000  -0.57718  -0.57367  -0.57036  -0.54733
 Alpha  occ. eigenvalues --   -0.54416  -0.54266  -0.53668  -0.52837  -0.52341
 Alpha  occ. eigenvalues --   -0.52205  -0.51699  -0.50875  -0.50308  -0.49980
 Alpha  occ. eigenvalues --   -0.49799  -0.49246  -0.49130  -0.48561  -0.48039
 Alpha  occ. eigenvalues --   -0.47871  -0.47710  -0.47511  -0.47404  -0.47311
 Alpha  occ. eigenvalues --   -0.47266  -0.47066  -0.46849  -0.46576  -0.46422
 Alpha  occ. eigenvalues --   -0.46129  -0.45801  -0.45778  -0.45501  -0.45228
 Alpha  occ. eigenvalues --   -0.44972  -0.44913  -0.44628  -0.44590  -0.44507
 Alpha  occ. eigenvalues --   -0.44432  -0.44128  -0.44026  -0.43824  -0.43777
 Alpha  occ. eigenvalues --   -0.43348  -0.43057  -0.42943  -0.42759  -0.42395
 Alpha  occ. eigenvalues --   -0.42361  -0.42087  -0.41887  -0.41771  -0.41413
 Alpha  occ. eigenvalues --   -0.41228  -0.40971  -0.40745  -0.40606  -0.40539
 Alpha  occ. eigenvalues --   -0.40218  -0.40122  -0.39991  -0.39580  -0.39426
 Alpha  occ. eigenvalues --   -0.39421  -0.39388  -0.39143  -0.38961  -0.38903
 Alpha  occ. eigenvalues --   -0.38669  -0.38476  -0.38376  -0.38152  -0.38075
 Alpha  occ. eigenvalues --   -0.38010  -0.37899  -0.37682  -0.37340  -0.37271
 Alpha  occ. eigenvalues --   -0.37096  -0.36962  -0.36897  -0.36764  -0.36642
 Alpha  occ. eigenvalues --   -0.36480  -0.36153  -0.35791  -0.35251  -0.35095
 Alpha  occ. eigenvalues --   -0.34900  -0.34312  -0.34138  -0.33965  -0.33593
 Alpha  occ. eigenvalues --   -0.33414  -0.33374  -0.33056  -0.32726  -0.32686
 Alpha  occ. eigenvalues --   -0.32415  -0.31792  -0.31545  -0.31493  -0.31261
 Alpha  occ. eigenvalues --   -0.30888  -0.30673  -0.29929  -0.29713  -0.28985
 Alpha  occ. eigenvalues --   -0.28607  -0.28516  -0.28259  -0.27077  -0.26556
 Alpha  occ. eigenvalues --   -0.26257  -0.25841  -0.25787  -0.25587  -0.20876
 Alpha  occ. eigenvalues --   -0.18449
 Alpha virt. eigenvalues --   -0.10626  -0.04875  -0.03344  -0.01902  -0.00240
 Alpha virt. eigenvalues --   -0.00089   0.00363   0.00902   0.01750   0.03176
 Alpha virt. eigenvalues --    0.03965   0.04310   0.04797   0.05242   0.05369

 Mulliken charges:
               1
     1  Mg   0.979834
     2  C    0.018364
     3  C   -0.078679
     4  C   -0.060562
     5  C   -0.083966
     6  N   -0.342203
     7  C   -0.012233
     8  C   -0.069938
     9  C   -0.140981
    10  C    0.017281
    11  C    0.024837
    12  C    0.027785
    13  C    0.001962
    14  C    0.198971
    15  O   -0.259620
    16  O   -0.355134
    17  N   -0.482851
    18  C    0.215642
    19  C   -0.184556
    20  C   -0.087329
    21  C    0.134606
    22  C    0.062985
    23  C    0.067251
    24  O   -0.236810
    25  C   -0.018841
    26  N   -0.403006
    27  C    0.078291
    28  C   -0.045480
    29  C   -0.186108
    30  C    0.163195
    31  C    0.005125
    32  C   -0.020283
    33  C   -0.071045
    34  N   -0.467800
    35  C    0.123297
    36  C   -0.286590
    37  C    0.042989
    38  C    0.106986
    39  C    0.073048
    40  C    0.125072
    41  O   -0.173651
    42  C   -0.130055
    43  C    0.297255
    44  O   -0.245011
    45  O   -0.376425
    46  C    0.134614
    47  C    0.210327
    48  C   -0.091431
    49  C   -0.260448
    50  C    0.003612
    51  C    0.006568
    52  C    0.002328
    53  C    0.002008
    54  C   -0.265206
    55  C    0.008214
    56  C   -0.010319
    57  C   -0.032039
    58  C    0.019840
    59  C   -0.217901
    60  C   -0.039363
    61  C    0.016229
    62  C   -0.046465
    63  C   -0.009201
    64  C   -0.233221
    65  C   -0.023657
    66  C   -0.022951
    67  H   -0.007153
    68  H    0.028591
    69  H    0.009468
    70  H    0.046094
    71  H    0.046271
    72  H    0.029639
    73  H    0.048585
    74  H    0.053275
    75  H    0.045663
    76  H    0.056139
    77  H    0.055424
    78  H    0.060840
    79  H    0.052453
    80  H    0.036646
    81  H    0.051772
    82  H    0.054688
    83  H    0.068024
    84  H    0.058357
    85  H    0.043883
    86  H    0.061016
    87  H    0.045433
    88  H    0.043612
    89  H    0.033099
    90  H    0.026614
    91  H    0.029277
    92  H    0.046032
    93  H    0.049111
    94  H    0.036363
    95  H    0.054768
    96  H    0.054220
    97  H    0.065122
    98  H    0.077815
    99  H    0.070914
   100  H    0.020251
   101  H    0.065016
   102  H    0.069384
   103  H    0.050879
   104  H    0.023938
   105  H    0.053246
   106  H    0.041917
   107  H    0.065547
   108  H    0.030766
   109  H    0.043876
   110  H    0.037638
   111  H    0.041192
   112  H    0.014593
   113  H    0.010175
   114  H    0.028102
   115  H    0.034082
   116  H    0.029349
   117  H    0.032447
   118  H    0.022253
   119  H    0.027246
   120  H    0.032354
   121  H    0.027652
   122  H    0.021632
   123  H    0.025072
   124  H    0.038043
   125  H    0.016233
   126  H    0.041126
   127  H    0.029714
   128  H    0.024517
   129  H    0.025368
   130  H    0.021462
   131  H    0.023610
   132  H    0.023581
   133  H    0.023755
   134  H    0.035403
   135  H    0.035817
   136  H    0.034962
   137  H    0.032224
   138  H    0.042848
   139  H    0.035184
   140  H    0.038336
 Sum of Mulliken charges =  -0.00000

 Dipole moment (field-independent basis, Debye):
    X=              5.0872    Y=              1.9099    Z=             -0.2359  Tot=              5.4391
 Quadrupole moment (field-independent basis, Debye-Ang):
   XX=           -372.5239   YY=           -424.5253   ZZ=           -419.2091
   XY=            -19.7957   XZ=             11.6762   YZ=             -3.1222

 Normal termination of Gaussian 16 at Tue May  3 19:08:54 2022.
