 Gaussian 16, Revision A.03,
 Gaussian 16:  ES64L-G16RevA.03 25-Dec-2016

 --------------------------------
 #p wB97XD/Def2SVP td=(nstates=5)
 --------------------------------

 -----------------------------------------------------
 step_1001_chromophore_27 TDDFT with wB97XD functional
 -----------------------------------------------------
 Symbolic Z-matrix:
 Charge =  0 Multiplicity = 1

                         Standard orientation:
 ---------------------------------------------------------------------
 Center     Atomic      Atomic             Coordinates (Angstroms)
 Number     Number       Type             X           Y           Z
 ---------------------------------------------------------------------
      1         12           0       -4.476498    0.853779    0.200990
      2          6           0       -3.744751   -2.563637    0.263091
      3          6           0       -1.069139    1.488176    0.221784
      4          6           0       -5.155381    4.127061    0.149834
      5          6           0       -7.847825    0.146294    0.303885
      6          7           0       -2.642604   -0.421246    0.312419
      7          6           0       -2.612621   -1.754926    0.205140
      8          6           0       -1.248450   -2.268308   -0.210492
      9          6           0       -0.280940   -1.042871    0.050664
     10          6           0       -1.388959    0.095138    0.174696
     11          6           0        0.642313   -1.135123    1.274804
     12          6           0       -1.272603   -2.685445   -1.723862
     13          6           0       -0.517090   -4.038752   -1.925693
     14          6           0        1.030022   -3.908744   -2.309707
     15          8           0        1.434275   -4.065236   -3.453333
     16          8           0        1.791898   -3.651909   -1.219754
     17          7           0       -3.284184    2.525052    0.238379
     18          6           0       -1.915505    2.591943    0.244436
     19          6           0       -1.505411    3.968823    0.210015
     20          6           0       -2.633433    4.784812    0.181247
     21          6           0       -3.729685    3.802697    0.137327
     22          6           0       -0.028144    4.380177    0.187865
     23          6           0       -2.767899    6.305367    0.104564
     24          8           0       -3.860558    6.861120    0.027261
     25          6           0       -1.506697    7.072061    0.121852
     26          7           0       -6.256915    1.965323    0.318691
     27          6           0       -6.253955    3.286214    0.121935
     28          6           0       -7.722668    3.768518    0.242306
     29          6           0       -8.558851    2.479952    0.269972
     30          6           0       -7.462343    1.450341    0.156299
     31          6           0       -8.181643    4.698763    1.426736
     32          6           0       -9.625926    2.381584   -0.918043
     33          6           0      -11.097858    2.121549   -0.473597
     34          7           0       -5.569882   -0.884304    0.410327
     35          6           0       -6.944187   -0.970626    0.425361
     36          6           0       -7.252964   -2.408022    0.424656
     37          6           0       -6.100699   -3.065012    0.432366
     38          6           0       -5.069821   -2.112368    0.391247
     39          6           0       -8.643387   -2.963903    0.463516
     40          6           0       -5.416699   -4.355960    0.456152
     41          8           0       -5.988582   -5.400501    0.455876
     42          6           0       -3.834332   -4.066502    0.247129
     43          6           0       -3.229775   -4.875248    1.387292
     44          8           0       -3.345148   -4.629242    2.582113
     45          8           0       -2.511041   -5.923145    0.800938
     46          6           0       -1.652741   -6.636549    1.785875
     47          6           0        3.239052   -3.823016   -1.438537
     48          6           0        3.994511   -2.491883   -1.720594
     49          6           0        5.330117   -2.357737   -1.685011
     50          6           0        6.289666   -3.548628   -1.333982
     51          6           0        5.929770   -0.953773   -1.751445
     52          6           0        5.857866   -0.180810   -3.093801
     53          6           0        7.234303    0.380411   -3.579692
     54          6           0        7.309553    1.914670   -3.656504
     55          6           0        6.959754    2.370327   -5.074112
     56          6           0        8.719081    2.387906   -3.378501
     57          6           0        8.843490    2.685325   -1.851196
     58          6           0        9.983390    1.792210   -1.302978
     59          6           0        9.612795    1.334969    0.171569
     60          6           0        9.479345   -0.216097    0.127802
     61          6           0       10.680207    1.668878    1.217840
     62          6           0       10.102332    1.670790    2.647548
     63          6           0       10.366418    0.412615    3.491155
     64          6           0       10.506445    0.676020    5.003191
     65          6           0       11.775286   -0.002599    5.633784
     66          6           0        9.202328    0.326265    5.765555
     67          1           0        0.010341    1.595994    0.096501
     68          1           0       -5.467060    5.173766    0.163653
     69          1           0       -8.886949   -0.182126    0.229673
     70          1           0       -1.102784   -3.016471    0.567898
     71          1           0        0.373530   -0.814203   -0.790936
     72          1           0        1.559875   -0.700061    0.876858
     73          1           0        0.884644   -2.157026    1.565665
     74          1           0        0.369279   -0.549219    2.151909
     75          1           0       -0.756694   -1.886914   -2.257346
     76          1           0       -2.262497   -2.648251   -2.178247
     77          1           0       -1.071563   -4.554018   -2.710124
     78          1           0       -0.470986   -4.712578   -1.070574
     79          1           0        0.172682    5.052486   -0.646302
     80          1           0        0.690068    3.560952    0.221484
     81          1           0        0.177233    4.913381    1.116503
     82          1           0       -1.759120    8.126194    0.234805
     83          1           0       -0.984714    6.884228   -0.816490
     84          1           0       -0.847047    6.802212    0.946516
     85          1           0       -7.848942    4.296641   -0.702865
     86          1           0       -9.118747    2.290970    1.186168
     87          1           0       -8.350120    5.751218    1.198757
     88          1           0       -7.515331    4.760083    2.287072
     89          1           0       -9.097373    4.266443    1.832107
     90          1           0       -9.296549    1.580899   -1.580512
     91          1           0       -9.543189    3.169282   -1.667209
     92          1           0      -11.221180    2.396384    0.574351
     93          1           0      -11.426220    1.117008   -0.741231
     94          1           0      -11.801967    2.747769   -1.021953
     95          1           0       -9.145734   -2.690128    1.391540
     96          1           0       -8.451136   -4.023477    0.631012
     97          1           0       -9.106191   -2.695227   -0.486621
     98          1           0       -3.519422   -4.529203   -0.688367
     99          1           0       -1.940831   -6.782334    2.827517
    100          1           0       -0.923489   -5.849343    1.982133
    101          1           0       -0.982316   -7.425100    1.447146
    102          1           0        3.427870   -4.625790   -2.150388
    103          1           0        3.550960   -4.219852   -0.472245
    104          1           0        3.375035   -1.600274   -1.811917
    105          1           0        5.841298   -4.168608   -0.557428
    106          1           0        7.255048   -3.161713   -1.007393
    107          1           0        6.473755   -4.087734   -2.264057
    108          1           0        6.943442   -1.152175   -1.402066
    109          1           0        5.322024   -0.387890   -1.045478
    110          1           0        5.074077    0.574769   -3.033853
    111          1           0        5.642103   -0.965001   -3.819039
    112          1           0        7.559578    0.068451   -4.571929
    113          1           0        8.047937   -0.088533   -3.027152
    114          1           0        6.545785    2.401730   -3.049657
    115          1           0        6.484488    1.620809   -5.707145
    116          1           0        7.916724    2.657243   -5.508702
    117          1           0        6.298133    3.227315   -4.948833
    118          1           0        8.941051    3.277181   -3.968963
    119          1           0        9.440349    1.641630   -3.709430
    120          1           0        7.867870    2.605431   -1.371672
    121          1           0        9.091946    3.736728   -1.704379
    122          1           0       10.937884    2.310520   -1.391805
    123          1           0       10.147115    0.986565   -2.019426
    124          1           0        8.616812    1.640219    0.494100
    125          1           0        9.788580   -0.684469   -0.806893
    126          1           0        8.432587   -0.513121    0.186785
    127          1           0       10.135145   -0.791595    0.781551
    128          1           0       11.121646    2.623115    0.933071
    129          1           0       11.440321    0.888932    1.180950
    130          1           0        9.041886    1.923491    2.628270
    131          1           0       10.528569    2.536349    3.156630
    132          1           0       11.179523   -0.211918    3.120884
    133          1           0        9.474561   -0.188736    3.316110
    134          1           0       10.664547    1.745186    5.147437
    135          1           0       12.318926    0.660250    6.307532
    136          1           0       12.495827   -0.289703    4.868951
    137          1           0       11.415505   -0.855340    6.210565
    138          1           0        9.271924    0.753146    6.766031
    139          1           0        9.129179   -0.759453    5.831379
    140          1           0        8.352816    0.674924    5.177260
 ---------------------------------------------------------------------

 SCF Done:  E(RwB97XD) =  -3007.84586132     A.U. after   18 cycles

 Excitation energies and oscillator strengths:

 Excited State   1:      Singlet-A      1.6934 eV  732.15 nm  f=0.3774  <S**2>=0.000
     245 -> 248        0.19138
     246 -> 247        0.68279
     245 <- 248        0.11800
 This state for optimization and/or second-order correction.
 Total Energy, E(TD-HF/TD-DFT) =  -3007.78362876
 Copying the excited state density for this state as the 1-particle RhoCI density.

 Excited State   2:      Singlet-A      2.2614 eV  548.25 nm  f=0.0939  <S**2>=0.000
     245 -> 247        0.62578
     246 -> 248       -0.32127

 Excited State   3:      Singlet-A      3.5881 eV  345.55 nm  f=0.7703  <S**2>=0.000
     241 -> 247        0.18464
     245 -> 247        0.30194
     246 -> 248        0.61000
     245 <- 247       -0.11713

 Excited State   4:      Singlet-A      3.6795 eV  336.96 nm  f=0.0005  <S**2>=0.000
     241 -> 247        0.12214
     242 -> 247        0.55280
     242 -> 249       -0.27734
     242 -> 250       -0.22530
     243 -> 247        0.11622

 Excited State   5:      Singlet-A      3.7122 eV  333.99 nm  f=0.0123  <S**2>=0.000
     239 -> 247       -0.10924
     241 -> 247       -0.14253
     243 -> 247        0.54583
     244 -> 247       -0.35125

 The electronic state is 1-A.
 Alpha  occ. eigenvalues --  -46.94340 -19.31571 -19.31488 -19.25848 -19.24958
 Alpha  occ. eigenvalues --  -19.24867 -19.24060 -14.46707 -14.45680 -14.44276
 Alpha  occ. eigenvalues --  -14.43517 -10.44110 -10.43595 -10.39544 -10.39239
 Alpha  occ. eigenvalues --  -10.37003 -10.35734 -10.34844 -10.34463 -10.34392
 Alpha  occ. eigenvalues --  -10.33776 -10.33691 -10.33681 -10.33264 -10.33121
 Alpha  occ. eigenvalues --  -10.32481 -10.32187 -10.32186 -10.32171 -10.32020
 Alpha  occ. eigenvalues --  -10.31861 -10.31823 -10.31555 -10.31214 -10.31113
 Alpha  occ. eigenvalues --  -10.31044 -10.31034 -10.30989 -10.30895 -10.30613
 Alpha  occ. eigenvalues --  -10.30461 -10.30287 -10.30182 -10.30050 -10.29971
 Alpha  occ. eigenvalues --  -10.29870 -10.29854 -10.29710 -10.29640 -10.29605
 Alpha  occ. eigenvalues --  -10.29432 -10.29418 -10.29310 -10.29072 -10.29063
 Alpha  occ. eigenvalues --  -10.28946 -10.28750 -10.28689 -10.28663 -10.28593
 Alpha  occ. eigenvalues --  -10.28551 -10.28455 -10.28434 -10.28236 -10.28129
 Alpha  occ. eigenvalues --  -10.27763  -3.20404  -1.94012  -1.93513  -1.93404
 Alpha  occ. eigenvalues --   -1.19393  -1.18071  -1.14512  -1.12064  -1.10491
 Alpha  occ. eigenvalues --   -1.10395  -1.07270  -1.06520  -1.05817  -1.05068
 Alpha  occ. eigenvalues --   -0.94536  -0.92699  -0.91783  -0.91126  -0.90923
 Alpha  occ. eigenvalues --   -0.90612  -0.89749  -0.89566  -0.89209  -0.89116
 Alpha  occ. eigenvalues --   -0.88614  -0.87081  -0.86198  -0.85211  -0.84885
 Alpha  occ. eigenvalues --   -0.84434  -0.83968  -0.83343  -0.82642  -0.82482
 Alpha  occ. eigenvalues --   -0.81820  -0.80271  -0.79853  -0.79116  -0.78364
 Alpha  occ. eigenvalues --   -0.78020  -0.77271  -0.77011  -0.76798  -0.75813
 Alpha  occ. eigenvalues --   -0.75618  -0.74608  -0.73377  -0.72580  -0.71065
 Alpha  occ. eigenvalues --   -0.70494  -0.70352  -0.69228  -0.69201  -0.67996
 Alpha  occ. eigenvalues --   -0.67942  -0.67719  -0.67105  -0.66430  -0.66351
 Alpha  occ. eigenvalues --   -0.65456  -0.65367  -0.65012  -0.64501  -0.62117
 Alpha  occ. eigenvalues --   -0.61944  -0.61720  -0.61114  -0.60206  -0.59913
 Alpha  occ. eigenvalues --   -0.59709  -0.59189  -0.58259  -0.57763  -0.57416
 Alpha  occ. eigenvalues --   -0.57241  -0.56664  -0.56505  -0.55979  -0.55435
 Alpha  occ. eigenvalues --   -0.55320  -0.55030  -0.54919  -0.54882  -0.54770
 Alpha  occ. eigenvalues --   -0.54652  -0.54461  -0.54229  -0.53928  -0.53867
 Alpha  occ. eigenvalues --   -0.53502  -0.53150  -0.53139  -0.52794  -0.52512
 Alpha  occ. eigenvalues --   -0.52388  -0.52277  -0.51973  -0.51928  -0.51824
 Alpha  occ. eigenvalues --   -0.51781  -0.51425  -0.51343  -0.51148  -0.51092
 Alpha  occ. eigenvalues --   -0.50690  -0.50342  -0.50219  -0.49999  -0.49663
 Alpha  occ. eigenvalues --   -0.49625  -0.49444  -0.49159  -0.49016  -0.48714
 Alpha  occ. eigenvalues --   -0.48460  -0.48165  -0.48067  -0.47762  -0.47696
 Alpha  occ. eigenvalues --   -0.47398  -0.47276  -0.47198  -0.46757  -0.46687
 Alpha  occ. eigenvalues --   -0.46575  -0.46552  -0.46336  -0.46160  -0.46084
 Alpha  occ. eigenvalues --   -0.45904  -0.45635  -0.45501  -0.45276  -0.45224
 Alpha  occ. eigenvalues --   -0.45101  -0.44944  -0.44778  -0.44448  -0.44438
 Alpha  occ. eigenvalues --   -0.44142  -0.44081  -0.44020  -0.43871  -0.43745
 Alpha  occ. eigenvalues --   -0.43553  -0.43196  -0.42862  -0.42244  -0.42132
 Alpha  occ. eigenvalues --   -0.41876  -0.41237  -0.41230  -0.41016  -0.40648
 Alpha  occ. eigenvalues --   -0.40408  -0.40307  -0.40095  -0.39755  -0.39634
 Alpha  occ. eigenvalues --   -0.39458  -0.38882  -0.38674  -0.38559  -0.38196
 Alpha  occ. eigenvalues --   -0.37785  -0.37687  -0.37118  -0.36704  -0.35805
 Alpha  occ. eigenvalues --   -0.35347  -0.35326  -0.35255  -0.33695  -0.33359
 Alpha  occ. eigenvalues --   -0.33159  -0.32974  -0.32392  -0.32356  -0.25888
 Alpha  occ. eigenvalues --   -0.22615
 Alpha virt. eigenvalues --   -0.06445   0.00546   0.02988   0.04615   0.06165
 Alpha virt. eigenvalues --    0.06444   0.06648   0.07675   0.08414   0.09558
 Alpha virt. eigenvalues --    0.10654   0.11072   0.11583   0.11840   0.12141

 Mulliken charges:
               1
     1  Mg   0.969326
     2  C    0.015608
     3  C   -0.090597
     4  C   -0.078989
     5  C   -0.107656
     6  N   -0.304844
     7  C   -0.046795
     8  C   -0.038778
     9  C   -0.112581
    10  C   -0.004103
    11  C    0.032455
    12  C    0.036588
    13  C    0.021353
    14  C    0.186079
    15  O   -0.257854
    16  O   -0.354046
    17  N   -0.448637
    18  C    0.208087
    19  C   -0.173674
    20  C   -0.085780
    21  C    0.126823
    22  C    0.077423
    23  C    0.064016
    24  O   -0.230870
    25  C   -0.006957
    26  N   -0.370553
    27  C    0.065304
    28  C   -0.023872
    29  C   -0.152383
    30  C    0.155953
    31  C    0.017359
    32  C   -0.012344
    33  C   -0.052974
    34  N   -0.427414
    35  C    0.112288
    36  C   -0.275671
    37  C    0.051394
    38  C    0.086330
    39  C    0.083156
    40  C    0.101896
    41  O   -0.163513
    42  C   -0.089558
    43  C    0.274208
    44  O   -0.239543
    45  O   -0.375745
    46  C    0.150614
    47  C    0.225445
    48  C   -0.103085
    49  C   -0.251317
    50  C    0.022702
    51  C    0.039747
    52  C    0.017072
    53  C    0.019050
    54  C   -0.233230
    55  C    0.019124
    56  C    0.009010
    57  C   -0.019621
    58  C    0.036420
    59  C   -0.186433
    60  C   -0.026121
    61  C    0.036557
    62  C   -0.031527
    63  C    0.006290
    64  C   -0.205865
    65  C   -0.010849
    66  C   -0.007725
    67  H   -0.015115
    68  H    0.023619
    69  H    0.002417
    70  H    0.027584
    71  H    0.034620
    72  H    0.023543
    73  H    0.043693
    74  H    0.048356
    75  H    0.037905
    76  H    0.049140
    77  H    0.051250
    78  H    0.052687
    79  H    0.045704
    80  H    0.032674
    81  H    0.044925
    82  H    0.053366
    83  H    0.061857
    84  H    0.051873
    85  H    0.033253
    86  H    0.047646
    87  H    0.040778
    88  H    0.037798
    89  H    0.025139
    90  H    0.017351
    91  H    0.022875
    92  H    0.038947
    93  H    0.043403
    94  H    0.030767
    95  H    0.050603
    96  H    0.049707
    97  H    0.061167
    98  H    0.070073
    99  H    0.068094
   100  H    0.013555
   101  H    0.063155
   102  H    0.065207
   103  H    0.045300
   104  H    0.021041
   105  H    0.046791
   106  H    0.037297
   107  H    0.059687
   108  H    0.004387
   109  H    0.036077
   110  H    0.031323
   111  H    0.032255
   112  H    0.005676
   113  H   -0.005654
   114  H    0.015351
   115  H    0.028341
   116  H    0.021912
   117  H    0.027400
   118  H    0.013781
   119  H    0.016638
   120  H    0.021040
   121  H    0.020685
   122  H    0.014993
   123  H    0.011550
   124  H    0.024413
   125  H    0.009247
   126  H    0.033526
   127  H    0.022324
   128  H    0.016791
   129  H    0.013779
   130  H    0.012738
   131  H    0.014640
   132  H    0.013463
   133  H    0.012497
   134  H    0.023235
   135  H    0.030629
   136  H    0.029046
   137  H    0.025365
   138  H    0.037673
   139  H    0.027574
   140  H    0.031401
 Sum of Mulliken charges =  -0.00000

 Dipole moment (field-independent basis, Debye):
    X=              5.1191    Y=              1.6836    Z=             -0.2020  Tot=              5.3926
 Quadrupole moment (field-independent basis, Debye-Ang):
   XX=           -372.8890   YY=           -422.9805   ZZ=           -418.9401
   XY=            -18.0258   XZ=             11.9653   YZ=             -3.4603

 Normal termination of Gaussian 16 at Tue May  3 19:37:51 2022.
