 Gaussian 16, Revision A.03,
 Gaussian 16:  ES64L-G16RevA.03 25-Dec-2016

 --------------------
 #p ZINDO=(nstates=5)
 --------------------

 ------------------------------
 step_1001_chromophore_27 ZINDO
 ------------------------------
 Symbolic Z-matrix:
 Charge =  0 Multiplicity = 1

                         Standard orientation:
 ---------------------------------------------------------------------
 Center     Atomic      Atomic             Coordinates (Angstroms)
 Number     Number       Type             X           Y           Z
 ---------------------------------------------------------------------
      1         12           0       -4.476498    0.853779    0.200990
      2          6           0       -3.744751   -2.563637    0.263091
      3          6           0       -1.069139    1.488176    0.221784
      4          6           0       -5.155381    4.127061    0.149834
      5          6           0       -7.847825    0.146294    0.303885
      6          7           0       -2.642604   -0.421246    0.312419
      7          6           0       -2.612621   -1.754926    0.205140
      8          6           0       -1.248450   -2.268308   -0.210492
      9          6           0       -0.280940   -1.042871    0.050664
     10          6           0       -1.388959    0.095138    0.174696
     11          6           0        0.642313   -1.135123    1.274804
     12          6           0       -1.272603   -2.685445   -1.723862
     13          6           0       -0.517090   -4.038752   -1.925693
     14          6           0        1.030022   -3.908744   -2.309707
     15          8           0        1.434275   -4.065236   -3.453333
     16          8           0        1.791898   -3.651909   -1.219754
     17          7           0       -3.284184    2.525052    0.238379
     18          6           0       -1.915505    2.591943    0.244436
     19          6           0       -1.505411    3.968823    0.210015
     20          6           0       -2.633433    4.784812    0.181247
     21          6           0       -3.729685    3.802697    0.137327
     22          6           0       -0.028144    4.380177    0.187865
     23          6           0       -2.767899    6.305367    0.104564
     24          8           0       -3.860558    6.861120    0.027261
     25          6           0       -1.506697    7.072061    0.121852
     26          7           0       -6.256915    1.965323    0.318691
     27          6           0       -6.253955    3.286214    0.121935
     28          6           0       -7.722668    3.768518    0.242306
     29          6           0       -8.558851    2.479952    0.269972
     30          6           0       -7.462343    1.450341    0.156299
     31          6           0       -8.181643    4.698763    1.426736
     32          6           0       -9.625926    2.381584   -0.918043
     33          6           0      -11.097858    2.121549   -0.473597
     34          7           0       -5.569882   -0.884304    0.410327
     35          6           0       -6.944187   -0.970626    0.425361
     36          6           0       -7.252964   -2.408022    0.424656
     37          6           0       -6.100699   -3.065012    0.432366
     38          6           0       -5.069821   -2.112368    0.391247
     39          6           0       -8.643387   -2.963903    0.463516
     40          6           0       -5.416699   -4.355960    0.456152
     41          8           0       -5.988582   -5.400501    0.455876
     42          6           0       -3.834332   -4.066502    0.247129
     43          6           0       -3.229775   -4.875248    1.387292
     44          8           0       -3.345148   -4.629242    2.582113
     45          8           0       -2.511041   -5.923145    0.800938
     46          6           0       -1.652741   -6.636549    1.785875
     47          6           0        3.239052   -3.823016   -1.438537
     48          6           0        3.994511   -2.491883   -1.720594
     49          6           0        5.330117   -2.357737   -1.685011
     50          6           0        6.289666   -3.548628   -1.333982
     51          6           0        5.929770   -0.953773   -1.751445
     52          6           0        5.857866   -0.180810   -3.093801
     53          6           0        7.234303    0.380411   -3.579692
     54          6           0        7.309553    1.914670   -3.656504
     55          6           0        6.959754    2.370327   -5.074112
     56          6           0        8.719081    2.387906   -3.378501
     57          6           0        8.843490    2.685325   -1.851196
     58          6           0        9.983390    1.792210   -1.302978
     59          6           0        9.612795    1.334969    0.171569
     60          6           0        9.479345   -0.216097    0.127802
     61          6           0       10.680207    1.668878    1.217840
     62          6           0       10.102332    1.670790    2.647548
     63          6           0       10.366418    0.412615    3.491155
     64          6           0       10.506445    0.676020    5.003191
     65          6           0       11.775286   -0.002599    5.633784
     66          6           0        9.202328    0.326265    5.765555
     67          1           0        0.010341    1.595994    0.096501
     68          1           0       -5.467060    5.173766    0.163653
     69          1           0       -8.886949   -0.182126    0.229673
     70          1           0       -1.102784   -3.016471    0.567898
     71          1           0        0.373530   -0.814203   -0.790936
     72          1           0        1.559875   -0.700061    0.876858
     73          1           0        0.884644   -2.157026    1.565665
     74          1           0        0.369279   -0.549219    2.151909
     75          1           0       -0.756694   -1.886914   -2.257346
     76          1           0       -2.262497   -2.648251   -2.178247
     77          1           0       -1.071563   -4.554018   -2.710124
     78          1           0       -0.470986   -4.712578   -1.070574
     79          1           0        0.172682    5.052486   -0.646302
     80          1           0        0.690068    3.560952    0.221484
     81          1           0        0.177233    4.913381    1.116503
     82          1           0       -1.759120    8.126194    0.234805
     83          1           0       -0.984714    6.884228   -0.816490
     84          1           0       -0.847047    6.802212    0.946516
     85          1           0       -7.848942    4.296641   -0.702865
     86          1           0       -9.118747    2.290970    1.186168
     87          1           0       -8.350120    5.751218    1.198757
     88          1           0       -7.515331    4.760083    2.287072
     89          1           0       -9.097373    4.266443    1.832107
     90          1           0       -9.296549    1.580899   -1.580512
     91          1           0       -9.543189    3.169282   -1.667209
     92          1           0      -11.221180    2.396384    0.574351
     93          1           0      -11.426220    1.117008   -0.741231
     94          1           0      -11.801967    2.747769   -1.021953
     95          1           0       -9.145734   -2.690128    1.391540
     96          1           0       -8.451136   -4.023477    0.631012
     97          1           0       -9.106191   -2.695227   -0.486621
     98          1           0       -3.519422   -4.529203   -0.688367
     99          1           0       -1.940831   -6.782334    2.827517
    100          1           0       -0.923489   -5.849343    1.982133
    101          1           0       -0.982316   -7.425100    1.447146
    102          1           0        3.427870   -4.625790   -2.150388
    103          1           0        3.550960   -4.219852   -0.472245
    104          1           0        3.375035   -1.600274   -1.811917
    105          1           0        5.841298   -4.168608   -0.557428
    106          1           0        7.255048   -3.161713   -1.007393
    107          1           0        6.473755   -4.087734   -2.264057
    108          1           0        6.943442   -1.152175   -1.402066
    109          1           0        5.322024   -0.387890   -1.045478
    110          1           0        5.074077    0.574769   -3.033853
    111          1           0        5.642103   -0.965001   -3.819039
    112          1           0        7.559578    0.068451   -4.571929
    113          1           0        8.047937   -0.088533   -3.027152
    114          1           0        6.545785    2.401730   -3.049657
    115          1           0        6.484488    1.620809   -5.707145
    116          1           0        7.916724    2.657243   -5.508702
    117          1           0        6.298133    3.227315   -4.948833
    118          1           0        8.941051    3.277181   -3.968963
    119          1           0        9.440349    1.641630   -3.709430
    120          1           0        7.867870    2.605431   -1.371672
    121          1           0        9.091946    3.736728   -1.704379
    122          1           0       10.937884    2.310520   -1.391805
    123          1           0       10.147115    0.986565   -2.019426
    124          1           0        8.616812    1.640219    0.494100
    125          1           0        9.788580   -0.684469   -0.806893
    126          1           0        8.432587   -0.513121    0.186785
    127          1           0       10.135145   -0.791595    0.781551
    128          1           0       11.121646    2.623115    0.933071
    129          1           0       11.440321    0.888932    1.180950
    130          1           0        9.041886    1.923491    2.628270
    131          1           0       10.528569    2.536349    3.156630
    132          1           0       11.179523   -0.211918    3.120884
    133          1           0        9.474561   -0.188736    3.316110
    134          1           0       10.664547    1.745186    5.147437
    135          1           0       12.318926    0.660250    6.307532
    136          1           0       12.495827   -0.289703    4.868951
    137          1           0       11.415505   -0.855340    6.210565
    138          1           0        9.271924    0.753146    6.766031
    139          1           0        9.129179   -0.759453    5.831379
    140          1           0        8.352816    0.674924    5.177260
 ---------------------------------------------------------------------

 SCF Done:  E(RZINDO/S) =  -474.394025656     A.U. after   20 cycles

 Excitation energies and oscillator strengths:

 Excited State   1:      Singlet-A      1.2887 eV  962.11 nm  f=0.5817  <S**2>=0.000
     175 ->178        -0.19911
     176 ->177         0.66193
 This state for optimization and/or second-order correction.
 Total Energy, E(CIS/TDA) =  -474.346667884
 Copying the excited state density for this state as the 1-particle RhoCI density.

 Excited State   2:      Singlet-A      1.9506 eV  635.61 nm  f=0.0221  <S**2>=0.000
     175 ->177         0.52833
     176 ->178         0.44807

 Excited State   3:      Singlet-A      2.9295 eV  423.22 nm  f=0.0101  <S**2>=0.000
     167 ->179         0.11844
     168 ->177        -0.22546
     168 ->179         0.28084
     168 ->180        -0.10508
     168 ->182         0.17297
     168 ->186         0.12516
     169 ->177         0.14864
     169 ->179        -0.17093
     169 ->182        -0.10874
     170 ->177         0.19270
     170 ->179        -0.21274
     170 ->182        -0.13087

 Excited State   4:      Singlet-A      3.0625 eV  404.85 nm  f=1.0027  <S**2>=0.000
     175 ->177        -0.36060
     176 ->178         0.46290
     176 ->179         0.33305

 Excited State   5:      Singlet-A      3.1009 eV  399.84 nm  f=0.0234  <S**2>=0.000
     168 ->177         0.14484
     168 ->179         0.18736
     168 ->180         0.24794
     168 ->182        -0.10920
     168 ->186         0.13626
     169 ->177         0.17692
     169 ->179         0.22365
     169 ->180         0.30513
     169 ->182        -0.13599
     169 ->186         0.16193
     176 ->179        -0.18357

 The electronic state is 1-A.
 Alpha  occ. eigenvalues --   -1.87028  -1.83315  -1.81131  -1.73637  -1.71818
 Alpha  occ. eigenvalues --   -1.71266  -1.67075  -1.61647  -1.59858  -1.58508
 Alpha  occ. eigenvalues --   -1.54199  -1.52130  -1.49609  -1.47615  -1.46794
 Alpha  occ. eigenvalues --   -1.44859  -1.44388  -1.40499  -1.39345  -1.38817
 Alpha  occ. eigenvalues --   -1.36275  -1.35062  -1.33448  -1.31888  -1.28495
 Alpha  occ. eigenvalues --   -1.26728  -1.24580  -1.22254  -1.19596  -1.18748
 Alpha  occ. eigenvalues --   -1.17656  -1.15717  -1.15436  -1.14787  -1.13787
 Alpha  occ. eigenvalues --   -1.12845  -1.10800  -1.08964  -1.05730  -1.04032
 Alpha  occ. eigenvalues --   -1.02798  -1.01895  -0.99533  -0.97506  -0.97180
 Alpha  occ. eigenvalues --   -0.96408  -0.95602  -0.95160  -0.94522  -0.92926
 Alpha  occ. eigenvalues --   -0.90997  -0.90925  -0.89722  -0.88530  -0.87918
 Alpha  occ. eigenvalues --   -0.86408  -0.83986  -0.82911  -0.81789  -0.80086
 Alpha  occ. eigenvalues --   -0.79560  -0.78948  -0.76945  -0.76605  -0.75662
 Alpha  occ. eigenvalues --   -0.75317  -0.75219  -0.74609  -0.74088  -0.73930
 Alpha  occ. eigenvalues --   -0.73142  -0.72599  -0.71574  -0.71265  -0.70847
 Alpha  occ. eigenvalues --   -0.70324  -0.70034  -0.68844  -0.67907  -0.67790
 Alpha  occ. eigenvalues --   -0.67461  -0.67099  -0.66939  -0.66492  -0.65900
 Alpha  occ. eigenvalues --   -0.65711  -0.65428  -0.64696  -0.64083  -0.63572
 Alpha  occ. eigenvalues --   -0.63421  -0.62986  -0.62514  -0.61990  -0.61319
 Alpha  occ. eigenvalues --   -0.61013  -0.60745  -0.60540  -0.60403  -0.60337
 Alpha  occ. eigenvalues --   -0.60013  -0.58712  -0.58629  -0.58528  -0.58134
 Alpha  occ. eigenvalues --   -0.57785  -0.57188  -0.56923  -0.56830  -0.56759
 Alpha  occ. eigenvalues --   -0.55950  -0.55641  -0.55308  -0.55045  -0.54746
 Alpha  occ. eigenvalues --   -0.54217  -0.53987  -0.53715  -0.53547  -0.53243
 Alpha  occ. eigenvalues --   -0.53066  -0.52824  -0.52633  -0.52230  -0.51843
 Alpha  occ. eigenvalues --   -0.51778  -0.51504  -0.51481  -0.51157  -0.50904
 Alpha  occ. eigenvalues --   -0.50900  -0.50325  -0.50055  -0.49750  -0.49369
 Alpha  occ. eigenvalues --   -0.48804  -0.48359  -0.48113  -0.48064  -0.47869
 Alpha  occ. eigenvalues --   -0.47574  -0.47413  -0.47206  -0.47038  -0.46878
 Alpha  occ. eigenvalues --   -0.46559  -0.46175  -0.46036  -0.45642  -0.45270
 Alpha  occ. eigenvalues --   -0.44911  -0.44739  -0.44532  -0.44232  -0.44090
 Alpha  occ. eigenvalues --   -0.43219  -0.43033  -0.42616  -0.42286  -0.42266
 Alpha  occ. eigenvalues --   -0.41853  -0.41338  -0.40631  -0.39692  -0.38967
 Alpha  occ. eigenvalues --   -0.38397  -0.36609  -0.35382  -0.35204  -0.34660
 Alpha  occ. eigenvalues --   -0.34108  -0.33183  -0.32699  -0.32525  -0.26632
 Alpha  occ. eigenvalues --   -0.21598
 Alpha virt. eigenvalues --   -0.08061  -0.01931  -0.00255   0.01092   0.01738
 Alpha virt. eigenvalues --    0.02305   0.03012   0.03083   0.04315   0.04904
 Alpha virt. eigenvalues --    0.06274   0.06681   0.07307   0.07750   0.08021

 Mulliken charges:
               1
     1  Mg   0.421383
     2  C   -0.055914
     3  C   -0.066139
     4  C   -0.072680
     5  C   -0.082383
     6  N   -0.267305
     7  C    0.137144
     8  C   -0.001473
     9  C   -0.000034
    10  C    0.086188
    11  C   -0.049881
    12  C   -0.013634
    13  C   -0.000099
    14  C    0.462873
    15  O   -0.515361
    16  O   -0.266875
    17  N   -0.307574
    18  C    0.091345
    19  C    0.004586
    20  C   -0.059003
    21  C    0.130341
    22  C   -0.050213
    23  C    0.338058
    24  O   -0.524731
    25  C   -0.028198
    26  N   -0.255983
    27  C    0.116858
    28  C    0.006612
    29  C   -0.002114
    30  C    0.146548
    31  C   -0.054067
    32  C   -0.043360
    33  C   -0.058134
    34  N   -0.316079
    35  C    0.091110
    36  C    0.046533
    37  C   -0.033776
    38  C    0.115462
    39  C   -0.050021
    40  C    0.333964
    41  O   -0.489804
    42  C    0.053863
    43  C    0.487074
    44  O   -0.506675
    45  O   -0.263249
    46  C    0.052903
    47  C    0.102551
    48  C   -0.084498
    49  C   -0.014163
    50  C   -0.046339
    51  C   -0.027214
    52  C   -0.030612
    53  C   -0.038180
    54  C   -0.010700
    55  C   -0.065711
    56  C   -0.033765
    57  C   -0.044344
    58  C   -0.037612
    59  C   -0.013267
    60  C   -0.070665
    61  C   -0.028975
    62  C   -0.033930
    63  C   -0.029087
    64  C   -0.015259
    65  C   -0.061206
    66  C   -0.054356
    67  H    0.023825
    68  H    0.045231
    69  H    0.031731
    70  H    0.040234
    71  H    0.033076
    72  H    0.011786
    73  H    0.023752
    74  H    0.031164
    75  H    0.029116
    76  H    0.035453
    77  H    0.035388
    78  H    0.039574
    79  H    0.029839
    80  H    0.023788
    81  H    0.023730
    82  H    0.032598
    83  H    0.043101
    84  H    0.036710
    85  H    0.028355
    86  H    0.041996
    87  H    0.024478
    88  H    0.022915
    89  H    0.015675
    90  H    0.011749
    91  H    0.025021
    92  H    0.025265
    93  H    0.024782
    94  H    0.014054
    95  H    0.035913
    96  H    0.031207
    97  H    0.042889
    98  H    0.053790
    99  H    0.066362
   100  H    0.014257
   101  H    0.046853
   102  H    0.059017
   103  H    0.029375
   104  H    0.037794
   105  H    0.031168
   106  H    0.023045
   107  H    0.033273
   108  H    0.028225
   109  H    0.023678
   110  H    0.032344
   111  H    0.021406
   112  H    0.016397
   113  H    0.014655
   114  H    0.023244
   115  H    0.019075
   116  H    0.021125
   117  H    0.013962
   118  H    0.013345
   119  H    0.024392
   120  H    0.025679
   121  H    0.011821
   122  H    0.018655
   123  H    0.024796
   124  H    0.031598
   125  H    0.007880
   126  H    0.013976
   127  H    0.021294
   128  H    0.016070
   129  H    0.022023
   130  H    0.018913
   131  H    0.009054
   132  H    0.023230
   133  H    0.010858
   134  H    0.015462
   135  H    0.017049
   136  H    0.020404
   137  H    0.020409
   138  H    0.020796
   139  H    0.018073
   140  H    0.020026
 Sum of Mulliken charges =  -0.00000

 Dipole moment (field-independent basis, Debye):
    X=              5.6559    Y=              0.3619    Z=             -1.1581  Tot=              5.7846
 N-N= 4.425741945164D+03 E-N= 0.000000000000D+00  KE=-9.525349074784D+03
 Leave Link  601 at Tue May  3 19:51:59 2022, MaxMem=  6710886400 cpu:               2.0 elap:               0.1
 (Enter /sw/apps/gaussian-16.0/g16/l9999.exe)
 1\1\GINC-BP1-COMPUTE130\SP\RZINDO CIS\STO-3G\C55H74Mg1N4O6\OF15641\03-
 May-2022\0\\#p ZINDO=(nstates=5)\\step_1001_chromophore_27 ZINDO\\0,1\
 Mg,0,-5.827,24.512,27.3\C,0,-3.983,26.309,29.664\C,0,-6.855,22.398,29.
 847\C,0,-7.591,22.775,25.053\C,0,-4.666,26.583,24.802\N,0,-5.382,24.35
 5,29.486\C,0,-4.716,25.26,30.213\C,0,-5.03,25.154,31.692\C,0,-5.712,23
 .733,31.839\C,0,-6.037,23.48,30.3\C,0,-4.868,22.62,32.478\C,0,-5.996,2
 6.316,32.118\C,0,-5.54,26.928,33.482\C,0,-6.231,26.299,34.78\O,0,-7.13

 Normal termination of Gaussian 16 at Tue May  3 19:52:00 2022.
