 Gaussian 16, Revision A.03,
 Gaussian 16:  ES64L-G16RevA.03 25-Dec-2016

 ------------------------------
 #p blyp/Def2SVP td=(nstates=5)
 ------------------------------

 ---------------------------------------------------
 step_1251_chromophore_22 TDDFT with blyp functional
 ---------------------------------------------------
 Symbolic Z-matrix:
 Charge =  0 Multiplicity = 1

                         Standard orientation:
 ---------------------------------------------------------------------
 Center     Atomic      Atomic             Coordinates (Angstroms)
 Number     Number       Type             X           Y           Z
 ---------------------------------------------------------------------
      1         12           0        5.810576    0.575618   -0.226721
      2          6           0        3.865418   -2.125778   -0.425079
      3          6           0        3.546462    2.393343   -2.014938
      4          6           0        7.943008    3.261002   -0.093886
      5          6           0        8.570528   -1.481353    1.015020
      6          7           0        3.913038    0.175646   -1.061269
      7          6           0        3.229060   -0.999180   -0.934276
      8          6           0        1.864665   -0.997194   -1.586065
      9          6           0        1.966014    0.319381   -2.446423
     10          6           0        3.186263    1.067923   -1.769445
     11          6           0        2.291098    0.020871   -3.971077
     12          6           0        0.645733   -0.875783   -0.584509
     13          6           0       -0.508249   -1.858351   -0.803707
     14          6           0       -1.608903   -1.863072    0.294321
     15          8           0       -1.560680   -1.259465    1.356894
     16          8           0       -2.614184   -2.771546   -0.027264
     17          7           0        5.694332    2.585219   -0.744001
     18          6           0        4.657108    3.090302   -1.499455
     19          6           0        4.863222    4.519123   -1.609084
     20          6           0        6.080564    4.817438   -0.994177
     21          6           0        6.647586    3.504790   -0.617111
     22          6           0        3.798140    5.492751   -2.252707
     23          6           0        6.645214    6.181130   -0.655003
     24          8           0        7.638762    6.198262    0.058885
     25          6           0        5.970657    7.500030   -1.071453
     26          7           0        7.986527    0.763690    0.291945
     27          6           0        8.511182    2.019000    0.320244
     28          6           0        9.908402    2.051429    0.962695
     29          6           0       10.019467    0.583852    1.565793
     30          6           0        8.829391   -0.122623    0.851346
     31          6           0       11.021066    2.503776    0.025629
     32          6           0        9.957945    0.591850    3.127468
     33          6           0       11.003856   -0.361736    3.693820
     34          7           0        6.237542   -1.443836    0.102103
     35          6           0        7.338356   -2.144108    0.700560
     36          6           0        6.915827   -3.467074    0.901872
     37          6           0        5.546154   -3.563923    0.478245
     38          6           0        5.214978   -2.272784    0.047673
     39          6           0        7.888001   -4.633783    1.226838
     40          6           0        4.441356   -4.526410    0.281380
     41          8           0        4.276708   -5.669521    0.540582
     42          6           0        3.284921   -3.585235   -0.274800
     43          6           0        2.197659   -3.767686    0.662170
     44          8           0        2.138884   -3.201777    1.740216
     45          8           0        1.418587   -4.793133    0.319140
     46          6           0        0.224792   -5.100557    1.050721
     47          6           0       -3.756162   -2.864486    0.885648
     48          6           0       -5.100839   -2.524753    0.292608
     49          6           0       -6.278130   -3.199493    0.326323
     50          6           0       -6.604063   -4.590116    0.867714
     51          6           0       -7.551313   -2.434273   -0.130966
     52          6           0       -7.869450   -2.655422   -1.569127
     53          6           0       -8.194510   -1.288680   -2.393974
     54          6           0       -9.718325   -1.258656   -2.748572
     55          6           0       -9.910112   -1.791075   -4.132185
     56          6           0      -10.365905    0.173059   -2.447363
     57          6           0      -10.824146    0.204264   -0.945732
     58          6           0      -12.366810   -0.005465   -0.800038
     59          6           0      -13.132212    1.228744   -0.428841
     60          6           0      -14.591079    1.133995   -1.060076
     61          6           0      -13.248004    1.690127    1.061988
     62          6           0      -13.196325    3.217873    1.215400
     63          6           0      -13.801399    3.693841    2.536826
     64          6           0      -12.622375    3.771043    3.578061
     65          6           0      -13.132425    3.611797    5.048865
     66          6           0      -11.791036    4.997360    3.416062
     67          1           0        2.975777    2.995556   -2.723401
     68          1           0        8.567570    4.143964    0.058905
     69          1           0        9.321298   -2.087247    1.526485
     70          1           0        1.771758   -1.868875   -2.233455
     71          1           0        1.076879    0.948578   -2.399571
     72          1           0        3.241555    0.540044   -4.091598
     73          1           0        1.611757    0.616413   -4.582099
     74          1           0        2.255348   -1.029963   -4.260356
     75          1           0        0.178661    0.107491   -0.654342
     76          1           0        1.145025   -0.859947    0.384859
     77          1           0       -0.063471   -2.820880   -1.056646
     78          1           0       -1.028827   -1.666246   -1.742612
     79          1           0        2.798760    5.058174   -2.256380
     80          1           0        4.190180    5.765078   -3.232266
     81          1           0        3.704482    6.407118   -1.666582
     82          1           0        5.160754    7.829853   -0.420458
     83          1           0        5.539093    7.391420   -2.066263
     84          1           0        6.689496    8.312108   -1.171281
     85          1           0        9.926043    2.767323    1.784774
     86          1           0       10.860543    0.023548    1.156244
     87          1           0       11.906202    1.886423    0.180588
     88          1           0       11.206079    3.554476    0.249681
     89          1           0       10.713792    2.299910   -0.999954
     90          1           0        8.975101    0.294585    3.491712
     91          1           0       10.084100    1.565492    3.602246
     92          1           0       11.704918   -0.778185    2.970226
     93          1           0       10.590110   -1.114661    4.364199
     94          1           0       11.630855    0.342423    4.240157
     95          1           0        7.909579   -4.872761    2.291076
     96          1           0        8.879039   -4.365668    0.860325
     97          1           0        7.522714   -5.522840    0.713230
     98          1           0        2.965621   -3.958997   -1.247540
     99          1           0       -0.637719   -5.218477    0.394421
    100          1           0        0.011541   -4.350424    1.812422
    101          1           0        0.345426   -6.049599    1.572853
    102          1           0       -3.683699   -2.232342    1.770525
    103          1           0       -3.700894   -3.910086    1.190955
    104          1           0       -5.199416   -1.500239   -0.067886
    105          1           0       -5.704843   -5.163937    1.093833
    106          1           0       -7.243183   -5.157698    0.192038
    107          1           0       -7.096957   -4.426663    1.826436
    108          1           0       -7.477898   -1.366181    0.069558
    109          1           0       -8.382822   -2.758186    0.494111
    110          1           0       -8.599568   -3.464325   -1.527020
    111          1           0       -6.909116   -3.014266   -1.941330
    112          1           0       -7.544594   -1.367391   -3.265673
    113          1           0       -7.924329   -0.338233   -1.933611
    114          1           0      -10.259655   -1.960566   -2.113675
    115          1           0      -10.367298   -1.008154   -4.737346
    116          1           0      -10.658744   -2.582009   -4.167868
    117          1           0       -9.039438   -2.316093   -4.525895
    118          1           0      -11.233205    0.139340   -3.107035
    119          1           0       -9.736525    1.056324   -2.563111
    120          1           0      -10.467208    1.132661   -0.499619
    121          1           0      -10.297684   -0.579353   -0.400541
    122          1           0      -12.573218   -0.733003   -0.015540
    123          1           0      -12.747710   -0.553116   -1.662599
    124          1           0      -12.762365    2.020680   -1.079348
    125          1           0      -14.969710    0.143810   -0.803575
    126          1           0      -14.611405    1.283916   -2.138744
    127          1           0      -15.185942    1.950596   -0.650721
    128          1           0      -12.337971    1.335240    1.546249
    129          1           0      -14.165955    1.277840    1.480282
    130          1           0      -13.740001    3.710056    0.408515
    131          1           0      -12.139288    3.463006    1.120221
    132          1           0      -14.529365    3.041775    3.018249
    133          1           0      -14.171491    4.704117    2.364135
    134          1           0      -11.931282    2.956025    3.362790
    135          1           0      -12.794177    4.482008    5.611297
    136          1           0      -12.918024    2.636514    5.486055
    137          1           0      -14.218494    3.698685    5.013947
    138          1           0      -11.726509    5.661259    4.277730
    139          1           0      -12.172979    5.664839    2.642864
    140          1           0      -10.852617    4.606679    3.022014
 ---------------------------------------------------------------------

 SCF Done:  E(RB-LYP) =  -3007.38380400     A.U. after   20 cycles

 Excitation energies and oscillator strengths:

 Excited State   1:      Singlet-A      1.8357 eV  675.39 nm  f=0.2873  <S**2>=0.000
     245 -> 248       -0.17904
     246 -> 247        0.68532
     246 <- 247       -0.14299
 This state for optimization and/or second-order correction.
 Total Energy, E(TD-HF/TD-DFT) =  -3007.31634178
 Copying the excited state density for this state as the 1-particle RhoCI density.

 Excited State   2:      Singlet-A      2.0269 eV  611.71 nm  f=0.0768  <S**2>=0.000
     243 -> 247        0.30464
     244 -> 247        0.18905
     245 -> 247        0.56417
     246 -> 248        0.18083

 Excited State   3:      Singlet-A      2.0658 eV  600.18 nm  f=0.0004  <S**2>=0.000
     243 -> 247       -0.35789
     244 -> 247        0.60892

 Excited State   4:      Singlet-A      2.0873 eV  593.99 nm  f=0.0304  <S**2>=0.000
     243 -> 247        0.52671
     244 -> 247        0.30265
     245 -> 247       -0.32615
     246 -> 248       -0.12320

 Excited State   5:      Singlet-A      2.4222 eV  511.87 nm  f=0.0053  <S**2>=0.000
     240 -> 247        0.44930
     241 -> 247        0.14226
     242 -> 247        0.51593

 The electronic state is 1-A.
 Alpha  occ. eigenvalues --  -46.27082 -18.81918 -18.81394 -18.77236 -18.76159
 Alpha  occ. eigenvalues --  -18.75789 -18.74779 -14.03549 -14.02773 -14.01339
 Alpha  occ. eigenvalues --  -14.00135 -10.04610 -10.02442 -10.00440  -9.99765
 Alpha  occ. eigenvalues --   -9.97860  -9.96924  -9.96862  -9.96408  -9.96274
 Alpha  occ. eigenvalues --   -9.95901  -9.95854  -9.95815  -9.94963  -9.94456
 Alpha  occ. eigenvalues --   -9.94281  -9.94106  -9.94035  -9.94025  -9.93739
 Alpha  occ. eigenvalues --   -9.93614  -9.93564  -9.93362  -9.93155  -9.93037
 Alpha  occ. eigenvalues --   -9.92962  -9.92911  -9.92868  -9.92837  -9.92658
 Alpha  occ. eigenvalues --   -9.92637  -9.92627  -9.92623  -9.92430  -9.92198
 Alpha  occ. eigenvalues --   -9.92103  -9.91985  -9.91922  -9.91906  -9.91740
 Alpha  occ. eigenvalues --   -9.91666  -9.91636  -9.91591  -9.91414  -9.91412
 Alpha  occ. eigenvalues --   -9.91385  -9.91352  -9.91336  -9.91197  -9.91081
 Alpha  occ. eigenvalues --   -9.91059  -9.90718  -9.90717  -9.90541  -9.90513
 Alpha  occ. eigenvalues --   -9.90296  -2.91687  -1.72121  -1.71572  -1.71391
 Alpha  occ. eigenvalues --   -0.98252  -0.97145  -0.93489  -0.91913  -0.89791
 Alpha  occ. eigenvalues --   -0.88934  -0.86894  -0.86173  -0.85687  -0.84782
 Alpha  occ. eigenvalues --   -0.74246  -0.73616  -0.73140  -0.72406  -0.72083
 Alpha  occ. eigenvalues --   -0.71695  -0.71530  -0.70907  -0.70544  -0.70082
 Alpha  occ. eigenvalues --   -0.69194  -0.68920  -0.67859  -0.67436  -0.67213
 Alpha  occ. eigenvalues --   -0.66791  -0.65607  -0.65141  -0.64999  -0.64535
 Alpha  occ. eigenvalues --   -0.64310  -0.62540  -0.62219  -0.61494  -0.60423
 Alpha  occ. eigenvalues --   -0.60211  -0.60153  -0.59754  -0.59336  -0.59094
 Alpha  occ. eigenvalues --   -0.58487  -0.57584  -0.56413  -0.55289  -0.53796
 Alpha  occ. eigenvalues --   -0.53480  -0.53234  -0.52488  -0.52026  -0.51629
 Alpha  occ. eigenvalues --   -0.51593  -0.51399  -0.50752  -0.50035  -0.49802
 Alpha  occ. eigenvalues --   -0.49441  -0.49029  -0.48621  -0.48336  -0.46855
 Alpha  occ. eigenvalues --   -0.46319  -0.46027  -0.45539  -0.44887  -0.44418
 Alpha  occ. eigenvalues --   -0.43903  -0.43647  -0.42804  -0.42513  -0.42212
 Alpha  occ. eigenvalues --   -0.41737  -0.41574  -0.41191  -0.41124  -0.40936
 Alpha  occ. eigenvalues --   -0.40734  -0.40634  -0.40167  -0.40144  -0.40043
 Alpha  occ. eigenvalues --   -0.39737  -0.39601  -0.39583  -0.39213  -0.38772
 Alpha  occ. eigenvalues --   -0.38724  -0.38652  -0.38522  -0.38358  -0.38248
 Alpha  occ. eigenvalues --   -0.37844  -0.37773  -0.37568  -0.37503  -0.37440
 Alpha  occ. eigenvalues --   -0.37138  -0.37095  -0.36812  -0.36610  -0.36460
 Alpha  occ. eigenvalues --   -0.36393  -0.36354  -0.36025  -0.36020  -0.35761
 Alpha  occ. eigenvalues --   -0.35569  -0.35398  -0.35265  -0.34728  -0.34634
 Alpha  occ. eigenvalues --   -0.34600  -0.34337  -0.34190  -0.34125  -0.33954
 Alpha  occ. eigenvalues --   -0.33755  -0.33734  -0.33566  -0.33288  -0.33144
 Alpha  occ. eigenvalues --   -0.33140  -0.33014  -0.32605  -0.32095  -0.32027
 Alpha  occ. eigenvalues --   -0.31866  -0.31769  -0.31659  -0.31478  -0.31342
 Alpha  occ. eigenvalues --   -0.31203  -0.31009  -0.30906  -0.30762  -0.30638
 Alpha  occ. eigenvalues --   -0.30286  -0.30191  -0.29989  -0.29805  -0.29647
 Alpha  occ. eigenvalues --   -0.29480  -0.29172  -0.29148  -0.29097  -0.29073
 Alpha  occ. eigenvalues --   -0.28610  -0.28304  -0.27997  -0.27898  -0.27198
 Alpha  occ. eigenvalues --   -0.27048  -0.26796  -0.26750  -0.26676  -0.26308
 Alpha  occ. eigenvalues --   -0.26002  -0.25987  -0.25764  -0.25343  -0.25006
 Alpha  occ. eigenvalues --   -0.24664  -0.24266  -0.23990  -0.23963  -0.23715
 Alpha  occ. eigenvalues --   -0.22891  -0.22535  -0.22008  -0.20926  -0.20487
 Alpha  occ. eigenvalues --   -0.20455  -0.19990  -0.19039  -0.19014  -0.17222
 Alpha  occ. eigenvalues --   -0.15941
 Alpha virt. eigenvalues --   -0.11524  -0.06800  -0.05835  -0.04364  -0.03190
 Alpha virt. eigenvalues --   -0.02030  -0.01899  -0.01364  -0.01100   0.00488
 Alpha virt. eigenvalues --    0.01208   0.01787   0.02419   0.02626   0.03091

 Mulliken charges:
               1
     1  Mg   0.688115
     2  C    0.058300
     3  C   -0.087814
     4  C   -0.053025
     5  C   -0.051935
     6  N   -0.235606
     7  C   -0.042474
     8  C   -0.004609
     9  C   -0.038706
    10  C    0.061397
    11  C    0.132085
    12  C    0.136482
    13  C    0.078297
    14  C    0.120839
    15  O   -0.175765
    16  O   -0.289236
    17  N   -0.272776
    18  C    0.129624
    19  C   -0.147005
    20  C    0.042121
    21  C    0.091778
    22  C    0.153056
    23  C   -0.059843
    24  O   -0.167175
    25  C    0.118980
    26  N   -0.165348
    27  C    0.049030
    28  C   -0.043908
    29  C    0.036375
    30  C   -0.013135
    31  C    0.145157
    32  C    0.109647
    33  C    0.055196
    34  N   -0.276511
    35  C    0.103873
    36  C   -0.176716
    37  C    0.047707
    38  C    0.083472
    39  C    0.156801
    40  C   -0.030659
    41  O   -0.074649
    42  C    0.019204
    43  C    0.076782
    44  O   -0.187459
    45  O   -0.236499
    46  C    0.198566
    47  C    0.328021
    48  C   -0.074369
    49  C   -0.164534
    50  C    0.153819
    51  C    0.090291
    52  C    0.067415
    53  C    0.108177
    54  C   -0.098692
    55  C    0.140329
    56  C    0.101710
    57  C    0.058178
    58  C    0.126910
    59  C   -0.070268
    60  C    0.062144
    61  C    0.142344
    62  C    0.044172
    63  C    0.150097
    64  C   -0.167898
    65  C    0.129825
    66  C    0.123616
    67  H   -0.058627
    68  H   -0.040794
    69  H   -0.060676
    70  H   -0.026709
    71  H   -0.029092
    72  H   -0.006613
    73  H   -0.015056
    74  H    0.011134
    75  H   -0.023217
    76  H    0.009666
    77  H    0.005895
    78  H   -0.011197
    79  H   -0.000718
    80  H    0.016797
    81  H   -0.006902
    82  H    0.027915
    83  H   -0.017111
    84  H   -0.003817
    85  H   -0.020074
    86  H   -0.028662
    87  H   -0.016959
    88  H    0.009752
    89  H   -0.010496
    90  H   -0.018960
    91  H   -0.017021
    92  H   -0.008415
    93  H    0.003773
    94  H   -0.017217
    95  H    0.001713
    96  H   -0.003595
    97  H    0.005325
    98  H   -0.020061
    99  H    0.014467
   100  H    0.024666
   101  H    0.012093
   102  H    0.014097
   103  H   -0.021348
   104  H   -0.043299
   105  H   -0.017967
   106  H    0.000714
   107  H    0.006185
   108  H   -0.030023
   109  H   -0.039054
   110  H   -0.013124
   111  H   -0.027326
   112  H   -0.029055
   113  H   -0.029767
   114  H   -0.030205
   115  H   -0.020995
   116  H   -0.038030
   117  H   -0.016869
   118  H   -0.032592
   119  H   -0.021813
   120  H   -0.036040
   121  H   -0.028928
   122  H   -0.053695
   123  H   -0.041829
   124  H   -0.045975
   125  H   -0.013373
   126  H   -0.015611
   127  H   -0.022760
   128  H   -0.036722
   129  H   -0.027401
   130  H   -0.032278
   131  H   -0.029456
   132  H   -0.028361
   133  H   -0.035873
   134  H   -0.035510
   135  H   -0.023422
   136  H   -0.005753
   137  H   -0.030143
   138  H   -0.014810
   139  H   -0.032580
   140  H   -0.013532
 Sum of Mulliken charges =  -0.00000

 Dipole moment (field-independent basis, Debye):
    X=             -2.6438    Y=              2.3550    Z=             -3.2375  Tot=              4.7976
 Quadrupole moment (field-independent basis, Debye-Ang):
   XX=           -377.3499   YY=           -412.8486   ZZ=           -404.5443
   XY=             13.6398   XZ=              0.6307   YZ=             -6.2863

 Normal termination of Gaussian 16 at Wed Apr 27 17:53:54 2022.
