 Gaussian 16, Revision A.03,
 Gaussian 16:  ES64L-G16RevA.03 25-Dec-2016

 -----------------------------------
 #p cam-b3lyp/Def2SVP td=(nstates=5)
 -----------------------------------

 --------------------------------------------------------
 step_1251_chromophore_22 TDDFT with cam-b3lyp functional
 --------------------------------------------------------
 Symbolic Z-matrix:
 Charge =  0 Multiplicity = 1

                         Standard orientation:
 ---------------------------------------------------------------------
 Center     Atomic      Atomic             Coordinates (Angstroms)
 Number     Number       Type             X           Y           Z
 ---------------------------------------------------------------------
      1         12           0        5.810576    0.575618   -0.226721
      2          6           0        3.865418   -2.125778   -0.425079
      3          6           0        3.546462    2.393343   -2.014938
      4          6           0        7.943008    3.261002   -0.093886
      5          6           0        8.570528   -1.481353    1.015020
      6          7           0        3.913038    0.175646   -1.061269
      7          6           0        3.229060   -0.999180   -0.934276
      8          6           0        1.864665   -0.997194   -1.586065
      9          6           0        1.966014    0.319381   -2.446423
     10          6           0        3.186263    1.067923   -1.769445
     11          6           0        2.291098    0.020871   -3.971077
     12          6           0        0.645733   -0.875783   -0.584509
     13          6           0       -0.508249   -1.858351   -0.803707
     14          6           0       -1.608903   -1.863072    0.294321
     15          8           0       -1.560680   -1.259465    1.356894
     16          8           0       -2.614184   -2.771546   -0.027264
     17          7           0        5.694332    2.585219   -0.744001
     18          6           0        4.657108    3.090302   -1.499455
     19          6           0        4.863222    4.519123   -1.609084
     20          6           0        6.080564    4.817438   -0.994177
     21          6           0        6.647586    3.504790   -0.617111
     22          6           0        3.798140    5.492751   -2.252707
     23          6           0        6.645214    6.181130   -0.655003
     24          8           0        7.638762    6.198262    0.058885
     25          6           0        5.970657    7.500030   -1.071453
     26          7           0        7.986527    0.763690    0.291945
     27          6           0        8.511182    2.019000    0.320244
     28          6           0        9.908402    2.051429    0.962695
     29          6           0       10.019467    0.583852    1.565793
     30          6           0        8.829391   -0.122623    0.851346
     31          6           0       11.021066    2.503776    0.025629
     32          6           0        9.957945    0.591850    3.127468
     33          6           0       11.003856   -0.361736    3.693820
     34          7           0        6.237542   -1.443836    0.102103
     35          6           0        7.338356   -2.144108    0.700560
     36          6           0        6.915827   -3.467074    0.901872
     37          6           0        5.546154   -3.563923    0.478245
     38          6           0        5.214978   -2.272784    0.047673
     39          6           0        7.888001   -4.633783    1.226838
     40          6           0        4.441356   -4.526410    0.281380
     41          8           0        4.276708   -5.669521    0.540582
     42          6           0        3.284921   -3.585235   -0.274800
     43          6           0        2.197659   -3.767686    0.662170
     44          8           0        2.138884   -3.201777    1.740216
     45          8           0        1.418587   -4.793133    0.319140
     46          6           0        0.224792   -5.100557    1.050721
     47          6           0       -3.756162   -2.864486    0.885648
     48          6           0       -5.100839   -2.524753    0.292608
     49          6           0       -6.278130   -3.199493    0.326323
     50          6           0       -6.604063   -4.590116    0.867714
     51          6           0       -7.551313   -2.434273   -0.130966
     52          6           0       -7.869450   -2.655422   -1.569127
     53          6           0       -8.194510   -1.288680   -2.393974
     54          6           0       -9.718325   -1.258656   -2.748572
     55          6           0       -9.910112   -1.791075   -4.132185
     56          6           0      -10.365905    0.173059   -2.447363
     57          6           0      -10.824146    0.204264   -0.945732
     58          6           0      -12.366810   -0.005465   -0.800038
     59          6           0      -13.132212    1.228744   -0.428841
     60          6           0      -14.591079    1.133995   -1.060076
     61          6           0      -13.248004    1.690127    1.061988
     62          6           0      -13.196325    3.217873    1.215400
     63          6           0      -13.801399    3.693841    2.536826
     64          6           0      -12.622375    3.771043    3.578061
     65          6           0      -13.132425    3.611797    5.048865
     66          6           0      -11.791036    4.997360    3.416062
     67          1           0        2.975777    2.995556   -2.723401
     68          1           0        8.567570    4.143964    0.058905
     69          1           0        9.321298   -2.087247    1.526485
     70          1           0        1.771758   -1.868875   -2.233455
     71          1           0        1.076879    0.948578   -2.399571
     72          1           0        3.241555    0.540044   -4.091598
     73          1           0        1.611757    0.616413   -4.582099
     74          1           0        2.255348   -1.029963   -4.260356
     75          1           0        0.178661    0.107491   -0.654342
     76          1           0        1.145025   -0.859947    0.384859
     77          1           0       -0.063471   -2.820880   -1.056646
     78          1           0       -1.028827   -1.666246   -1.742612
     79          1           0        2.798760    5.058174   -2.256380
     80          1           0        4.190180    5.765078   -3.232266
     81          1           0        3.704482    6.407118   -1.666582
     82          1           0        5.160754    7.829853   -0.420458
     83          1           0        5.539093    7.391420   -2.066263
     84          1           0        6.689496    8.312108   -1.171281
     85          1           0        9.926043    2.767323    1.784774
     86          1           0       10.860543    0.023548    1.156244
     87          1           0       11.906202    1.886423    0.180588
     88          1           0       11.206079    3.554476    0.249681
     89          1           0       10.713792    2.299910   -0.999954
     90          1           0        8.975101    0.294585    3.491712
     91          1           0       10.084100    1.565492    3.602246
     92          1           0       11.704918   -0.778185    2.970226
     93          1           0       10.590110   -1.114661    4.364199
     94          1           0       11.630855    0.342423    4.240157
     95          1           0        7.909579   -4.872761    2.291076
     96          1           0        8.879039   -4.365668    0.860325
     97          1           0        7.522714   -5.522840    0.713230
     98          1           0        2.965621   -3.958997   -1.247540
     99          1           0       -0.637719   -5.218477    0.394421
    100          1           0        0.011541   -4.350424    1.812422
    101          1           0        0.345426   -6.049599    1.572853
    102          1           0       -3.683699   -2.232342    1.770525
    103          1           0       -3.700894   -3.910086    1.190955
    104          1           0       -5.199416   -1.500239   -0.067886
    105          1           0       -5.704843   -5.163937    1.093833
    106          1           0       -7.243183   -5.157698    0.192038
    107          1           0       -7.096957   -4.426663    1.826436
    108          1           0       -7.477898   -1.366181    0.069558
    109          1           0       -8.382822   -2.758186    0.494111
    110          1           0       -8.599568   -3.464325   -1.527020
    111          1           0       -6.909116   -3.014266   -1.941330
    112          1           0       -7.544594   -1.367391   -3.265673
    113          1           0       -7.924329   -0.338233   -1.933611
    114          1           0      -10.259655   -1.960566   -2.113675
    115          1           0      -10.367298   -1.008154   -4.737346
    116          1           0      -10.658744   -2.582009   -4.167868
    117          1           0       -9.039438   -2.316093   -4.525895
    118          1           0      -11.233205    0.139340   -3.107035
    119          1           0       -9.736525    1.056324   -2.563111
    120          1           0      -10.467208    1.132661   -0.499619
    121          1           0      -10.297684   -0.579353   -0.400541
    122          1           0      -12.573218   -0.733003   -0.015540
    123          1           0      -12.747710   -0.553116   -1.662599
    124          1           0      -12.762365    2.020680   -1.079348
    125          1           0      -14.969710    0.143810   -0.803575
    126          1           0      -14.611405    1.283916   -2.138744
    127          1           0      -15.185942    1.950596   -0.650721
    128          1           0      -12.337971    1.335240    1.546249
    129          1           0      -14.165955    1.277840    1.480282
    130          1           0      -13.740001    3.710056    0.408515
    131          1           0      -12.139288    3.463006    1.120221
    132          1           0      -14.529365    3.041775    3.018249
    133          1           0      -14.171491    4.704117    2.364135
    134          1           0      -11.931282    2.956025    3.362790
    135          1           0      -12.794177    4.482008    5.611297
    136          1           0      -12.918024    2.636514    5.486055
    137          1           0      -14.218494    3.698685    5.013947
    138          1           0      -11.726509    5.661259    4.277730
    139          1           0      -12.172979    5.664839    2.642864
    140          1           0      -10.852617    4.606679    3.022014
 ---------------------------------------------------------------------

 SCF Done:  E(RCAM-B3LYP) =  -3007.18031014     A.U. after   18 cycles

 Excitation energies and oscillator strengths:

 Excited State   1:      Singlet-A      1.7701 eV  700.44 nm  f=0.3699  <S**2>=0.000
     245 -> 248        0.17333
     246 -> 247        0.68610
     245 <- 248        0.10171
 This state for optimization and/or second-order correction.
 Total Energy, E(TD-HF/TD-DFT) =  -3007.11526090
 Copying the excited state density for this state as the 1-particle RhoCI density.

 Excited State   2:      Singlet-A      2.2508 eV  550.85 nm  f=0.1455  <S**2>=0.000
     245 -> 247        0.64748
     246 -> 248       -0.26559

 Excited State   3:      Singlet-A      3.3336 eV  371.93 nm  f=0.0065  <S**2>=0.000
     241 -> 247       -0.16453
     244 -> 247        0.67449

 Excited State   4:      Singlet-A      3.5460 eV  349.65 nm  f=0.1454  <S**2>=0.000
     239 -> 247        0.12645
     240 -> 247        0.20865
     241 -> 247        0.45626
     244 -> 247        0.11437
     245 -> 247        0.12164
     246 -> 248        0.42777

 Excited State   5:      Singlet-A      3.6213 eV  342.38 nm  f=0.0007  <S**2>=0.000
     239 -> 247        0.48323
     239 -> 248       -0.17052
     239 -> 249       -0.32457
     239 -> 250        0.15253
     240 -> 247       -0.25400
     240 -> 249        0.10492

 The electronic state is 1-A.
 Alpha  occ. eigenvalues --  -46.88563 -19.24773 -19.24213 -19.20226 -19.19504
 Alpha  occ. eigenvalues --  -19.18896 -19.17696 -14.42397 -14.41593 -14.40005
 Alpha  occ. eigenvalues --  -14.38192 -10.39987 -10.37649 -10.36091 -10.34703
 Alpha  occ. eigenvalues --  -10.31911 -10.31755 -10.31003 -10.30817 -10.30783
 Alpha  occ. eigenvalues --  -10.30739 -10.30592 -10.29753 -10.29192 -10.28651
 Alpha  occ. eigenvalues --  -10.28517 -10.28320 -10.28128 -10.28111 -10.27842
 Alpha  occ. eigenvalues --  -10.27803 -10.27680 -10.27554 -10.27391 -10.27171
 Alpha  occ. eigenvalues --  -10.27099 -10.27036 -10.26819 -10.26800 -10.26713
 Alpha  occ. eigenvalues --  -10.26568 -10.26498 -10.26490 -10.26449 -10.26054
 Alpha  occ. eigenvalues --  -10.25960 -10.25654 -10.25630 -10.25397 -10.25350
 Alpha  occ. eigenvalues --  -10.25335 -10.25324 -10.25323 -10.25119 -10.25101
 Alpha  occ. eigenvalues --  -10.25085 -10.25052 -10.24865 -10.24794 -10.24744
 Alpha  occ. eigenvalues --  -10.24736 -10.24363 -10.24196 -10.24144 -10.24064
 Alpha  occ. eigenvalues --  -10.23854  -3.17073  -1.91984  -1.91532  -1.91369
 Alpha  occ. eigenvalues --   -1.16697  -1.15579  -1.11564  -1.10786  -1.07625
 Alpha  occ. eigenvalues --   -1.06779  -1.04813  -1.03971  -1.03225  -1.01936
 Alpha  occ. eigenvalues --   -0.91081  -0.90483  -0.89968  -0.89158  -0.88796
 Alpha  occ. eigenvalues --   -0.88579  -0.88066  -0.87495  -0.87140  -0.86990
 Alpha  occ. eigenvalues --   -0.85542  -0.85081  -0.84101  -0.83428  -0.83307
 Alpha  occ. eigenvalues --   -0.82862  -0.81777  -0.81226  -0.80815  -0.80513
 Alpha  occ. eigenvalues --   -0.80104  -0.78576  -0.77738  -0.76850  -0.75679
 Alpha  occ. eigenvalues --   -0.75532  -0.75501  -0.75022  -0.74597  -0.74355
 Alpha  occ. eigenvalues --   -0.73538  -0.72473  -0.71278  -0.70086  -0.68352
 Alpha  occ. eigenvalues --   -0.68120  -0.67766  -0.66845  -0.66376  -0.65907
 Alpha  occ. eigenvalues --   -0.65858  -0.65395  -0.64708  -0.63989  -0.63788
 Alpha  occ. eigenvalues --   -0.63229  -0.62949  -0.62493  -0.61898  -0.60719
 Alpha  occ. eigenvalues --   -0.59915  -0.59540  -0.58989  -0.58224  -0.57794
 Alpha  occ. eigenvalues --   -0.57359  -0.57073  -0.56059  -0.55777  -0.55336
 Alpha  occ. eigenvalues --   -0.55027  -0.54517  -0.54104  -0.53874  -0.53680
 Alpha  occ. eigenvalues --   -0.53428  -0.53352  -0.53283  -0.53082  -0.52721
 Alpha  occ. eigenvalues --   -0.52498  -0.52401  -0.52381  -0.51921  -0.51545
 Alpha  occ. eigenvalues --   -0.51090  -0.50972  -0.50886  -0.50791  -0.50674
 Alpha  occ. eigenvalues --   -0.50507  -0.50132  -0.50031  -0.49956  -0.49811
 Alpha  occ. eigenvalues --   -0.49625  -0.49584  -0.49416  -0.49048  -0.48733
 Alpha  occ. eigenvalues --   -0.48502  -0.48409  -0.48378  -0.48168  -0.48054
 Alpha  occ. eigenvalues --   -0.47974  -0.47544  -0.47373  -0.46549  -0.46498
 Alpha  occ. eigenvalues --   -0.46372  -0.46229  -0.46012  -0.45815  -0.45772
 Alpha  occ. eigenvalues --   -0.45592  -0.45425  -0.45317  -0.45013  -0.44718
 Alpha  occ. eigenvalues --   -0.44703  -0.44668  -0.44182  -0.43882  -0.43711
 Alpha  occ. eigenvalues --   -0.43502  -0.43459  -0.43285  -0.43056  -0.42934
 Alpha  occ. eigenvalues --   -0.42782  -0.42643  -0.42389  -0.42276  -0.42043
 Alpha  occ. eigenvalues --   -0.41735  -0.41512  -0.41215  -0.41017  -0.40780
 Alpha  occ. eigenvalues --   -0.40567  -0.40501  -0.40366  -0.40240  -0.40168
 Alpha  occ. eigenvalues --   -0.40073  -0.39608  -0.39097  -0.38982  -0.38051
 Alpha  occ. eigenvalues --   -0.38033  -0.37672  -0.37610  -0.37461  -0.37143
 Alpha  occ. eigenvalues --   -0.36973  -0.36669  -0.36478  -0.36158  -0.36099
 Alpha  occ. eigenvalues --   -0.35341  -0.35230  -0.34713  -0.34658  -0.34270
 Alpha  occ. eigenvalues --   -0.33570  -0.33118  -0.32750  -0.31824  -0.31522
 Alpha  occ. eigenvalues --   -0.30542  -0.30277  -0.30167  -0.28794  -0.23950
 Alpha  occ. eigenvalues --   -0.21328
 Alpha virt. eigenvalues --   -0.08587  -0.01412   0.00537   0.02720   0.03336
 Alpha virt. eigenvalues --    0.04621   0.05443   0.05619   0.06428   0.06852
 Alpha virt. eigenvalues --    0.08222   0.08644   0.08750   0.08953   0.09422

 Mulliken charges:
               1
     1  Mg   0.820670
     2  C    0.036048
     3  C   -0.106381
     4  C   -0.067876
     5  C   -0.053271
     6  N   -0.309790
     7  C   -0.007016
     8  C   -0.056546
     9  C   -0.080420
    10  C    0.076312
    11  C    0.074758
    12  C    0.085663
    13  C    0.010785
    14  C    0.201490
    15  O   -0.216458
    16  O   -0.353804
    17  N   -0.363131
    18  C    0.143405
    19  C   -0.153489
    20  C   -0.021766
    21  C    0.117883
    22  C    0.097876
    23  C    0.014842
    24  O   -0.204721
    25  C    0.041728
    26  N   -0.234423
    27  C    0.067902
    28  C   -0.097548
    29  C   -0.019809
    30  C    0.004757
    31  C    0.086204
    32  C    0.054894
    33  C   -0.009837
    34  N   -0.363265
    35  C    0.094157
    36  C   -0.168505
    37  C   -0.035203
    38  C    0.118972
    39  C    0.105437
    40  C    0.067688
    41  O   -0.116362
    42  C   -0.055527
    43  C    0.159480
    44  O   -0.223522
    45  O   -0.298750
    46  C    0.162452
    47  C    0.292533
    48  C   -0.095861
    49  C   -0.189188
    50  C    0.094256
    51  C    0.033376
    52  C    0.012186
    53  C    0.053808
    54  C   -0.149803
    55  C    0.077445
    56  C    0.048564
    57  C    0.005866
    58  C    0.071778
    59  C   -0.126587
    60  C    0.011400
    61  C    0.089129
    62  C   -0.010620
    63  C    0.089011
    64  C   -0.221370
    65  C    0.069939
    66  C    0.060936
    67  H   -0.022500
    68  H    0.000516
    69  H   -0.025414
    70  H    0.007337
    71  H    0.005656
    72  H    0.019285
    73  H    0.009754
    74  H    0.035598
    75  H    0.005756
    76  H    0.043083
    77  H    0.033744
    78  H    0.021566
    79  H    0.028436
    80  H    0.044472
    81  H    0.020852
    82  H    0.056537
    83  H    0.012136
    84  H    0.031715
    85  H    0.014993
    86  H    0.005360
    87  H    0.009189
    88  H    0.031632
    89  H    0.015553
    90  H    0.011555
    91  H    0.010232
    92  H    0.014223
    93  H    0.027679
    94  H    0.006197
    95  H    0.026026
    96  H    0.018070
    97  H    0.029618
    98  H    0.022575
    99  H    0.033932
   100  H    0.049459
   101  H    0.035331
   102  H    0.047565
   103  H    0.006184
   104  H   -0.010953
   105  H    0.007014
   106  H    0.024195
   107  H    0.030522
   108  H   -0.000398
   109  H   -0.009560
   110  H    0.012026
   111  H    0.004311
   112  H    0.000715
   113  H   -0.002491
   114  H   -0.000167
   115  H    0.003915
   116  H   -0.012015
   117  H    0.008358
   118  H   -0.005640
   119  H    0.006385
   120  H   -0.008147
   121  H   -0.003406
   122  H   -0.023118
   123  H   -0.011482
   124  H   -0.014392
   125  H    0.008739
   126  H    0.008296
   127  H    0.000596
   128  H   -0.009673
   129  H    0.000625
   130  H   -0.004243
   131  H   -0.002695
   132  H    0.000659
   133  H   -0.005591
   134  H   -0.004343
   135  H    0.000845
   136  H    0.018208
   137  H   -0.006118
   138  H    0.010436
   139  H   -0.007657
   140  H    0.009567
 Sum of Mulliken charges =  -0.00000

 Dipole moment (field-independent basis, Debye):
    X=             -2.9722    Y=              3.8926    Z=             -3.8335  Tot=              6.2195
 Quadrupole moment (field-independent basis, Debye-Ang):
   XX=           -377.9826   YY=           -406.6217   ZZ=           -403.9634
   XY=             22.2088   XZ=             -1.3139   YZ=             -8.1398

 Normal termination of Gaussian 16 at Wed Apr 27 16:56:03 2022.
