 Gaussian 16, Revision A.03,
 Gaussian 16:  ES64L-G16RevA.03 25-Dec-2016

 ---------------------------------
 #p PBE1PBE/Def2SVP td=(nstates=5)
 ---------------------------------

 ------------------------------------------------------
 step_1251_chromophore_22 TDDFT with PBE1PBE functional
 ------------------------------------------------------
 Symbolic Z-matrix:
 Charge =  0 Multiplicity = 1

                         Standard orientation:
 ---------------------------------------------------------------------
 Center     Atomic      Atomic             Coordinates (Angstroms)
 Number     Number       Type             X           Y           Z
 ---------------------------------------------------------------------
      1         12           0        5.810576    0.575618   -0.226721
      2          6           0        3.865418   -2.125778   -0.425079
      3          6           0        3.546462    2.393343   -2.014938
      4          6           0        7.943008    3.261002   -0.093886
      5          6           0        8.570528   -1.481353    1.015020
      6          7           0        3.913038    0.175646   -1.061269
      7          6           0        3.229060   -0.999180   -0.934276
      8          6           0        1.864665   -0.997194   -1.586065
      9          6           0        1.966014    0.319381   -2.446423
     10          6           0        3.186263    1.067923   -1.769445
     11          6           0        2.291098    0.020871   -3.971077
     12          6           0        0.645733   -0.875783   -0.584509
     13          6           0       -0.508249   -1.858351   -0.803707
     14          6           0       -1.608903   -1.863072    0.294321
     15          8           0       -1.560680   -1.259465    1.356894
     16          8           0       -2.614184   -2.771546   -0.027264
     17          7           0        5.694332    2.585219   -0.744001
     18          6           0        4.657108    3.090302   -1.499455
     19          6           0        4.863222    4.519123   -1.609084
     20          6           0        6.080564    4.817438   -0.994177
     21          6           0        6.647586    3.504790   -0.617111
     22          6           0        3.798140    5.492751   -2.252707
     23          6           0        6.645214    6.181130   -0.655003
     24          8           0        7.638762    6.198262    0.058885
     25          6           0        5.970657    7.500030   -1.071453
     26          7           0        7.986527    0.763690    0.291945
     27          6           0        8.511182    2.019000    0.320244
     28          6           0        9.908402    2.051429    0.962695
     29          6           0       10.019467    0.583852    1.565793
     30          6           0        8.829391   -0.122623    0.851346
     31          6           0       11.021066    2.503776    0.025629
     32          6           0        9.957945    0.591850    3.127468
     33          6           0       11.003856   -0.361736    3.693820
     34          7           0        6.237542   -1.443836    0.102103
     35          6           0        7.338356   -2.144108    0.700560
     36          6           0        6.915827   -3.467074    0.901872
     37          6           0        5.546154   -3.563923    0.478245
     38          6           0        5.214978   -2.272784    0.047673
     39          6           0        7.888001   -4.633783    1.226838
     40          6           0        4.441356   -4.526410    0.281380
     41          8           0        4.276708   -5.669521    0.540582
     42          6           0        3.284921   -3.585235   -0.274800
     43          6           0        2.197659   -3.767686    0.662170
     44          8           0        2.138884   -3.201777    1.740216
     45          8           0        1.418587   -4.793133    0.319140
     46          6           0        0.224792   -5.100557    1.050721
     47          6           0       -3.756162   -2.864486    0.885648
     48          6           0       -5.100839   -2.524753    0.292608
     49          6           0       -6.278130   -3.199493    0.326323
     50          6           0       -6.604063   -4.590116    0.867714
     51          6           0       -7.551313   -2.434273   -0.130966
     52          6           0       -7.869450   -2.655422   -1.569127
     53          6           0       -8.194510   -1.288680   -2.393974
     54          6           0       -9.718325   -1.258656   -2.748572
     55          6           0       -9.910112   -1.791075   -4.132185
     56          6           0      -10.365905    0.173059   -2.447363
     57          6           0      -10.824146    0.204264   -0.945732
     58          6           0      -12.366810   -0.005465   -0.800038
     59          6           0      -13.132212    1.228744   -0.428841
     60          6           0      -14.591079    1.133995   -1.060076
     61          6           0      -13.248004    1.690127    1.061988
     62          6           0      -13.196325    3.217873    1.215400
     63          6           0      -13.801399    3.693841    2.536826
     64          6           0      -12.622375    3.771043    3.578061
     65          6           0      -13.132425    3.611797    5.048865
     66          6           0      -11.791036    4.997360    3.416062
     67          1           0        2.975777    2.995556   -2.723401
     68          1           0        8.567570    4.143964    0.058905
     69          1           0        9.321298   -2.087247    1.526485
     70          1           0        1.771758   -1.868875   -2.233455
     71          1           0        1.076879    0.948578   -2.399571
     72          1           0        3.241555    0.540044   -4.091598
     73          1           0        1.611757    0.616413   -4.582099
     74          1           0        2.255348   -1.029963   -4.260356
     75          1           0        0.178661    0.107491   -0.654342
     76          1           0        1.145025   -0.859947    0.384859
     77          1           0       -0.063471   -2.820880   -1.056646
     78          1           0       -1.028827   -1.666246   -1.742612
     79          1           0        2.798760    5.058174   -2.256380
     80          1           0        4.190180    5.765078   -3.232266
     81          1           0        3.704482    6.407118   -1.666582
     82          1           0        5.160754    7.829853   -0.420458
     83          1           0        5.539093    7.391420   -2.066263
     84          1           0        6.689496    8.312108   -1.171281
     85          1           0        9.926043    2.767323    1.784774
     86          1           0       10.860543    0.023548    1.156244
     87          1           0       11.906202    1.886423    0.180588
     88          1           0       11.206079    3.554476    0.249681
     89          1           0       10.713792    2.299910   -0.999954
     90          1           0        8.975101    0.294585    3.491712
     91          1           0       10.084100    1.565492    3.602246
     92          1           0       11.704918   -0.778185    2.970226
     93          1           0       10.590110   -1.114661    4.364199
     94          1           0       11.630855    0.342423    4.240157
     95          1           0        7.909579   -4.872761    2.291076
     96          1           0        8.879039   -4.365668    0.860325
     97          1           0        7.522714   -5.522840    0.713230
     98          1           0        2.965621   -3.958997   -1.247540
     99          1           0       -0.637719   -5.218477    0.394421
    100          1           0        0.011541   -4.350424    1.812422
    101          1           0        0.345426   -6.049599    1.572853
    102          1           0       -3.683699   -2.232342    1.770525
    103          1           0       -3.700894   -3.910086    1.190955
    104          1           0       -5.199416   -1.500239   -0.067886
    105          1           0       -5.704843   -5.163937    1.093833
    106          1           0       -7.243183   -5.157698    0.192038
    107          1           0       -7.096957   -4.426663    1.826436
    108          1           0       -7.477898   -1.366181    0.069558
    109          1           0       -8.382822   -2.758186    0.494111
    110          1           0       -8.599568   -3.464325   -1.527020
    111          1           0       -6.909116   -3.014266   -1.941330
    112          1           0       -7.544594   -1.367391   -3.265673
    113          1           0       -7.924329   -0.338233   -1.933611
    114          1           0      -10.259655   -1.960566   -2.113675
    115          1           0      -10.367298   -1.008154   -4.737346
    116          1           0      -10.658744   -2.582009   -4.167868
    117          1           0       -9.039438   -2.316093   -4.525895
    118          1           0      -11.233205    0.139340   -3.107035
    119          1           0       -9.736525    1.056324   -2.563111
    120          1           0      -10.467208    1.132661   -0.499619
    121          1           0      -10.297684   -0.579353   -0.400541
    122          1           0      -12.573218   -0.733003   -0.015540
    123          1           0      -12.747710   -0.553116   -1.662599
    124          1           0      -12.762365    2.020680   -1.079348
    125          1           0      -14.969710    0.143810   -0.803575
    126          1           0      -14.611405    1.283916   -2.138744
    127          1           0      -15.185942    1.950596   -0.650721
    128          1           0      -12.337971    1.335240    1.546249
    129          1           0      -14.165955    1.277840    1.480282
    130          1           0      -13.740001    3.710056    0.408515
    131          1           0      -12.139288    3.463006    1.120221
    132          1           0      -14.529365    3.041775    3.018249
    133          1           0      -14.171491    4.704117    2.364135
    134          1           0      -11.931282    2.956025    3.362790
    135          1           0      -12.794177    4.482008    5.611297
    136          1           0      -12.918024    2.636514    5.486055
    137          1           0      -14.218494    3.698685    5.013947
    138          1           0      -11.726509    5.661259    4.277730
    139          1           0      -12.172979    5.664839    2.642864
    140          1           0      -10.852617    4.606679    3.022014
 ---------------------------------------------------------------------

 SCF Done:  E(RPBE1PBE) =  -3005.36716176     A.U. after   16 cycles

 Excitation energies and oscillator strengths:

 Excited State   1:      Singlet-A      1.8940 eV  654.61 nm  f=0.3576  <S**2>=0.000
     245 -> 248        0.16902
     246 -> 247        0.69165
     246 <- 247       -0.10185
 This state for optimization and/or second-order correction.
 Total Energy, E(TD-HF/TD-DFT) =  -3005.29755822
 Copying the excited state density for this state as the 1-particle RhoCI density.

 Excited State   2:      Singlet-A      2.2536 eV  550.16 nm  f=0.1379  <S**2>=0.000
     245 -> 247        0.65665
     246 -> 248       -0.24248

 Excited State   3:      Singlet-A      2.9585 eV  419.08 nm  f=0.0063  <S**2>=0.000
     244 -> 247        0.69679

 Excited State   4:      Singlet-A      3.1075 eV  398.98 nm  f=0.0002  <S**2>=0.000
     242 -> 247        0.67766
     242 -> 249        0.11420
     243 -> 247        0.10961

 Excited State   5:      Singlet-A      3.1634 eV  391.93 nm  f=0.0000  <S**2>=0.000
     240 -> 247        0.58235
     240 -> 248       -0.11305
     240 -> 249       -0.16166
     241 -> 247        0.31116

 The electronic state is 1-A.
 Alpha  occ. eigenvalues --  -46.91978 -19.25492 -19.24900 -19.20510 -19.19435
 Alpha  occ. eigenvalues --  -19.19382 -19.17990 -14.41928 -14.41090 -14.39501
 Alpha  occ. eigenvalues --  -14.38072 -10.37038 -10.34689 -10.32966 -10.32097
 Alpha  occ. eigenvalues --  -10.29317 -10.29218 -10.28550 -10.28506 -10.28104
 Alpha  occ. eigenvalues --  -10.28085 -10.28039 -10.27756 -10.26705 -10.26516
 Alpha  occ. eigenvalues --  -10.26412 -10.26183 -10.25806 -10.25638 -10.25626
 Alpha  occ. eigenvalues --  -10.25500 -10.25308 -10.25126 -10.24945 -10.24935
 Alpha  occ. eigenvalues --  -10.24893 -10.24853 -10.24596 -10.24482 -10.24161
 Alpha  occ. eigenvalues --  -10.24148 -10.24016 -10.23954 -10.23910 -10.23678
 Alpha  occ. eigenvalues --  -10.23612 -10.23352 -10.23282 -10.23025 -10.23008
 Alpha  occ. eigenvalues --  -10.22958 -10.22908 -10.22830 -10.22723 -10.22671
 Alpha  occ. eigenvalues --  -10.22646 -10.22640 -10.22395 -10.22363 -10.22302
 Alpha  occ. eigenvalues --  -10.22301 -10.22285 -10.21777 -10.21542 -10.21444
 Alpha  occ. eigenvalues --  -10.21228  -3.14069  -1.86922  -1.86447  -1.86288
 Alpha  occ. eigenvalues --   -1.11547  -1.10398  -1.06600  -1.05249  -1.02512
 Alpha  occ. eigenvalues --   -1.01644  -0.99306  -0.98519  -0.97905  -0.96863
 Alpha  occ. eigenvalues --   -0.85551  -0.84600  -0.84049  -0.83392  -0.82908
 Alpha  occ. eigenvalues --   -0.82765  -0.82374  -0.81609  -0.81407  -0.81129
 Alpha  occ. eigenvalues --   -0.79899  -0.79487  -0.78289  -0.77806  -0.77607
 Alpha  occ. eigenvalues --   -0.77068  -0.75873  -0.75429  -0.75096  -0.74752
 Alpha  occ. eigenvalues --   -0.74289  -0.72630  -0.72060  -0.71257  -0.70088
 Alpha  occ. eigenvalues --   -0.69729  -0.69614  -0.69366  -0.68764  -0.68494
 Alpha  occ. eigenvalues --   -0.67848  -0.66997  -0.65727  -0.64394  -0.62640
 Alpha  occ. eigenvalues --   -0.62553  -0.61995  -0.61365  -0.60599  -0.60276
 Alpha  occ. eigenvalues --   -0.60075  -0.59864  -0.59314  -0.58592  -0.57994
 Alpha  occ. eigenvalues --   -0.57675  -0.57120  -0.56659  -0.56537  -0.55130
 Alpha  occ. eigenvalues --   -0.54388  -0.53933  -0.53624  -0.52840  -0.52453
 Alpha  occ. eigenvalues --   -0.51878  -0.51595  -0.50468  -0.50286  -0.49908
 Alpha  occ. eigenvalues --   -0.49598  -0.49051  -0.48656  -0.48291  -0.48092
 Alpha  occ. eigenvalues --   -0.47952  -0.47868  -0.47787  -0.47500  -0.47209
 Alpha  occ. eigenvalues --   -0.47176  -0.46960  -0.46783  -0.46493  -0.46015
 Alpha  occ. eigenvalues --   -0.45617  -0.45608  -0.45538  -0.45391  -0.45168
 Alpha  occ. eigenvalues --   -0.44987  -0.44623  -0.44614  -0.44493  -0.44434
 Alpha  occ. eigenvalues --   -0.44152  -0.44116  -0.43959  -0.43623  -0.43317
 Alpha  occ. eigenvalues --   -0.43161  -0.42986  -0.42921  -0.42830  -0.42674
 Alpha  occ. eigenvalues --   -0.42576  -0.42163  -0.42007  -0.41335  -0.41054
 Alpha  occ. eigenvalues --   -0.40975  -0.40927  -0.40768  -0.40582  -0.40446
 Alpha  occ. eigenvalues --   -0.40314  -0.40202  -0.40001  -0.39828  -0.39600
 Alpha  occ. eigenvalues --   -0.39552  -0.39371  -0.38974  -0.38554  -0.38456
 Alpha  occ. eigenvalues --   -0.38275  -0.38199  -0.38103  -0.37818  -0.37647
 Alpha  occ. eigenvalues --   -0.37508  -0.37377  -0.37244  -0.37130  -0.36938
 Alpha  occ. eigenvalues --   -0.36629  -0.36400  -0.36207  -0.35711  -0.35541
 Alpha  occ. eigenvalues --   -0.35399  -0.35338  -0.35239  -0.35083  -0.35019
 Alpha  occ. eigenvalues --   -0.34919  -0.34370  -0.33998  -0.33771  -0.32969
 Alpha  occ. eigenvalues --   -0.32841  -0.32704  -0.32359  -0.32280  -0.32197
 Alpha  occ. eigenvalues --   -0.32020  -0.31482  -0.31339  -0.31197  -0.31046
 Alpha  occ. eigenvalues --   -0.30273  -0.30221  -0.29649  -0.29499  -0.29249
 Alpha  occ. eigenvalues --   -0.28853  -0.28717  -0.27602  -0.27052  -0.26298
 Alpha  occ. eigenvalues --   -0.25989  -0.25507  -0.25476  -0.24742  -0.20880
 Alpha  occ. eigenvalues --   -0.18907
 Alpha virt. eigenvalues --   -0.11094  -0.05012  -0.03602  -0.01736  -0.00004
 Alpha virt. eigenvalues --    0.00530   0.01034   0.01430   0.01860   0.03303
 Alpha virt. eigenvalues --    0.03958   0.04926   0.05365   0.05638   0.06012

 Mulliken charges:
               1
     1  Mg   0.969600
     2  C    0.027353
     3  C   -0.091464
     4  C   -0.047906
     5  C   -0.051046
     6  N   -0.416461
     7  C    0.066032
     8  C   -0.134006
     9  C   -0.148645
    10  C    0.104119
    11  C    0.017865
    12  C    0.045404
    13  C   -0.066328
    14  C    0.268190
    15  O   -0.250124
    16  O   -0.384198
    17  N   -0.479850
    18  C    0.156356
    19  C   -0.175886
    20  C   -0.073076
    21  C    0.144301
    22  C    0.035638
    23  C    0.063335
    24  O   -0.242187
    25  C   -0.029577
    26  N   -0.339548
    27  C    0.094382
    28  C   -0.170997
    29  C   -0.098295
    30  C    0.049193
    31  C    0.028666
    32  C    0.000950
    33  C   -0.082833
    34  N   -0.487887
    35  C    0.116390
    36  C   -0.178638
    37  C   -0.079611
    38  C    0.172447
    39  C    0.049221
    40  C    0.155624
    41  O   -0.161578
    42  C   -0.154946
    43  C    0.254437
    44  O   -0.259411
    45  O   -0.335161
    46  C    0.110020
    47  C    0.249562
    48  C   -0.107247
    49  C   -0.236587
    50  C    0.029913
    51  C   -0.023825
    52  C   -0.052257
    53  C    0.001770
    54  C   -0.233226
    55  C    0.018864
    56  C   -0.008745
    57  C   -0.059486
    58  C    0.019822
    59  C   -0.208025
    60  C   -0.049997
    61  C    0.032273
    62  C   -0.077243
    63  C    0.026788
    64  C   -0.311683
    65  C    0.007992
    66  C    0.005697
    67  H    0.009429
    68  H    0.031485
    69  H    0.007473
    70  H    0.043678
    71  H    0.040466
    72  H    0.048856
    73  H    0.037697
    74  H    0.060480
    75  H    0.038802
    76  H    0.074271
    77  H    0.065934
    78  H    0.054106
    79  H    0.052952
    80  H    0.071467
    81  H    0.048906
    82  H    0.081126
    83  H    0.039490
    84  H    0.058026
    85  H    0.051817
    86  H    0.041908
    87  H    0.037034
    88  H    0.057953
    89  H    0.044082
    90  H    0.044266
    91  H    0.041853
    92  H    0.040798
    93  H    0.054626
    94  H    0.034987
    95  H    0.055505
    96  H    0.045540
    97  H    0.058585
    98  H    0.060174
    99  H    0.055467
   100  H    0.070011
   101  H    0.057449
   102  H    0.074492
   103  H    0.033972
   104  H    0.019154
   105  H    0.034796
   106  H    0.051412
   107  H    0.058753
   108  H    0.031140
   109  H    0.022955
   110  H    0.042139
   111  H    0.039799
   112  H    0.032879
   113  H    0.028010
   114  H    0.038268
   115  H    0.031123
   116  H    0.016211
   117  H    0.035198
   118  H    0.027774
   119  H    0.037531
   120  H    0.024162
   121  H    0.032031
   122  H    0.010457
   123  H    0.019617
   124  H    0.025131
   125  H    0.036849
   126  H    0.036314
   127  H    0.029265
   128  H    0.024471
   129  H    0.032121
   130  H    0.027982
   131  H    0.031210
   132  H    0.032572
   133  H    0.027877
   134  H    0.035346
   135  H    0.028288
   136  H    0.045272
   137  H    0.021841
   138  H    0.036854
   139  H    0.019842
   140  H    0.035967
 Sum of Mulliken charges =  -0.00000

 Dipole moment (field-independent basis, Debye):
    X=             -2.8615    Y=              3.1603    Z=             -3.6132  Tot=              5.5885
 Quadrupole moment (field-independent basis, Debye-Ang):
   XX=           -370.8459   YY=           -404.8901   ZZ=           -401.2711
   XY=             17.9255   XZ=              1.1147   YZ=             -7.9889

 Normal termination of Gaussian 16 at Wed Apr 27 17:12:26 2022.
