 Gaussian 16, Revision A.03,
 Gaussian 16:  ES64L-G16RevA.03 25-Dec-2016

 --------------------------------
 #p wB97XD/Def2SVP td=(nstates=5)
 --------------------------------

 -----------------------------------------------------
 step_1251_chromophore_22 TDDFT with wB97XD functional
 -----------------------------------------------------
 Symbolic Z-matrix:
 Charge =  0 Multiplicity = 1

                         Standard orientation:
 ---------------------------------------------------------------------
 Center     Atomic      Atomic             Coordinates (Angstroms)
 Number     Number       Type             X           Y           Z
 ---------------------------------------------------------------------
      1         12           0        5.810576    0.575618   -0.226721
      2          6           0        3.865418   -2.125778   -0.425079
      3          6           0        3.546462    2.393343   -2.014938
      4          6           0        7.943008    3.261002   -0.093886
      5          6           0        8.570528   -1.481353    1.015020
      6          7           0        3.913038    0.175646   -1.061269
      7          6           0        3.229060   -0.999180   -0.934276
      8          6           0        1.864665   -0.997194   -1.586065
      9          6           0        1.966014    0.319381   -2.446423
     10          6           0        3.186263    1.067923   -1.769445
     11          6           0        2.291098    0.020871   -3.971077
     12          6           0        0.645733   -0.875783   -0.584509
     13          6           0       -0.508249   -1.858351   -0.803707
     14          6           0       -1.608903   -1.863072    0.294321
     15          8           0       -1.560680   -1.259465    1.356894
     16          8           0       -2.614184   -2.771546   -0.027264
     17          7           0        5.694332    2.585219   -0.744001
     18          6           0        4.657108    3.090302   -1.499455
     19          6           0        4.863222    4.519123   -1.609084
     20          6           0        6.080564    4.817438   -0.994177
     21          6           0        6.647586    3.504790   -0.617111
     22          6           0        3.798140    5.492751   -2.252707
     23          6           0        6.645214    6.181130   -0.655003
     24          8           0        7.638762    6.198262    0.058885
     25          6           0        5.970657    7.500030   -1.071453
     26          7           0        7.986527    0.763690    0.291945
     27          6           0        8.511182    2.019000    0.320244
     28          6           0        9.908402    2.051429    0.962695
     29          6           0       10.019467    0.583852    1.565793
     30          6           0        8.829391   -0.122623    0.851346
     31          6           0       11.021066    2.503776    0.025629
     32          6           0        9.957945    0.591850    3.127468
     33          6           0       11.003856   -0.361736    3.693820
     34          7           0        6.237542   -1.443836    0.102103
     35          6           0        7.338356   -2.144108    0.700560
     36          6           0        6.915827   -3.467074    0.901872
     37          6           0        5.546154   -3.563923    0.478245
     38          6           0        5.214978   -2.272784    0.047673
     39          6           0        7.888001   -4.633783    1.226838
     40          6           0        4.441356   -4.526410    0.281380
     41          8           0        4.276708   -5.669521    0.540582
     42          6           0        3.284921   -3.585235   -0.274800
     43          6           0        2.197659   -3.767686    0.662170
     44          8           0        2.138884   -3.201777    1.740216
     45          8           0        1.418587   -4.793133    0.319140
     46          6           0        0.224792   -5.100557    1.050721
     47          6           0       -3.756162   -2.864486    0.885648
     48          6           0       -5.100839   -2.524753    0.292608
     49          6           0       -6.278130   -3.199493    0.326323
     50          6           0       -6.604063   -4.590116    0.867714
     51          6           0       -7.551313   -2.434273   -0.130966
     52          6           0       -7.869450   -2.655422   -1.569127
     53          6           0       -8.194510   -1.288680   -2.393974
     54          6           0       -9.718325   -1.258656   -2.748572
     55          6           0       -9.910112   -1.791075   -4.132185
     56          6           0      -10.365905    0.173059   -2.447363
     57          6           0      -10.824146    0.204264   -0.945732
     58          6           0      -12.366810   -0.005465   -0.800038
     59          6           0      -13.132212    1.228744   -0.428841
     60          6           0      -14.591079    1.133995   -1.060076
     61          6           0      -13.248004    1.690127    1.061988
     62          6           0      -13.196325    3.217873    1.215400
     63          6           0      -13.801399    3.693841    2.536826
     64          6           0      -12.622375    3.771043    3.578061
     65          6           0      -13.132425    3.611797    5.048865
     66          6           0      -11.791036    4.997360    3.416062
     67          1           0        2.975777    2.995556   -2.723401
     68          1           0        8.567570    4.143964    0.058905
     69          1           0        9.321298   -2.087247    1.526485
     70          1           0        1.771758   -1.868875   -2.233455
     71          1           0        1.076879    0.948578   -2.399571
     72          1           0        3.241555    0.540044   -4.091598
     73          1           0        1.611757    0.616413   -4.582099
     74          1           0        2.255348   -1.029963   -4.260356
     75          1           0        0.178661    0.107491   -0.654342
     76          1           0        1.145025   -0.859947    0.384859
     77          1           0       -0.063471   -2.820880   -1.056646
     78          1           0       -1.028827   -1.666246   -1.742612
     79          1           0        2.798760    5.058174   -2.256380
     80          1           0        4.190180    5.765078   -3.232266
     81          1           0        3.704482    6.407118   -1.666582
     82          1           0        5.160754    7.829853   -0.420458
     83          1           0        5.539093    7.391420   -2.066263
     84          1           0        6.689496    8.312108   -1.171281
     85          1           0        9.926043    2.767323    1.784774
     86          1           0       10.860543    0.023548    1.156244
     87          1           0       11.906202    1.886423    0.180588
     88          1           0       11.206079    3.554476    0.249681
     89          1           0       10.713792    2.299910   -0.999954
     90          1           0        8.975101    0.294585    3.491712
     91          1           0       10.084100    1.565492    3.602246
     92          1           0       11.704918   -0.778185    2.970226
     93          1           0       10.590110   -1.114661    4.364199
     94          1           0       11.630855    0.342423    4.240157
     95          1           0        7.909579   -4.872761    2.291076
     96          1           0        8.879039   -4.365668    0.860325
     97          1           0        7.522714   -5.522840    0.713230
     98          1           0        2.965621   -3.958997   -1.247540
     99          1           0       -0.637719   -5.218477    0.394421
    100          1           0        0.011541   -4.350424    1.812422
    101          1           0        0.345426   -6.049599    1.572853
    102          1           0       -3.683699   -2.232342    1.770525
    103          1           0       -3.700894   -3.910086    1.190955
    104          1           0       -5.199416   -1.500239   -0.067886
    105          1           0       -5.704843   -5.163937    1.093833
    106          1           0       -7.243183   -5.157698    0.192038
    107          1           0       -7.096957   -4.426663    1.826436
    108          1           0       -7.477898   -1.366181    0.069558
    109          1           0       -8.382822   -2.758186    0.494111
    110          1           0       -8.599568   -3.464325   -1.527020
    111          1           0       -6.909116   -3.014266   -1.941330
    112          1           0       -7.544594   -1.367391   -3.265673
    113          1           0       -7.924329   -0.338233   -1.933611
    114          1           0      -10.259655   -1.960566   -2.113675
    115          1           0      -10.367298   -1.008154   -4.737346
    116          1           0      -10.658744   -2.582009   -4.167868
    117          1           0       -9.039438   -2.316093   -4.525895
    118          1           0      -11.233205    0.139340   -3.107035
    119          1           0       -9.736525    1.056324   -2.563111
    120          1           0      -10.467208    1.132661   -0.499619
    121          1           0      -10.297684   -0.579353   -0.400541
    122          1           0      -12.573218   -0.733003   -0.015540
    123          1           0      -12.747710   -0.553116   -1.662599
    124          1           0      -12.762365    2.020680   -1.079348
    125          1           0      -14.969710    0.143810   -0.803575
    126          1           0      -14.611405    1.283916   -2.138744
    127          1           0      -15.185942    1.950596   -0.650721
    128          1           0      -12.337971    1.335240    1.546249
    129          1           0      -14.165955    1.277840    1.480282
    130          1           0      -13.740001    3.710056    0.408515
    131          1           0      -12.139288    3.463006    1.120221
    132          1           0      -14.529365    3.041775    3.018249
    133          1           0      -14.171491    4.704117    2.364135
    134          1           0      -11.931282    2.956025    3.362790
    135          1           0      -12.794177    4.482008    5.611297
    136          1           0      -12.918024    2.636514    5.486055
    137          1           0      -14.218494    3.698685    5.013947
    138          1           0      -11.726509    5.661259    4.277730
    139          1           0      -12.172979    5.664839    2.642864
    140          1           0      -10.852617    4.606679    3.022014
 ---------------------------------------------------------------------

 SCF Done:  E(RwB97XD) =  -3007.87748939     A.U. after   19 cycles

 Excitation energies and oscillator strengths:

 Excited State   1:      Singlet-A      1.7337 eV  715.14 nm  f=0.3689  <S**2>=0.000
     245 -> 248        0.17698
     246 -> 247        0.68408
     245 <- 248        0.10910
 This state for optimization and/or second-order correction.
 Total Energy, E(TD-HF/TD-DFT) =  -3007.81377706
 Copying the excited state density for this state as the 1-particle RhoCI density.

 Excited State   2:      Singlet-A      2.2006 eV  563.41 nm  f=0.1423  <S**2>=0.000
     245 -> 247        0.64486
     246 -> 248       -0.26810

 Excited State   3:      Singlet-A      3.3804 eV  366.77 nm  f=0.0069  <S**2>=0.000
     241 -> 247       -0.22554
     244 -> 247        0.65052

 Excited State   4:      Singlet-A      3.5521 eV  349.05 nm  f=0.1415  <S**2>=0.000
     239 -> 247        0.18016
     240 -> 247       -0.16956
     241 -> 247        0.44356
     244 -> 247        0.16536
     245 -> 247        0.11418
     246 -> 248        0.42532

 Excited State   5:      Singlet-A      3.6223 eV  342.28 nm  f=0.0005  <S**2>=0.000
     239 -> 247        0.34721
     239 -> 248       -0.13431
     239 -> 249       -0.27523
     239 -> 250       -0.12345
     240 -> 247        0.41176
     240 -> 248       -0.11353
     240 -> 249       -0.23760

 The electronic state is 1-A.
 Alpha  occ. eigenvalues --  -46.94914 -19.30023 -19.29381 -19.25144 -19.24599
 Alpha  occ. eigenvalues --  -19.23855 -19.22593 -14.47001 -14.46184 -14.44646
 Alpha  occ. eigenvalues --  -14.42752 -10.43806 -10.41431 -10.40131 -10.38648
 Alpha  occ. eigenvalues --  -10.35865 -10.35801 -10.35095 -10.34978 -10.34867
 Alpha  occ. eigenvalues --  -10.34585 -10.34480 -10.33696 -10.33443 -10.32738
 Alpha  occ. eigenvalues --  -10.32458 -10.32404 -10.32130 -10.32051 -10.31820
 Alpha  occ. eigenvalues --  -10.31809 -10.31751 -10.31738 -10.31466 -10.31221
 Alpha  occ. eigenvalues --  -10.31043 -10.31018 -10.30850 -10.30846 -10.30703
 Alpha  occ. eigenvalues --  -10.30559 -10.30473 -10.30399 -10.30385 -10.29987
 Alpha  occ. eigenvalues --  -10.29866 -10.29620 -10.29614 -10.29314 -10.29297
 Alpha  occ. eigenvalues --  -10.29258 -10.29256 -10.29137 -10.29040 -10.29029
 Alpha  occ. eigenvalues --  -10.29006 -10.28988 -10.28779 -10.28666 -10.28660
 Alpha  occ. eigenvalues --  -10.28591 -10.28210 -10.28176 -10.27955 -10.27875
 Alpha  occ. eigenvalues --  -10.27658  -3.20860  -1.94461  -1.93989  -1.93826
 Alpha  occ. eigenvalues --   -1.18836  -1.17753  -1.13739  -1.13066  -1.09826
 Alpha  occ. eigenvalues --   -1.08912  -1.06889  -1.06029  -1.05223  -1.03921
 Alpha  occ. eigenvalues --   -0.93002  -0.92270  -0.91723  -0.91013  -0.90582
 Alpha  occ. eigenvalues --   -0.90555  -0.89909  -0.89272  -0.89139  -0.88929
 Alpha  occ. eigenvalues --   -0.87436  -0.86969  -0.85946  -0.85292  -0.85205
 Alpha  occ. eigenvalues --   -0.84714  -0.83724  -0.83130  -0.82743  -0.82430
 Alpha  occ. eigenvalues --   -0.81950  -0.80578  -0.79632  -0.78752  -0.77582
 Alpha  occ. eigenvalues --   -0.77365  -0.77312  -0.76964  -0.76434  -0.76180
 Alpha  occ. eigenvalues --   -0.75450  -0.74435  -0.73272  -0.72024  -0.70359
 Alpha  occ. eigenvalues --   -0.70012  -0.69634  -0.68854  -0.68238  -0.67867
 Alpha  occ. eigenvalues --   -0.67722  -0.67314  -0.66711  -0.65989  -0.65618
 Alpha  occ. eigenvalues --   -0.65182  -0.64768  -0.64313  -0.63849  -0.62772
 Alpha  occ. eigenvalues --   -0.61850  -0.61443  -0.60948  -0.60191  -0.59737
 Alpha  occ. eigenvalues --   -0.59331  -0.59001  -0.57963  -0.57769  -0.57273
 Alpha  occ. eigenvalues --   -0.56989  -0.56439  -0.56019  -0.55740  -0.55544
 Alpha  occ. eigenvalues --   -0.55370  -0.55257  -0.55185  -0.55031  -0.54600
 Alpha  occ. eigenvalues --   -0.54426  -0.54341  -0.54304  -0.53814  -0.53494
 Alpha  occ. eigenvalues --   -0.52965  -0.52874  -0.52762  -0.52719  -0.52605
 Alpha  occ. eigenvalues --   -0.52433  -0.52092  -0.51938  -0.51885  -0.51711
 Alpha  occ. eigenvalues --   -0.51587  -0.51457  -0.51297  -0.50961  -0.50604
 Alpha  occ. eigenvalues --   -0.50529  -0.50298  -0.50263  -0.50010  -0.49954
 Alpha  occ. eigenvalues --   -0.49912  -0.49415  -0.49264  -0.48470  -0.48327
 Alpha  occ. eigenvalues --   -0.48231  -0.48132  -0.47946  -0.47692  -0.47651
 Alpha  occ. eigenvalues --   -0.47521  -0.47332  -0.47193  -0.46953  -0.46620
 Alpha  occ. eigenvalues --   -0.46576  -0.46569  -0.46147  -0.45819  -0.45699
 Alpha  occ. eigenvalues --   -0.45420  -0.45344  -0.45239  -0.45041  -0.44809
 Alpha  occ. eigenvalues --   -0.44743  -0.44524  -0.44320  -0.44193  -0.43977
 Alpha  occ. eigenvalues --   -0.43598  -0.43431  -0.43108  -0.42858  -0.42634
 Alpha  occ. eigenvalues --   -0.42415  -0.42396  -0.42270  -0.42116  -0.42013
 Alpha  occ. eigenvalues --   -0.41977  -0.41454  -0.40995  -0.40848  -0.40002
 Alpha  occ. eigenvalues --   -0.39882  -0.39600  -0.39447  -0.39304  -0.39106
 Alpha  occ. eigenvalues --   -0.39008  -0.38505  -0.38350  -0.38114  -0.38044
 Alpha  occ. eigenvalues --   -0.37223  -0.37162  -0.36585  -0.36534  -0.36136
 Alpha  occ. eigenvalues --   -0.35556  -0.35336  -0.34653  -0.33864  -0.33707
 Alpha  occ. eigenvalues --   -0.32785  -0.32228  -0.32179  -0.30899  -0.25890
 Alpha  occ. eigenvalues --   -0.23164
 Alpha virt. eigenvalues --   -0.06918   0.00511   0.02564   0.04852   0.06457
 Alpha virt. eigenvalues --    0.06827   0.07771   0.08047   0.08681   0.09563
 Alpha virt. eigenvalues --    0.10620   0.11823   0.12101   0.12435   0.12757

 Mulliken charges:
               1
     1  Mg   0.959773
     2  C    0.024699
     3  C   -0.116288
     4  C   -0.071711
     5  C   -0.062380
     6  N   -0.383039
     7  C    0.030736
     8  C   -0.105555
     9  C   -0.124193
    10  C    0.095865
    11  C    0.028504
    12  C    0.051522
    13  C   -0.044473
    14  C    0.256398
    15  O   -0.247147
    16  O   -0.383030
    17  N   -0.448528
    18  C    0.158510
    19  C   -0.168896
    20  C   -0.063145
    21  C    0.140965
    22  C    0.050305
    23  C    0.058104
    24  O   -0.234748
    25  C   -0.018710
    26  N   -0.304083
    27  C    0.085805
    28  C   -0.145546
    29  C   -0.068360
    30  C    0.029448
    31  C    0.037120
    32  C    0.010525
    33  C   -0.066550
    34  N   -0.450807
    35  C    0.104056
    36  C   -0.178326
    37  C   -0.080121
    38  C    0.153680
    39  C    0.061559
    40  C    0.140598
    41  O   -0.155276
    42  C   -0.116044
    43  C    0.223563
    44  O   -0.251924
    45  O   -0.330883
    46  C    0.123675
    47  C    0.263497
    48  C   -0.119160
    49  C   -0.218622
    50  C    0.044125
    51  C   -0.008150
    52  C   -0.035323
    53  C    0.015066
    54  C   -0.201070
    55  C    0.028641
    56  C    0.007233
    57  C   -0.039508
    58  C    0.032483
    59  C   -0.179548
    60  C   -0.035288
    61  C    0.047205
    62  C   -0.056491
    63  C    0.043329
    64  C   -0.280105
    65  C    0.022332
    66  C    0.012663
    67  H    0.003878
    68  H    0.027872
    69  H    0.001586
    70  H    0.030491
    71  H    0.031469
    72  H    0.040195
    73  H    0.032538
    74  H    0.057427
    75  H    0.029925
    76  H    0.067677
    77  H    0.054557
    78  H    0.048242
    79  H    0.050594
    80  H    0.068246
    81  H    0.043266
    82  H    0.078928
    83  H    0.033124
    84  H    0.057988
    85  H    0.041230
    86  H    0.029045
    87  H    0.032191
    88  H    0.053096
    89  H    0.037884
    90  H    0.036334
    91  H    0.033534
    92  H    0.034045
    93  H    0.050125
    94  H    0.028196
    95  H    0.049247
    96  H    0.038184
    97  H    0.052905
    98  H    0.052575
    99  H    0.051943
   100  H    0.066131
   101  H    0.054235
   102  H    0.070528
   103  H    0.028660
   104  H    0.015788
   105  H    0.028837
   106  H    0.046341
   107  H    0.052631
   108  H    0.021448
   109  H    0.015149
   110  H    0.034717
   111  H    0.028669
   112  H    0.024942
   113  H    0.019280
   114  H    0.021858
   115  H    0.025203
   116  H    0.010809
   117  H    0.029249
   118  H    0.015344
   119  H    0.031422
   120  H    0.015950
   121  H    0.019137
   122  H    0.001874
   123  H    0.010618
   124  H    0.010027
   125  H    0.029484
   126  H    0.030811
   127  H    0.021825
   128  H    0.013709
   129  H    0.023281
   130  H    0.019330
   131  H    0.019711
   132  H    0.023207
   133  H    0.019689
   134  H    0.020900
   135  H    0.021502
   136  H    0.040621
   137  H    0.014288
   138  H    0.031618
   139  H    0.012827
   140  H    0.030854
 Sum of Mulliken charges =  -0.00000

 Dipole moment (field-independent basis, Debye):
    X=             -3.0477    Y=              4.1225    Z=             -3.9190  Tot=              6.4531
 Quadrupole moment (field-independent basis, Debye-Ang):
   XX=           -373.1695   YY=           -401.8379   ZZ=           -400.7219
   XY=             23.6699   XZ=             -0.8520   YZ=             -8.6465

 Normal termination of Gaussian 16 at Wed Apr 27 17:41:23 2022.
