 Gaussian 16, Revision A.03,
 Gaussian 16:  ES64L-G16RevA.03 25-Dec-2016

 --------------------
 #p ZINDO=(nstates=5)
 --------------------

 ------------------------------
 step_1251_chromophore_22 ZINDO
 ------------------------------
 Symbolic Z-matrix:
 Charge =  0 Multiplicity = 1

                         Standard orientation:
 ---------------------------------------------------------------------
 Center     Atomic      Atomic             Coordinates (Angstroms)
 Number     Number       Type             X           Y           Z
 ---------------------------------------------------------------------
      1         12           0        5.810576    0.575618   -0.226721
      2          6           0        3.865418   -2.125778   -0.425079
      3          6           0        3.546462    2.393343   -2.014938
      4          6           0        7.943008    3.261002   -0.093886
      5          6           0        8.570528   -1.481353    1.015020
      6          7           0        3.913038    0.175646   -1.061269
      7          6           0        3.229060   -0.999180   -0.934276
      8          6           0        1.864665   -0.997194   -1.586065
      9          6           0        1.966014    0.319381   -2.446423
     10          6           0        3.186263    1.067923   -1.769445
     11          6           0        2.291098    0.020871   -3.971077
     12          6           0        0.645733   -0.875783   -0.584509
     13          6           0       -0.508249   -1.858351   -0.803707
     14          6           0       -1.608903   -1.863072    0.294321
     15          8           0       -1.560680   -1.259465    1.356894
     16          8           0       -2.614184   -2.771546   -0.027264
     17          7           0        5.694332    2.585219   -0.744001
     18          6           0        4.657108    3.090302   -1.499455
     19          6           0        4.863222    4.519123   -1.609084
     20          6           0        6.080564    4.817438   -0.994177
     21          6           0        6.647586    3.504790   -0.617111
     22          6           0        3.798140    5.492751   -2.252707
     23          6           0        6.645214    6.181130   -0.655003
     24          8           0        7.638762    6.198262    0.058885
     25          6           0        5.970657    7.500030   -1.071453
     26          7           0        7.986527    0.763690    0.291945
     27          6           0        8.511182    2.019000    0.320244
     28          6           0        9.908402    2.051429    0.962695
     29          6           0       10.019467    0.583852    1.565793
     30          6           0        8.829391   -0.122623    0.851346
     31          6           0       11.021066    2.503776    0.025629
     32          6           0        9.957945    0.591850    3.127468
     33          6           0       11.003856   -0.361736    3.693820
     34          7           0        6.237542   -1.443836    0.102103
     35          6           0        7.338356   -2.144108    0.700560
     36          6           0        6.915827   -3.467074    0.901872
     37          6           0        5.546154   -3.563923    0.478245
     38          6           0        5.214978   -2.272784    0.047673
     39          6           0        7.888001   -4.633783    1.226838
     40          6           0        4.441356   -4.526410    0.281380
     41          8           0        4.276708   -5.669521    0.540582
     42          6           0        3.284921   -3.585235   -0.274800
     43          6           0        2.197659   -3.767686    0.662170
     44          8           0        2.138884   -3.201777    1.740216
     45          8           0        1.418587   -4.793133    0.319140
     46          6           0        0.224792   -5.100557    1.050721
     47          6           0       -3.756162   -2.864486    0.885648
     48          6           0       -5.100839   -2.524753    0.292608
     49          6           0       -6.278130   -3.199493    0.326323
     50          6           0       -6.604063   -4.590116    0.867714
     51          6           0       -7.551313   -2.434273   -0.130966
     52          6           0       -7.869450   -2.655422   -1.569127
     53          6           0       -8.194510   -1.288680   -2.393974
     54          6           0       -9.718325   -1.258656   -2.748572
     55          6           0       -9.910112   -1.791075   -4.132185
     56          6           0      -10.365905    0.173059   -2.447363
     57          6           0      -10.824146    0.204264   -0.945732
     58          6           0      -12.366810   -0.005465   -0.800038
     59          6           0      -13.132212    1.228744   -0.428841
     60          6           0      -14.591079    1.133995   -1.060076
     61          6           0      -13.248004    1.690127    1.061988
     62          6           0      -13.196325    3.217873    1.215400
     63          6           0      -13.801399    3.693841    2.536826
     64          6           0      -12.622375    3.771043    3.578061
     65          6           0      -13.132425    3.611797    5.048865
     66          6           0      -11.791036    4.997360    3.416062
     67          1           0        2.975777    2.995556   -2.723401
     68          1           0        8.567570    4.143964    0.058905
     69          1           0        9.321298   -2.087247    1.526485
     70          1           0        1.771758   -1.868875   -2.233455
     71          1           0        1.076879    0.948578   -2.399571
     72          1           0        3.241555    0.540044   -4.091598
     73          1           0        1.611757    0.616413   -4.582099
     74          1           0        2.255348   -1.029963   -4.260356
     75          1           0        0.178661    0.107491   -0.654342
     76          1           0        1.145025   -0.859947    0.384859
     77          1           0       -0.063471   -2.820880   -1.056646
     78          1           0       -1.028827   -1.666246   -1.742612
     79          1           0        2.798760    5.058174   -2.256380
     80          1           0        4.190180    5.765078   -3.232266
     81          1           0        3.704482    6.407118   -1.666582
     82          1           0        5.160754    7.829853   -0.420458
     83          1           0        5.539093    7.391420   -2.066263
     84          1           0        6.689496    8.312108   -1.171281
     85          1           0        9.926043    2.767323    1.784774
     86          1           0       10.860543    0.023548    1.156244
     87          1           0       11.906202    1.886423    0.180588
     88          1           0       11.206079    3.554476    0.249681
     89          1           0       10.713792    2.299910   -0.999954
     90          1           0        8.975101    0.294585    3.491712
     91          1           0       10.084100    1.565492    3.602246
     92          1           0       11.704918   -0.778185    2.970226
     93          1           0       10.590110   -1.114661    4.364199
     94          1           0       11.630855    0.342423    4.240157
     95          1           0        7.909579   -4.872761    2.291076
     96          1           0        8.879039   -4.365668    0.860325
     97          1           0        7.522714   -5.522840    0.713230
     98          1           0        2.965621   -3.958997   -1.247540
     99          1           0       -0.637719   -5.218477    0.394421
    100          1           0        0.011541   -4.350424    1.812422
    101          1           0        0.345426   -6.049599    1.572853
    102          1           0       -3.683699   -2.232342    1.770525
    103          1           0       -3.700894   -3.910086    1.190955
    104          1           0       -5.199416   -1.500239   -0.067886
    105          1           0       -5.704843   -5.163937    1.093833
    106          1           0       -7.243183   -5.157698    0.192038
    107          1           0       -7.096957   -4.426663    1.826436
    108          1           0       -7.477898   -1.366181    0.069558
    109          1           0       -8.382822   -2.758186    0.494111
    110          1           0       -8.599568   -3.464325   -1.527020
    111          1           0       -6.909116   -3.014266   -1.941330
    112          1           0       -7.544594   -1.367391   -3.265673
    113          1           0       -7.924329   -0.338233   -1.933611
    114          1           0      -10.259655   -1.960566   -2.113675
    115          1           0      -10.367298   -1.008154   -4.737346
    116          1           0      -10.658744   -2.582009   -4.167868
    117          1           0       -9.039438   -2.316093   -4.525895
    118          1           0      -11.233205    0.139340   -3.107035
    119          1           0       -9.736525    1.056324   -2.563111
    120          1           0      -10.467208    1.132661   -0.499619
    121          1           0      -10.297684   -0.579353   -0.400541
    122          1           0      -12.573218   -0.733003   -0.015540
    123          1           0      -12.747710   -0.553116   -1.662599
    124          1           0      -12.762365    2.020680   -1.079348
    125          1           0      -14.969710    0.143810   -0.803575
    126          1           0      -14.611405    1.283916   -2.138744
    127          1           0      -15.185942    1.950596   -0.650721
    128          1           0      -12.337971    1.335240    1.546249
    129          1           0      -14.165955    1.277840    1.480282
    130          1           0      -13.740001    3.710056    0.408515
    131          1           0      -12.139288    3.463006    1.120221
    132          1           0      -14.529365    3.041775    3.018249
    133          1           0      -14.171491    4.704117    2.364135
    134          1           0      -11.931282    2.956025    3.362790
    135          1           0      -12.794177    4.482008    5.611297
    136          1           0      -12.918024    2.636514    5.486055
    137          1           0      -14.218494    3.698685    5.013947
    138          1           0      -11.726509    5.661259    4.277730
    139          1           0      -12.172979    5.664839    2.642864
    140          1           0      -10.852617    4.606679    3.022014
 ---------------------------------------------------------------------

 SCF Done:  E(RZINDO/S) =  -474.294164858     A.U. after   19 cycles

 Excitation energies and oscillator strengths:

 Excited State   1:      Singlet-A      1.3357 eV  928.25 nm  f=0.5561  <S**2>=0.000
     175 ->178         0.16668
     176 ->177         0.67022
 This state for optimization and/or second-order correction.
 Total Energy, E(CIS/TDA) =  -474.245079538
 Copying the excited state density for this state as the 1-particle RhoCI density.

 Excited State   2:      Singlet-A      1.9600 eV  632.56 nm  f=0.0720  <S**2>=0.000
     175 ->177         0.56151
     176 ->178        -0.39337

 Excited State   3:      Singlet-A      2.8982 eV  427.80 nm  f=0.0058  <S**2>=0.000
     167 ->177         0.25174
     167 ->178        -0.10256
     167 ->179        -0.35031
     167 ->180         0.16232
     167 ->184         0.13245
     167 ->186        -0.12368
     168 ->177         0.23003
     168 ->179        -0.30582
     168 ->180         0.14120
     168 ->184         0.11610
     168 ->186        -0.10853

 Excited State   4:      Singlet-A      3.0309 eV  409.07 nm  f=0.9550  <S**2>=0.000
     170 ->177         0.15568
     175 ->177         0.35239
     176 ->178         0.53480
     176 ->179         0.12937

 Excited State   5:      Singlet-A      3.1453 eV  394.19 nm  f=0.1016  <S**2>=0.000
     171 ->180        -0.15606
     174 ->177        -0.12470
     176 ->179         0.53488
     176 ->180         0.27091

 The electronic state is 1-A.
 Alpha  occ. eigenvalues --   -1.83430  -1.82229  -1.79576  -1.74675  -1.71351
 Alpha  occ. eigenvalues --   -1.70016  -1.65373  -1.61886  -1.59473  -1.57964
 Alpha  occ. eigenvalues --   -1.55921  -1.51329  -1.48900  -1.48181  -1.46088
 Alpha  occ. eigenvalues --   -1.43208  -1.42167  -1.39723  -1.38956  -1.37729
 Alpha  occ. eigenvalues --   -1.35357  -1.32980  -1.31401  -1.30850  -1.28283
 Alpha  occ. eigenvalues --   -1.28052  -1.23974  -1.22228  -1.21360  -1.17971
 Alpha  occ. eigenvalues --   -1.17425  -1.16285  -1.15539  -1.13056  -1.12306
 Alpha  occ. eigenvalues --   -1.11646  -1.11152  -1.10802  -1.05185  -1.03025
 Alpha  occ. eigenvalues --   -1.02711  -1.01136  -0.97292  -0.97011  -0.96087
 Alpha  occ. eigenvalues --   -0.95247  -0.94318  -0.92833  -0.92150  -0.91748
 Alpha  occ. eigenvalues --   -0.90984  -0.89814  -0.89623  -0.88085  -0.87669
 Alpha  occ. eigenvalues --   -0.86443  -0.84189  -0.83124  -0.81348  -0.80525
 Alpha  occ. eigenvalues --   -0.79668  -0.78968  -0.76773  -0.76373  -0.75806
 Alpha  occ. eigenvalues --   -0.75474  -0.74813  -0.74444  -0.73900  -0.73399
 Alpha  occ. eigenvalues --   -0.72986  -0.72390  -0.72184  -0.70620  -0.70393
 Alpha  occ. eigenvalues --   -0.69769  -0.69599  -0.69352  -0.68986  -0.68752
 Alpha  occ. eigenvalues --   -0.67055  -0.66876  -0.66682  -0.66263  -0.65389
 Alpha  occ. eigenvalues --   -0.64771  -0.64441  -0.64257  -0.63647  -0.63425
 Alpha  occ. eigenvalues --   -0.63208  -0.62946  -0.62420  -0.62140  -0.61920
 Alpha  occ. eigenvalues --   -0.61528  -0.60862  -0.60699  -0.60446  -0.60045
 Alpha  occ. eigenvalues --   -0.59508  -0.59203  -0.59122  -0.58787  -0.58519
 Alpha  occ. eigenvalues --   -0.58400  -0.57887  -0.57393  -0.56501  -0.56036
 Alpha  occ. eigenvalues --   -0.55960  -0.55755  -0.55442  -0.55302  -0.54563
 Alpha  occ. eigenvalues --   -0.54184  -0.54154  -0.53656  -0.53217  -0.52929
 Alpha  occ. eigenvalues --   -0.52601  -0.51891  -0.51446  -0.51147  -0.51104
 Alpha  occ. eigenvalues --   -0.50981  -0.50800  -0.50365  -0.50052  -0.49975
 Alpha  occ. eigenvalues --   -0.49849  -0.49560  -0.49448  -0.49151  -0.48600
 Alpha  occ. eigenvalues --   -0.48523  -0.48160  -0.47981  -0.47552  -0.47255
 Alpha  occ. eigenvalues --   -0.47045  -0.47006  -0.46554  -0.46382  -0.46218
 Alpha  occ. eigenvalues --   -0.45768  -0.45625  -0.45450  -0.45219  -0.44861
 Alpha  occ. eigenvalues --   -0.44646  -0.44518  -0.44398  -0.43912  -0.43899
 Alpha  occ. eigenvalues --   -0.43066  -0.42912  -0.42730  -0.42241  -0.41957
 Alpha  occ. eigenvalues --   -0.41623  -0.41395  -0.40020  -0.39054  -0.38781
 Alpha  occ. eigenvalues --   -0.36893  -0.36565  -0.36201  -0.34431  -0.34054
 Alpha  occ. eigenvalues --   -0.33836  -0.32463  -0.32038  -0.30972  -0.26565
 Alpha  occ. eigenvalues --   -0.21904
 Alpha virt. eigenvalues --   -0.08267  -0.01659  -0.00475   0.01546   0.01893
 Alpha virt. eigenvalues --    0.02737   0.03293   0.03870   0.04730   0.05161
 Alpha virt. eigenvalues --    0.06186   0.06884   0.07393   0.07678   0.08370

 Mulliken charges:
               1
     1  Mg   0.430800
     2  C   -0.043917
     3  C   -0.091902
     4  C   -0.081257
     5  C   -0.052984
     6  N   -0.275096
     7  C    0.104071
     8  C    0.000172
     9  C   -0.005560
    10  C    0.164561
    11  C   -0.059549
    12  C   -0.025770
    13  C    0.009626
    14  C    0.465120
    15  O   -0.498002
    16  O   -0.278170
    17  N   -0.319764
    18  C    0.140669
    19  C    0.011954
    20  C   -0.024977
    21  C    0.164494
    22  C   -0.048491
    23  C    0.328935
    24  O   -0.509016
    25  C   -0.028100
    26  N   -0.264955
    27  C    0.167888
    28  C   -0.003770
    29  C   -0.004551
    30  C    0.089800
    31  C   -0.047874
    32  C   -0.022298
    33  C   -0.062846
    34  N   -0.329125
    35  C    0.053240
    36  C    0.003617
    37  C   -0.079701
    38  C    0.125012
    39  C   -0.046350
    40  C    0.344504
    41  O   -0.500367
    42  C    0.046158
    43  C    0.498572
    44  O   -0.541887
    45  O   -0.263929
    46  C    0.077528
    47  C    0.110562
    48  C   -0.090861
    49  C   -0.005458
    50  C   -0.038484
    51  C   -0.023426
    52  C   -0.039943
    53  C   -0.037979
    54  C   -0.013601
    55  C   -0.058476
    56  C   -0.044071
    57  C   -0.042585
    58  C   -0.025548
    59  C   -0.018601
    60  C   -0.068576
    61  C   -0.026988
    62  C   -0.031461
    63  C   -0.036230
    64  C   -0.017238
    65  C   -0.066989
    66  C   -0.055754
    67  H    0.027709
    68  H    0.051183
    69  H    0.028411
    70  H    0.029404
    71  H    0.030021
    72  H    0.027381
    73  H    0.015323
    74  H    0.037612
    75  H    0.019901
    76  H    0.047880
    77  H    0.045721
    78  H    0.032601
    79  H    0.031560
    80  H    0.036376
    81  H    0.026954
    82  H    0.047953
    83  H    0.022358
    84  H    0.038252
    85  H    0.030513
    86  H    0.032193
    87  H    0.019383
    88  H    0.029822
    89  H    0.023172
    90  H    0.023005
    91  H    0.022882
    92  H    0.023144
    93  H    0.028070
    94  H    0.009882
    95  H    0.031945
    96  H    0.021819
    97  H    0.027661
    98  H    0.039176
    99  H    0.030154
   100  H    0.050628
   101  H    0.037952
   102  H    0.061416
   103  H    0.032826
   104  H    0.026951
   105  H    0.019181
   106  H    0.031239
   107  H    0.030761
   108  H    0.018113
   109  H    0.010941
   110  H    0.033729
   111  H    0.017412
   112  H    0.016683
   113  H    0.027038
   114  H    0.021815
   115  H    0.022062
   116  H    0.004763
   117  H    0.024547
   118  H    0.022261
   119  H    0.030193
   120  H    0.016761
   121  H    0.016239
   122  H    0.006035
   123  H    0.021937
   124  H    0.013167
   125  H    0.019811
   126  H    0.016550
   127  H    0.014195
   128  H    0.017997
   129  H    0.028647
   130  H    0.013293
   131  H    0.023724
   132  H    0.028263
   133  H    0.020780
   134  H    0.016847
   135  H    0.023458
   136  H    0.025376
   137  H    0.011253
   138  H    0.024719
   139  H    0.008269
   140  H    0.017936
 Sum of Mulliken charges =  -0.00000

 Dipole moment (field-independent basis, Debye):
    X=             -4.4976    Y=              7.3323    Z=             -7.9574  Tot=             11.7180
 N-N= 4.224123947819D+03 E-N= 0.000000000000D+00  KE=-9.123291761747D+03
 Leave Link  601 at Wed Apr 27 17:54:00 2022, MaxMem=  6710886400 cpu:               0.7 elap:               0.0
 (Enter /sw/apps/gaussian-16.0/g16/l9999.exe)
 1\1\GINC-BP1-COMPUTE175\SP\RZINDO CIS\STO-3G\C55H74Mg1N4O6\OF15641\27-
 Apr-2022\0\\#p ZINDO=(nstates=5)\\step_1251_chromophore_22 ZINDO\\0,1\
 Mg,0,9.178,49.258,24.741\C,0,7.052,49.436,27.304\C,0,11.774,50.125,26.
 775\C,0,11.264,49.19,22.017\C,0,6.37,49.072,22.402\N,0,9.375,49.671,26
 .802\C,0,8.37,49.583,27.722\C,0,8.799,49.881,29.141\C,0,10.221,50.508,
 28.879\C,0,10.532,50.026,27.403\C,0,10.202,52.094,28.939\C,0,8.95,48.6
 12,30.074\C,0,8.302,48.711,31.458\C,0,8.287,47.399,32.292\O,0,8.62,46.

 Normal termination of Gaussian 16 at Wed Apr 27 17:54:00 2022.
