 Gaussian 16, Revision A.03,
 Gaussian 16:  ES64L-G16RevA.03 25-Dec-2016

 ------------------------------
 #p blyp/Def2SVP td=(nstates=5)
 ------------------------------

 --------------------------------------------------
 step_101_chromophore_26 TDDFT with blyp functional
 --------------------------------------------------
 Symbolic Z-matrix:
 Charge =  0 Multiplicity = 1

                         Standard orientation:
 ---------------------------------------------------------------------
 Center     Atomic      Atomic             Coordinates (Angstroms)
 Number     Number       Type             X           Y           Z
 ---------------------------------------------------------------------
      1         12           0       -3.875626    1.261664    0.241512
      2          6           0       -4.762449   -2.010834   -0.142892
      3          6           0       -2.137147    0.425909    3.120498
      4          6           0       -2.823115    4.562001    0.606724
      5          6           0       -5.274079    2.102052   -2.782462
      6          7           0       -3.377204   -0.693883    1.333451
      7          6           0       -3.943251   -1.875446    1.008023
      8          6           0       -3.562415   -3.009940    2.019474
      9          6           0       -2.953677   -2.063096    3.251147
     10          6           0       -2.745850   -0.667484    2.513658
     11          6           0       -3.930283   -1.869824    4.436437
     12          6           0       -2.701936   -4.136436    1.427985
     13          6           0       -1.659439   -3.811988    0.315980
     14          6           0       -0.207615   -4.299957    0.542596
     15          8           0        0.340042   -4.397336    1.603506
     16          8           0        0.377086   -4.674924   -0.638970
     17          7           0       -2.565410    2.362818    1.625679
     18          6           0       -2.090308    1.799885    2.812972
     19          6           0       -1.405691    2.850292    3.594644
     20          6           0       -1.657271    4.080725    2.932040
     21          6           0       -2.398639    3.722408    1.718246
     22          6           0       -0.706408    2.593842    4.941512
     23          6           0       -1.374998    5.486377    3.467683
     24          8           0       -1.059055    5.713087    4.600929
     25          6           0       -1.672761    6.704873    2.734096
     26          7           0       -3.867289    3.042040   -0.976961
     27          6           0       -3.470615    4.274925   -0.555784
     28          6           0       -3.742086    5.431726   -1.568095
     29          6           0       -4.398447    4.598279   -2.772652
     30          6           0       -4.509445    3.167060   -2.210231
     31          6           0       -4.597815    6.594572   -1.130675
     32          6           0       -3.610141    4.703377   -4.137524
     33          6           0       -2.604814    3.576765   -4.586544
     34          7           0       -4.808767    0.326435   -1.212139
     35          6           0       -5.427749    0.757622   -2.284862
     36          6           0       -6.176441   -0.320018   -2.850437
     37          6           0       -5.983804   -1.442967   -2.018792
     38          6           0       -5.079319   -0.963758   -1.068853
     39          6           0       -6.971769   -0.245580   -4.125326
     40          6           0       -6.338230   -2.863487   -1.815123
     41          8           0       -6.977711   -3.644657   -2.465177
     42          6           0       -5.444135   -3.271360   -0.612662
     43          6           0       -6.464578   -3.763853    0.396268
     44          8           0       -7.173295   -3.066579    1.096539
     45          8           0       -6.266103   -5.152979    0.499019
     46          6           0       -6.843532   -5.702222    1.706793
     47          6           0        1.856813   -4.820503   -0.579121
     48          6           0        2.569311   -3.490209   -0.793608
     49          6           0        2.980702   -2.950576   -1.927085
     50          6           0        2.505452   -3.484501   -3.262189
     51          6           0        3.590643   -1.556646   -2.014376
     52          6           0        4.957109   -1.574762   -1.344986
     53          6           0        6.036353   -0.696187   -2.152745
     54          6           0        6.106794    0.822353   -1.756072
     55          6           0        5.816702    1.666980   -3.006815
     56          6           0        7.399915    1.252170   -0.925483
     57          6           0        7.315779    0.548317    0.470528
     58          6           0        8.255097   -0.619894    0.641908
     59          6           0        9.178205   -0.490428    1.899733
     60          6           0        8.673564   -1.340249    3.012575
     61          6           0       10.748205   -0.761877    1.722235
     62          6           0       11.535821    0.383235    1.095754
     63          6           0       11.743316    0.259813   -0.473440
     64          6           0       13.164148    0.709887   -0.970980
     65          6           0       13.033932    0.831967   -2.582282
     66          6           0       14.340853   -0.166582   -0.499978
     67          1           0       -1.980548    0.138207    4.162223
     68          1           0       -2.494148    5.597955    0.711075
     69          1           0       -5.795392    2.316810   -3.717241
     70          1           0       -4.531914   -3.366168    2.367427
     71          1           0       -2.030710   -2.549242    3.568806
     72          1           0       -4.470668   -0.943892    4.240122
     73          1           0       -3.364050   -1.860906    5.368080
     74          1           0       -4.680849   -2.648042    4.572977
     75          1           0       -3.402720   -4.906056    1.103490
     76          1           0       -2.148073   -4.533713    2.279497
     77          1           0       -1.666527   -2.736138    0.489331
     78          1           0       -2.040650   -4.099694   -0.663577
     79          1           0        0.377034    2.712364    4.941785
     80          1           0       -0.969036    1.590409    5.274786
     81          1           0       -1.151011    3.188727    5.739012
     82          1           0       -2.699578    6.706059    2.369130
     83          1           0       -0.968132    6.624727    1.906446
     84          1           0       -1.416015    7.558196    3.360703
     85          1           0       -2.830271    5.933022   -1.893376
     86          1           0       -5.416573    4.968544   -2.884756
     87          1           0       -3.925132    7.430708   -0.942708
     88          1           0       -5.203766    6.420944   -0.240460
     89          1           0       -5.173896    7.047140   -1.937484
     90          1           0       -2.902244    5.513333   -3.959782
     91          1           0       -4.288226    5.003395   -4.936925
     92          1           0       -2.612134    3.671311   -5.672217
     93          1           0       -2.813823    2.545116   -4.304825
     94          1           0       -1.594900    3.935921   -4.388037
     95          1           0       -7.897427   -0.794029   -3.950854
     96          1           0       -6.370352   -0.733086   -4.892423
     97          1           0       -7.223781    0.763180   -4.451286
     98          1           0       -4.759980   -4.019377   -1.014496
     99          1           0       -7.151095   -6.723988    1.480908
    100          1           0       -7.700341   -5.214150    2.172637
    101          1           0       -6.066978   -5.815951    2.462814
    102          1           0        2.120753   -5.509878   -1.381333
    103          1           0        2.227401   -5.316812    0.317744
    104          1           0        3.064647   -3.129549    0.107698
    105          1           0        1.883918   -4.380418   -3.249836
    106          1           0        3.302624   -3.706030   -3.971181
    107          1           0        1.856086   -2.739742   -3.721245
    108          1           0        3.001229   -0.880279   -1.395226
    109          1           0        3.662751   -1.340477   -3.079621
    110          1           0        5.284523   -2.588595   -1.114284
    111          1           0        4.818603   -1.124388   -0.362126
    112          1           0        5.924274   -0.962116   -3.203873
    113          1           0        6.971646   -1.145326   -1.819321
    114          1           0        5.249823    1.054269   -1.123919
    115          1           0        6.298316    2.639884   -2.907551
    116          1           0        4.739320    1.707698   -3.166361
    117          1           0        6.312404    1.142987   -3.824321
    118          1           0        7.439732    2.340433   -0.901299
    119          1           0        8.271749    0.989219   -1.524882
    120          1           0        6.297352    0.180642    0.599673
    121          1           0        7.312309    1.350751    1.207937
    122          1           0        8.924320   -0.725448   -0.212404
    123          1           0        7.653078   -1.524385    0.726307
    124          1           0        8.886869    0.438767    2.388864
    125          1           0        7.593824   -1.480869    3.069213
    126          1           0        9.029884   -0.971883    3.974800
    127          1           0        9.103507   -2.337248    2.916410
    128          1           0       10.794303   -1.702653    1.174260
    129          1           0       11.128189   -0.908798    2.733613
    130          1           0       12.479132    0.530129    1.621856
    131          1           0       10.921143    1.272691    1.232130
    132          1           0       11.154060    1.038597   -0.957055
    133          1           0       11.439593   -0.704570   -0.880556
    134          1           0       13.296055    1.695732   -0.524182
    135          1           0       12.193172    0.337235   -3.067432
    136          1           0       13.930013    0.464162   -3.081928
    137          1           0       13.069468    1.911663   -2.729195
    138          1           0       14.923199   -0.568046   -1.328995
    139          1           0       13.933019   -0.970480    0.112887
    140          1           0       14.951321    0.466248    0.144197
 ---------------------------------------------------------------------

 SCF Done:  E(RB-LYP) =  -3007.35830245     A.U. after   21 cycles

 Excitation energies and oscillator strengths:

 Excited State   1:      Singlet-A      1.7042 eV  727.54 nm  f=0.0102  <S**2>=0.000
     244 -> 247        0.69439
     246 -> 247       -0.11551
 This state for optimization and/or second-order correction.
 Total Energy, E(TD-HF/TD-DFT) =  -3007.29567569
 Copying the excited state density for this state as the 1-particle RhoCI density.

 Excited State   2:      Singlet-A      1.8804 eV  659.35 nm  f=0.2822  <S**2>=0.000
     244 -> 247        0.11385
     245 -> 248        0.20251
     246 -> 247        0.67763
     246 <- 247       -0.14300

 Excited State   3:      Singlet-A      2.0627 eV  601.07 nm  f=0.1060  <S**2>=0.000
     245 -> 247        0.65319
     246 -> 248       -0.23406

 Excited State   4:      Singlet-A      2.1747 eV  570.13 nm  f=0.0003  <S**2>=0.000
     243 -> 247        0.70385

 Excited State   5:      Singlet-A      2.4614 eV  503.72 nm  f=0.0002  <S**2>=0.000
     241 -> 247        0.70626

 The electronic state is 1-A.
 Alpha  occ. eigenvalues --  -46.27964 -18.82688 -18.81551 -18.78266 -18.76776
 Alpha  occ. eigenvalues --  -18.76734 -18.74866 -14.03536 -14.03258 -14.01281
 Alpha  occ. eigenvalues --  -14.01234 -10.04876 -10.03884 -10.00404  -9.99101
 Alpha  occ. eigenvalues --   -9.97523  -9.97498  -9.97069  -9.96729  -9.96634
 Alpha  occ. eigenvalues --   -9.96350  -9.96237  -9.95824  -9.95500  -9.94922
 Alpha  occ. eigenvalues --   -9.94496  -9.94376  -9.94183  -9.94182  -9.94162
 Alpha  occ. eigenvalues --   -9.94078  -9.94018  -9.93619  -9.93329  -9.93304
 Alpha  occ. eigenvalues --   -9.93272  -9.93090  -9.92978  -9.92877  -9.92739
 Alpha  occ. eigenvalues --   -9.92495  -9.92486  -9.92334  -9.92313  -9.92201
 Alpha  occ. eigenvalues --   -9.92036  -9.92025  -9.92017  -9.91958  -9.91902
 Alpha  occ. eigenvalues --   -9.91655  -9.91630  -9.91560  -9.91458  -9.91325
 Alpha  occ. eigenvalues --   -9.91211  -9.91179  -9.91163  -9.91149  -9.91120
 Alpha  occ. eigenvalues --   -9.91113  -9.91022  -9.90934  -9.90647  -9.90634
 Alpha  occ. eigenvalues --   -9.90005  -2.92544  -1.72959  -1.72406  -1.72288
 Alpha  occ. eigenvalues --   -0.97899  -0.97806  -0.93336  -0.92776  -0.91157
 Alpha  occ. eigenvalues --   -0.90043  -0.88830  -0.86138  -0.85173  -0.84146
 Alpha  occ. eigenvalues --   -0.76220  -0.73924  -0.72819  -0.72075  -0.71878
 Alpha  occ. eigenvalues --   -0.71693  -0.71387  -0.70721  -0.70350  -0.70094
 Alpha  occ. eigenvalues --   -0.68994  -0.68610  -0.67931  -0.67736  -0.67170
 Alpha  occ. eigenvalues --   -0.66449  -0.66130  -0.65173  -0.64871  -0.64745
 Alpha  occ. eigenvalues --   -0.64243  -0.62297  -0.62158  -0.61725  -0.61001
 Alpha  occ. eigenvalues --   -0.60314  -0.60118  -0.59892  -0.59266  -0.58668
 Alpha  occ. eigenvalues --   -0.58263  -0.57708  -0.56438  -0.55457  -0.55015
 Alpha  occ. eigenvalues --   -0.54204  -0.53433  -0.52512  -0.52222  -0.51468
 Alpha  occ. eigenvalues --   -0.51362  -0.51057  -0.50734  -0.50427  -0.49411
 Alpha  occ. eigenvalues --   -0.49245  -0.49028  -0.49012  -0.48436  -0.46341
 Alpha  occ. eigenvalues --   -0.46207  -0.45678  -0.45365  -0.45260  -0.44518
 Alpha  occ. eigenvalues --   -0.43976  -0.43672  -0.43035  -0.42769  -0.42426
 Alpha  occ. eigenvalues --   -0.42077  -0.41765  -0.41659  -0.41524  -0.41434
 Alpha  occ. eigenvalues --   -0.40670  -0.40599  -0.40507  -0.40125  -0.40035
 Alpha  occ. eigenvalues --   -0.39934  -0.39749  -0.39539  -0.39433  -0.39042
 Alpha  occ. eigenvalues --   -0.38915  -0.38721  -0.38648  -0.38618  -0.38325
 Alpha  occ. eigenvalues --   -0.37930  -0.37881  -0.37623  -0.37487  -0.37471
 Alpha  occ. eigenvalues --   -0.37123  -0.36710  -0.36610  -0.36391  -0.36306
 Alpha  occ. eigenvalues --   -0.36106  -0.36062  -0.35948  -0.35623  -0.35577
 Alpha  occ. eigenvalues --   -0.35366  -0.35230  -0.35032  -0.34639  -0.34521
 Alpha  occ. eigenvalues --   -0.34500  -0.34480  -0.34293  -0.34187  -0.34147
 Alpha  occ. eigenvalues --   -0.34016  -0.33889  -0.33847  -0.33643  -0.33264
 Alpha  occ. eigenvalues --   -0.33072  -0.32870  -0.32756  -0.32526  -0.32344
 Alpha  occ. eigenvalues --   -0.31985  -0.31945  -0.31737  -0.31449  -0.31411
 Alpha  occ. eigenvalues --   -0.31248  -0.31148  -0.30988  -0.30807  -0.30769
 Alpha  occ. eigenvalues --   -0.30626  -0.30397  -0.30278  -0.30153  -0.30041
 Alpha  occ. eigenvalues --   -0.29727  -0.29519  -0.29458  -0.29228  -0.28659
 Alpha  occ. eigenvalues --   -0.28614  -0.28364  -0.27956  -0.27674  -0.27375
 Alpha  occ. eigenvalues --   -0.27153  -0.27055  -0.26925  -0.26750  -0.26386
 Alpha  occ. eigenvalues --   -0.26194  -0.26064  -0.25700  -0.25462  -0.25426
 Alpha  occ. eigenvalues --   -0.25234  -0.24541  -0.24197  -0.24084  -0.23685
 Alpha  occ. eigenvalues --   -0.23507  -0.23422  -0.22425  -0.22263  -0.21335
 Alpha  occ. eigenvalues --   -0.20752  -0.20565  -0.19588  -0.17909  -0.17388
 Alpha  occ. eigenvalues --   -0.16209
 Alpha virt. eigenvalues --   -0.11707  -0.06688  -0.06235  -0.04465  -0.03430
 Alpha virt. eigenvalues --   -0.03209  -0.02784  -0.01868  -0.01221  -0.00026
 Alpha virt. eigenvalues --    0.00911   0.01892   0.02266   0.02727   0.02802

 Mulliken charges:
               1
     1  Mg   0.693629
     2  C   -0.019461
     3  C   -0.009056
     4  C   -0.040107
     5  C   -0.069040
     6  N   -0.170968
     7  C   -0.138541
     8  C    0.020038
     9  C   -0.027927
    10  C   -0.048538
    11  C    0.117824
    12  C    0.115448
    13  C    0.121339
    14  C    0.062769
    15  O   -0.164398
    16  O   -0.271387
    17  N   -0.268101
    18  C    0.127158
    19  C   -0.134765
    20  C    0.042762
    21  C    0.077167
    22  C    0.186397
    23  C   -0.117670
    24  O   -0.143274
    25  C    0.170622
    26  N   -0.225599
    27  C    0.050040
    28  C   -0.017872
    29  C    0.072471
    30  C    0.017610
    31  C    0.125373
    32  C    0.066824
    33  C    0.073617
    34  N   -0.239773
    35  C    0.095721
    36  C   -0.206537
    37  C    0.058085
    38  C    0.121586
    39  C    0.171924
    40  C   -0.059738
    41  O   -0.094631
    42  C    0.047383
    43  C    0.144104
    44  O   -0.162955
    45  O   -0.275769
    46  C    0.202471
    47  C    0.324232
    48  C   -0.113882
    49  C   -0.140355
    50  C    0.120900
    51  C    0.185528
    52  C   -0.005455
    53  C    0.110596
    54  C   -0.104137
    55  C    0.120399
    56  C    0.084380
    57  C    0.090210
    58  C    0.133463
    59  C   -0.081143
    60  C    0.088911
    61  C    0.098650
    62  C    0.116277
    63  C    0.040493
    64  C   -0.120909
    65  C    0.086150
    66  C    0.126958
    67  H   -0.043027
    68  H   -0.093605
    69  H   -0.070070
    70  H   -0.025610
    71  H   -0.014364
    72  H    0.004447
    73  H    0.004426
    74  H   -0.005383
    75  H   -0.012479
    76  H   -0.012965
    77  H    0.023383
    78  H    0.000217
    79  H    0.012953
    80  H   -0.040594
    81  H    0.004864
    82  H    0.020467
    83  H   -0.001385
    84  H   -0.007754
    85  H   -0.018478
    86  H   -0.029935
    87  H   -0.022337
    88  H    0.001422
    89  H   -0.013774
    90  H   -0.034351
    91  H   -0.012575
    92  H   -0.021143
    93  H    0.025079
    94  H   -0.014437
    95  H    0.010125
    96  H    0.009126
    97  H   -0.015189
    98  H    0.014275
    99  H    0.006715
   100  H    0.026657
   101  H    0.004610
   102  H   -0.014471
   103  H   -0.007123
   104  H   -0.030457
   105  H   -0.014118
   106  H   -0.007681
   107  H    0.000474
   108  H   -0.002069
   109  H   -0.031839
   110  H   -0.017423
   111  H   -0.020597
   112  H   -0.025336
   113  H   -0.042186
   114  H   -0.035857
   115  H   -0.027062
   116  H   -0.007052
   117  H   -0.023473
   118  H   -0.038613
   119  H   -0.023582
   120  H   -0.043103
   121  H   -0.031347
   122  H   -0.022061
   123  H   -0.033290
   124  H   -0.039602
   125  H   -0.022554
   126  H   -0.022484
   127  H   -0.036664
   128  H   -0.025019
   129  H   -0.041561
   130  H   -0.027999
   131  H   -0.032521
   132  H   -0.022045
   133  H   -0.016113
   134  H   -0.029964
   135  H    0.000144
   136  H   -0.028135
   137  H   -0.011510
   138  H   -0.011585
   139  H   -0.015877
   140  H   -0.015075
 Sum of Mulliken charges =  -0.00000

 Dipole moment (field-independent basis, Debye):
    X=              1.6306    Y=              1.8402    Z=             -2.5145  Tot=              3.5168
 Quadrupole moment (field-independent basis, Debye-Ang):
   XX=           -412.7342   YY=           -398.9106   ZZ=           -409.6104
   XY=            -18.3054   XZ=            -11.6473   YZ=            -32.2003

 Normal termination of Gaussian 16 at Wed Apr 27 01:40:40 2022.
