 Gaussian 16, Revision A.03,
 Gaussian 16:  ES64L-G16RevA.03 25-Dec-2016

 -----------------------------------
 #p cam-b3lyp/Def2SVP td=(nstates=5)
 -----------------------------------

 -------------------------------------------------------
 step_101_chromophore_26 TDDFT with cam-b3lyp functional
 -------------------------------------------------------
 Symbolic Z-matrix:
 Charge =  0 Multiplicity = 1

                         Standard orientation:
 ---------------------------------------------------------------------
 Center     Atomic      Atomic             Coordinates (Angstroms)
 Number     Number       Type             X           Y           Z
 ---------------------------------------------------------------------
      1         12           0       -3.875626    1.261664    0.241512
      2          6           0       -4.762449   -2.010834   -0.142892
      3          6           0       -2.137147    0.425909    3.120498
      4          6           0       -2.823115    4.562001    0.606724
      5          6           0       -5.274079    2.102052   -2.782462
      6          7           0       -3.377204   -0.693883    1.333451
      7          6           0       -3.943251   -1.875446    1.008023
      8          6           0       -3.562415   -3.009940    2.019474
      9          6           0       -2.953677   -2.063096    3.251147
     10          6           0       -2.745850   -0.667484    2.513658
     11          6           0       -3.930283   -1.869824    4.436437
     12          6           0       -2.701936   -4.136436    1.427985
     13          6           0       -1.659439   -3.811988    0.315980
     14          6           0       -0.207615   -4.299957    0.542596
     15          8           0        0.340042   -4.397336    1.603506
     16          8           0        0.377086   -4.674924   -0.638970
     17          7           0       -2.565410    2.362818    1.625679
     18          6           0       -2.090308    1.799885    2.812972
     19          6           0       -1.405691    2.850292    3.594644
     20          6           0       -1.657271    4.080725    2.932040
     21          6           0       -2.398639    3.722408    1.718246
     22          6           0       -0.706408    2.593842    4.941512
     23          6           0       -1.374998    5.486377    3.467683
     24          8           0       -1.059055    5.713087    4.600929
     25          6           0       -1.672761    6.704873    2.734096
     26          7           0       -3.867289    3.042040   -0.976961
     27          6           0       -3.470615    4.274925   -0.555784
     28          6           0       -3.742086    5.431726   -1.568095
     29          6           0       -4.398447    4.598279   -2.772652
     30          6           0       -4.509445    3.167060   -2.210231
     31          6           0       -4.597815    6.594572   -1.130675
     32          6           0       -3.610141    4.703377   -4.137524
     33          6           0       -2.604814    3.576765   -4.586544
     34          7           0       -4.808767    0.326435   -1.212139
     35          6           0       -5.427749    0.757622   -2.284862
     36          6           0       -6.176441   -0.320018   -2.850437
     37          6           0       -5.983804   -1.442967   -2.018792
     38          6           0       -5.079319   -0.963758   -1.068853
     39          6           0       -6.971769   -0.245580   -4.125326
     40          6           0       -6.338230   -2.863487   -1.815123
     41          8           0       -6.977711   -3.644657   -2.465177
     42          6           0       -5.444135   -3.271360   -0.612662
     43          6           0       -6.464578   -3.763853    0.396268
     44          8           0       -7.173295   -3.066579    1.096539
     45          8           0       -6.266103   -5.152979    0.499019
     46          6           0       -6.843532   -5.702222    1.706793
     47          6           0        1.856813   -4.820503   -0.579121
     48          6           0        2.569311   -3.490209   -0.793608
     49          6           0        2.980702   -2.950576   -1.927085
     50          6           0        2.505452   -3.484501   -3.262189
     51          6           0        3.590643   -1.556646   -2.014376
     52          6           0        4.957109   -1.574762   -1.344986
     53          6           0        6.036353   -0.696187   -2.152745
     54          6           0        6.106794    0.822353   -1.756072
     55          6           0        5.816702    1.666980   -3.006815
     56          6           0        7.399915    1.252170   -0.925483
     57          6           0        7.315779    0.548317    0.470528
     58          6           0        8.255097   -0.619894    0.641908
     59          6           0        9.178205   -0.490428    1.899733
     60          6           0        8.673564   -1.340249    3.012575
     61          6           0       10.748205   -0.761877    1.722235
     62          6           0       11.535821    0.383235    1.095754
     63          6           0       11.743316    0.259813   -0.473440
     64          6           0       13.164148    0.709887   -0.970980
     65          6           0       13.033932    0.831967   -2.582282
     66          6           0       14.340853   -0.166582   -0.499978
     67          1           0       -1.980548    0.138207    4.162223
     68          1           0       -2.494148    5.597955    0.711075
     69          1           0       -5.795392    2.316810   -3.717241
     70          1           0       -4.531914   -3.366168    2.367427
     71          1           0       -2.030710   -2.549242    3.568806
     72          1           0       -4.470668   -0.943892    4.240122
     73          1           0       -3.364050   -1.860906    5.368080
     74          1           0       -4.680849   -2.648042    4.572977
     75          1           0       -3.402720   -4.906056    1.103490
     76          1           0       -2.148073   -4.533713    2.279497
     77          1           0       -1.666527   -2.736138    0.489331
     78          1           0       -2.040650   -4.099694   -0.663577
     79          1           0        0.377034    2.712364    4.941785
     80          1           0       -0.969036    1.590409    5.274786
     81          1           0       -1.151011    3.188727    5.739012
     82          1           0       -2.699578    6.706059    2.369130
     83          1           0       -0.968132    6.624727    1.906446
     84          1           0       -1.416015    7.558196    3.360703
     85          1           0       -2.830271    5.933022   -1.893376
     86          1           0       -5.416573    4.968544   -2.884756
     87          1           0       -3.925132    7.430708   -0.942708
     88          1           0       -5.203766    6.420944   -0.240460
     89          1           0       -5.173896    7.047140   -1.937484
     90          1           0       -2.902244    5.513333   -3.959782
     91          1           0       -4.288226    5.003395   -4.936925
     92          1           0       -2.612134    3.671311   -5.672217
     93          1           0       -2.813823    2.545116   -4.304825
     94          1           0       -1.594900    3.935921   -4.388037
     95          1           0       -7.897427   -0.794029   -3.950854
     96          1           0       -6.370352   -0.733086   -4.892423
     97          1           0       -7.223781    0.763180   -4.451286
     98          1           0       -4.759980   -4.019377   -1.014496
     99          1           0       -7.151095   -6.723988    1.480908
    100          1           0       -7.700341   -5.214150    2.172637
    101          1           0       -6.066978   -5.815951    2.462814
    102          1           0        2.120753   -5.509878   -1.381333
    103          1           0        2.227401   -5.316812    0.317744
    104          1           0        3.064647   -3.129549    0.107698
    105          1           0        1.883918   -4.380418   -3.249836
    106          1           0        3.302624   -3.706030   -3.971181
    107          1           0        1.856086   -2.739742   -3.721245
    108          1           0        3.001229   -0.880279   -1.395226
    109          1           0        3.662751   -1.340477   -3.079621
    110          1           0        5.284523   -2.588595   -1.114284
    111          1           0        4.818603   -1.124388   -0.362126
    112          1           0        5.924274   -0.962116   -3.203873
    113          1           0        6.971646   -1.145326   -1.819321
    114          1           0        5.249823    1.054269   -1.123919
    115          1           0        6.298316    2.639884   -2.907551
    116          1           0        4.739320    1.707698   -3.166361
    117          1           0        6.312404    1.142987   -3.824321
    118          1           0        7.439732    2.340433   -0.901299
    119          1           0        8.271749    0.989219   -1.524882
    120          1           0        6.297352    0.180642    0.599673
    121          1           0        7.312309    1.350751    1.207937
    122          1           0        8.924320   -0.725448   -0.212404
    123          1           0        7.653078   -1.524385    0.726307
    124          1           0        8.886869    0.438767    2.388864
    125          1           0        7.593824   -1.480869    3.069213
    126          1           0        9.029884   -0.971883    3.974800
    127          1           0        9.103507   -2.337248    2.916410
    128          1           0       10.794303   -1.702653    1.174260
    129          1           0       11.128189   -0.908798    2.733613
    130          1           0       12.479132    0.530129    1.621856
    131          1           0       10.921143    1.272691    1.232130
    132          1           0       11.154060    1.038597   -0.957055
    133          1           0       11.439593   -0.704570   -0.880556
    134          1           0       13.296055    1.695732   -0.524182
    135          1           0       12.193172    0.337235   -3.067432
    136          1           0       13.930013    0.464162   -3.081928
    137          1           0       13.069468    1.911663   -2.729195
    138          1           0       14.923199   -0.568046   -1.328995
    139          1           0       13.933019   -0.970480    0.112887
    140          1           0       14.951321    0.466248    0.144197
 ---------------------------------------------------------------------

 SCF Done:  E(RCAM-B3LYP) =  -3007.14998178     A.U. after   17 cycles

 Excitation energies and oscillator strengths:

 Excited State   1:      Singlet-A      1.7647 eV  702.58 nm  f=0.3652  <S**2>=0.000
     245 -> 248        0.18758
     246 -> 247        0.68380
     245 <- 248        0.10932
 This state for optimization and/or second-order correction.
 Total Energy, E(TD-HF/TD-DFT) =  -3007.08513014
 Copying the excited state density for this state as the 1-particle RhoCI density.

 Excited State   2:      Singlet-A      2.2491 eV  551.25 nm  f=0.1426  <S**2>=0.000
     245 -> 247        0.65044
     246 -> 248       -0.26755

 Excited State   3:      Singlet-A      3.4037 eV  364.27 nm  f=0.0006  <S**2>=0.000
     243 -> 247        0.21402
     244 -> 247        0.64779
     246 -> 248        0.11403

 Excited State   4:      Singlet-A      3.5635 eV  347.92 nm  f=0.0003  <S**2>=0.000
     243 -> 247        0.54802
     243 -> 249       -0.21093
     243 -> 251       -0.26304
     244 -> 247       -0.16805
     244 -> 251        0.12468

 Excited State   5:      Singlet-A      3.6381 eV  340.79 nm  f=0.0032  <S**2>=0.000
     239 -> 247       -0.21124
     239 -> 249       -0.12562
     240 -> 247       -0.10780
     240 -> 249       -0.14464
     241 -> 247        0.58506
     243 -> 247       -0.10627
     246 -> 248        0.12851

 The electronic state is 1-A.
 Alpha  occ. eigenvalues --  -46.89589 -19.25708 -19.24360 -19.21537 -19.20064
 Alpha  occ. eigenvalues --  -19.19689 -19.18065 -14.42609 -14.41943 -14.39898
 Alpha  occ. eigenvalues --  -14.39594 -10.40548 -10.39120 -10.35748 -10.34169
 Alpha  occ. eigenvalues --  -10.31636 -10.31508 -10.31478 -10.31225 -10.31196
 Alpha  occ. eigenvalues --  -10.30961 -10.30869 -10.30348 -10.29558 -10.29114
 Alpha  occ. eigenvalues --  -10.28882 -10.28727 -10.28689 -10.28603 -10.28524
 Alpha  occ. eigenvalues --  -10.28142 -10.28115 -10.27578 -10.27485 -10.27266
 Alpha  occ. eigenvalues --  -10.27259 -10.27238 -10.27051 -10.27032 -10.26987
 Alpha  occ. eigenvalues --  -10.26310 -10.26271 -10.26178 -10.26091 -10.25878
 Alpha  occ. eigenvalues --  -10.25777 -10.25762 -10.25645 -10.25580 -10.25537
 Alpha  occ. eigenvalues --  -10.25353 -10.25305 -10.25279 -10.25258 -10.25232
 Alpha  occ. eigenvalues --  -10.25157 -10.24937 -10.24887 -10.24872 -10.24864
 Alpha  occ. eigenvalues --  -10.24750 -10.24650 -10.24580 -10.24206 -10.24201
 Alpha  occ. eigenvalues --  -10.23580  -3.18069  -1.92960  -1.92491  -1.92410
 Alpha  occ. eigenvalues --   -1.16565  -1.16276  -1.11870  -1.11267  -1.09215
 Alpha  occ. eigenvalues --   -1.07856  -1.06469  -1.03941  -1.02775  -1.01741
 Alpha  occ. eigenvalues --   -0.93472  -0.90772  -0.89602  -0.88871  -0.88450
 Alpha  occ. eigenvalues --   -0.88427  -0.88036  -0.87309  -0.86891  -0.86550
 Alpha  occ. eigenvalues --   -0.85734  -0.84995  -0.84160  -0.83899  -0.83386
 Alpha  occ. eigenvalues --   -0.82501  -0.82283  -0.81125  -0.80656  -0.80633
 Alpha  occ. eigenvalues --   -0.79998  -0.77912  -0.77692  -0.77409  -0.76440
 Alpha  occ. eigenvalues --   -0.75617  -0.75475  -0.75201  -0.74528  -0.73883
 Alpha  occ. eigenvalues --   -0.73306  -0.72700  -0.71322  -0.70292  -0.69594
 Alpha  occ. eigenvalues --   -0.68827  -0.67964  -0.66922  -0.66708  -0.65635
 Alpha  occ. eigenvalues --   -0.65513  -0.65141  -0.64774  -0.64512  -0.63358
 Alpha  occ. eigenvalues --   -0.63010  -0.62972  -0.62801  -0.62304  -0.59968
 Alpha  occ. eigenvalues --   -0.59804  -0.59417  -0.58990  -0.58702  -0.57934
 Alpha  occ. eigenvalues --   -0.57386  -0.56972  -0.56330  -0.55901  -0.55692
 Alpha  occ. eigenvalues --   -0.55156  -0.55032  -0.54734  -0.54466  -0.54256
 Alpha  occ. eigenvalues --   -0.53681  -0.53539  -0.53194  -0.53063  -0.52841
 Alpha  occ. eigenvalues --   -0.52582  -0.52382  -0.52308  -0.52202  -0.51987
 Alpha  occ. eigenvalues --   -0.51642  -0.51193  -0.51105  -0.51007  -0.50632
 Alpha  occ. eigenvalues --   -0.50481  -0.50221  -0.50026  -0.49821  -0.49777
 Alpha  occ. eigenvalues --   -0.49745  -0.49496  -0.49008  -0.48782  -0.48538
 Alpha  occ. eigenvalues --   -0.48381  -0.48143  -0.47998  -0.47928  -0.47465
 Alpha  occ. eigenvalues --   -0.47264  -0.47180  -0.47055  -0.46721  -0.46503
 Alpha  occ. eigenvalues --   -0.46427  -0.46269  -0.46132  -0.45996  -0.45943
 Alpha  occ. eigenvalues --   -0.45931  -0.45758  -0.45629  -0.45298  -0.45180
 Alpha  occ. eigenvalues --   -0.44889  -0.44660  -0.44445  -0.44264  -0.44066
 Alpha  occ. eigenvalues --   -0.43635  -0.43562  -0.43382  -0.43135  -0.42976
 Alpha  occ. eigenvalues --   -0.42836  -0.42739  -0.42521  -0.42311  -0.42274
 Alpha  occ. eigenvalues --   -0.41878  -0.41833  -0.41629  -0.41377  -0.41187
 Alpha  occ. eigenvalues --   -0.40972  -0.40800  -0.40618  -0.40363  -0.39817
 Alpha  occ. eigenvalues --   -0.39673  -0.39534  -0.38870  -0.38656  -0.38257
 Alpha  occ. eigenvalues --   -0.38086  -0.37958  -0.37949  -0.37654  -0.37256
 Alpha  occ. eigenvalues --   -0.37076  -0.36898  -0.36802  -0.36324  -0.36137
 Alpha  occ. eigenvalues --   -0.36024  -0.35736  -0.35657  -0.34598  -0.34402
 Alpha  occ. eigenvalues --   -0.34356  -0.34020  -0.33421  -0.31716  -0.31567
 Alpha  occ. eigenvalues --   -0.30509  -0.30436  -0.30316  -0.30027  -0.24085
 Alpha  occ. eigenvalues --   -0.21619
 Alpha virt. eigenvalues --   -0.08880  -0.01543   0.00389   0.02254   0.02596
 Alpha virt. eigenvalues --    0.04178   0.04305   0.05703   0.06012   0.06526
 Alpha virt. eigenvalues --    0.07657   0.08339   0.08851   0.09049   0.09330

 Mulliken charges:
               1
     1  Mg   0.826340
     2  C   -0.041245
     3  C   -0.017325
     4  C   -0.065656
     5  C   -0.077367
     6  N   -0.237016
     7  C   -0.100814
     8  C   -0.021268
     9  C   -0.073892
    10  C   -0.035372
    11  C    0.058122
    12  C    0.063778
    13  C    0.047118
    14  C    0.150926
    15  O   -0.207096
    16  O   -0.335891
    17  N   -0.348779
    18  C    0.130546
    19  C   -0.137004
    20  C   -0.028944
    21  C    0.109284
    22  C    0.135459
    23  C   -0.034247
    24  O   -0.182860
    25  C    0.078944
    26  N   -0.301045
    27  C    0.072241
    28  C   -0.065345
    29  C    0.017346
    30  C    0.033602
    31  C    0.063130
    32  C    0.012051
    33  C    0.012850
    34  N   -0.335466
    35  C    0.100357
    36  C   -0.207534
    37  C   -0.019299
    38  C    0.152838
    39  C    0.123483
    40  C    0.042133
    41  O   -0.132003
    42  C   -0.026725
    43  C    0.228811
    44  O   -0.198653
    45  O   -0.338109
    46  C    0.162414
    47  C    0.279343
    48  C   -0.129818
    49  C   -0.158394
    50  C    0.055184
    51  C    0.124169
    52  C   -0.053911
    53  C    0.051591
    54  C   -0.155090
    55  C    0.064192
    56  C    0.037796
    57  C    0.029943
    58  C    0.079611
    59  C   -0.132266
    60  C    0.030497
    61  C    0.042638
    62  C    0.058974
    63  C   -0.010258
    64  C   -0.171329
    65  C    0.025915
    66  C    0.064074
    67  H   -0.012208
    68  H   -0.057221
    69  H   -0.034844
    70  H    0.007201
    71  H    0.020528
    72  H    0.029580
    73  H    0.027696
    74  H    0.020185
    75  H    0.015820
    76  H    0.021263
    77  H    0.052384
    78  H    0.032970
    79  H    0.040191
    80  H   -0.013741
    81  H    0.034671
    82  H    0.045954
    83  H    0.025033
    84  H    0.029518
    85  H    0.015490
    86  H    0.006647
    87  H    0.001615
    88  H    0.027351
    89  H    0.012756
    90  H   -0.006332
    91  H    0.014496
    92  H    0.003381
    93  H    0.047264
    94  H    0.009414
    95  H    0.034547
    96  H    0.034416
    97  H    0.008755
    98  H    0.056171
    99  H    0.030608
   100  H    0.052382
   101  H    0.023574
   102  H    0.015787
   103  H    0.027631
   104  H    0.000011
   105  H    0.012448
   106  H    0.016519
   107  H    0.025088
   108  H    0.027902
   109  H   -0.001837
   110  H    0.011549
   111  H    0.003147
   112  H    0.002835
   113  H   -0.012543
   114  H   -0.005379
   115  H   -0.002192
   116  H    0.016081
   117  H   -0.000417
   118  H   -0.008751
   119  H    0.001299
   120  H   -0.015167
   121  H   -0.000877
   122  H    0.001863
   123  H   -0.005198
   124  H   -0.008580
   125  H    0.003055
   126  H    0.002583
   127  H   -0.012174
   128  H    0.001813
   129  H   -0.009620
   130  H    0.000190
   131  H   -0.003152
   132  H    0.004416
   133  H    0.008581
   134  H    0.000772
   135  H    0.023022
   136  H   -0.003622
   137  H    0.011990
   138  H    0.012485
   139  H    0.006988
   140  H    0.008260
 Sum of Mulliken charges =  -0.00000

 Dipole moment (field-independent basis, Debye):
    X=              1.6880    Y=              2.0207    Z=             -2.0973  Tot=              3.3662
 Quadrupole moment (field-independent basis, Debye-Ang):
   XX=           -414.6268   YY=           -395.0073   ZZ=           -407.6665
   XY=            -18.3206   XZ=            -12.8529   YZ=            -33.2885

 Normal termination of Gaussian 16 at Wed Apr 27 00:42:34 2022.
