 Gaussian 16, Revision A.03,
 Gaussian 16:  ES64L-G16RevA.03 25-Dec-2016

 ---------------------------------
 #p PBE1PBE/Def2SVP td=(nstates=5)
 ---------------------------------

 -----------------------------------------------------
 step_101_chromophore_26 TDDFT with PBE1PBE functional
 -----------------------------------------------------
 Symbolic Z-matrix:
 Charge =  0 Multiplicity = 1

                         Standard orientation:
 ---------------------------------------------------------------------
 Center     Atomic      Atomic             Coordinates (Angstroms)
 Number     Number       Type             X           Y           Z
 ---------------------------------------------------------------------
      1         12           0       -3.875626    1.261664    0.241512
      2          6           0       -4.762449   -2.010834   -0.142892
      3          6           0       -2.137147    0.425909    3.120498
      4          6           0       -2.823115    4.562001    0.606724
      5          6           0       -5.274079    2.102052   -2.782462
      6          7           0       -3.377204   -0.693883    1.333451
      7          6           0       -3.943251   -1.875446    1.008023
      8          6           0       -3.562415   -3.009940    2.019474
      9          6           0       -2.953677   -2.063096    3.251147
     10          6           0       -2.745850   -0.667484    2.513658
     11          6           0       -3.930283   -1.869824    4.436437
     12          6           0       -2.701936   -4.136436    1.427985
     13          6           0       -1.659439   -3.811988    0.315980
     14          6           0       -0.207615   -4.299957    0.542596
     15          8           0        0.340042   -4.397336    1.603506
     16          8           0        0.377086   -4.674924   -0.638970
     17          7           0       -2.565410    2.362818    1.625679
     18          6           0       -2.090308    1.799885    2.812972
     19          6           0       -1.405691    2.850292    3.594644
     20          6           0       -1.657271    4.080725    2.932040
     21          6           0       -2.398639    3.722408    1.718246
     22          6           0       -0.706408    2.593842    4.941512
     23          6           0       -1.374998    5.486377    3.467683
     24          8           0       -1.059055    5.713087    4.600929
     25          6           0       -1.672761    6.704873    2.734096
     26          7           0       -3.867289    3.042040   -0.976961
     27          6           0       -3.470615    4.274925   -0.555784
     28          6           0       -3.742086    5.431726   -1.568095
     29          6           0       -4.398447    4.598279   -2.772652
     30          6           0       -4.509445    3.167060   -2.210231
     31          6           0       -4.597815    6.594572   -1.130675
     32          6           0       -3.610141    4.703377   -4.137524
     33          6           0       -2.604814    3.576765   -4.586544
     34          7           0       -4.808767    0.326435   -1.212139
     35          6           0       -5.427749    0.757622   -2.284862
     36          6           0       -6.176441   -0.320018   -2.850437
     37          6           0       -5.983804   -1.442967   -2.018792
     38          6           0       -5.079319   -0.963758   -1.068853
     39          6           0       -6.971769   -0.245580   -4.125326
     40          6           0       -6.338230   -2.863487   -1.815123
     41          8           0       -6.977711   -3.644657   -2.465177
     42          6           0       -5.444135   -3.271360   -0.612662
     43          6           0       -6.464578   -3.763853    0.396268
     44          8           0       -7.173295   -3.066579    1.096539
     45          8           0       -6.266103   -5.152979    0.499019
     46          6           0       -6.843532   -5.702222    1.706793
     47          6           0        1.856813   -4.820503   -0.579121
     48          6           0        2.569311   -3.490209   -0.793608
     49          6           0        2.980702   -2.950576   -1.927085
     50          6           0        2.505452   -3.484501   -3.262189
     51          6           0        3.590643   -1.556646   -2.014376
     52          6           0        4.957109   -1.574762   -1.344986
     53          6           0        6.036353   -0.696187   -2.152745
     54          6           0        6.106794    0.822353   -1.756072
     55          6           0        5.816702    1.666980   -3.006815
     56          6           0        7.399915    1.252170   -0.925483
     57          6           0        7.315779    0.548317    0.470528
     58          6           0        8.255097   -0.619894    0.641908
     59          6           0        9.178205   -0.490428    1.899733
     60          6           0        8.673564   -1.340249    3.012575
     61          6           0       10.748205   -0.761877    1.722235
     62          6           0       11.535821    0.383235    1.095754
     63          6           0       11.743316    0.259813   -0.473440
     64          6           0       13.164148    0.709887   -0.970980
     65          6           0       13.033932    0.831967   -2.582282
     66          6           0       14.340853   -0.166582   -0.499978
     67          1           0       -1.980548    0.138207    4.162223
     68          1           0       -2.494148    5.597955    0.711075
     69          1           0       -5.795392    2.316810   -3.717241
     70          1           0       -4.531914   -3.366168    2.367427
     71          1           0       -2.030710   -2.549242    3.568806
     72          1           0       -4.470668   -0.943892    4.240122
     73          1           0       -3.364050   -1.860906    5.368080
     74          1           0       -4.680849   -2.648042    4.572977
     75          1           0       -3.402720   -4.906056    1.103490
     76          1           0       -2.148073   -4.533713    2.279497
     77          1           0       -1.666527   -2.736138    0.489331
     78          1           0       -2.040650   -4.099694   -0.663577
     79          1           0        0.377034    2.712364    4.941785
     80          1           0       -0.969036    1.590409    5.274786
     81          1           0       -1.151011    3.188727    5.739012
     82          1           0       -2.699578    6.706059    2.369130
     83          1           0       -0.968132    6.624727    1.906446
     84          1           0       -1.416015    7.558196    3.360703
     85          1           0       -2.830271    5.933022   -1.893376
     86          1           0       -5.416573    4.968544   -2.884756
     87          1           0       -3.925132    7.430708   -0.942708
     88          1           0       -5.203766    6.420944   -0.240460
     89          1           0       -5.173896    7.047140   -1.937484
     90          1           0       -2.902244    5.513333   -3.959782
     91          1           0       -4.288226    5.003395   -4.936925
     92          1           0       -2.612134    3.671311   -5.672217
     93          1           0       -2.813823    2.545116   -4.304825
     94          1           0       -1.594900    3.935921   -4.388037
     95          1           0       -7.897427   -0.794029   -3.950854
     96          1           0       -6.370352   -0.733086   -4.892423
     97          1           0       -7.223781    0.763180   -4.451286
     98          1           0       -4.759980   -4.019377   -1.014496
     99          1           0       -7.151095   -6.723988    1.480908
    100          1           0       -7.700341   -5.214150    2.172637
    101          1           0       -6.066978   -5.815951    2.462814
    102          1           0        2.120753   -5.509878   -1.381333
    103          1           0        2.227401   -5.316812    0.317744
    104          1           0        3.064647   -3.129549    0.107698
    105          1           0        1.883918   -4.380418   -3.249836
    106          1           0        3.302624   -3.706030   -3.971181
    107          1           0        1.856086   -2.739742   -3.721245
    108          1           0        3.001229   -0.880279   -1.395226
    109          1           0        3.662751   -1.340477   -3.079621
    110          1           0        5.284523   -2.588595   -1.114284
    111          1           0        4.818603   -1.124388   -0.362126
    112          1           0        5.924274   -0.962116   -3.203873
    113          1           0        6.971646   -1.145326   -1.819321
    114          1           0        5.249823    1.054269   -1.123919
    115          1           0        6.298316    2.639884   -2.907551
    116          1           0        4.739320    1.707698   -3.166361
    117          1           0        6.312404    1.142987   -3.824321
    118          1           0        7.439732    2.340433   -0.901299
    119          1           0        8.271749    0.989219   -1.524882
    120          1           0        6.297352    0.180642    0.599673
    121          1           0        7.312309    1.350751    1.207937
    122          1           0        8.924320   -0.725448   -0.212404
    123          1           0        7.653078   -1.524385    0.726307
    124          1           0        8.886869    0.438767    2.388864
    125          1           0        7.593824   -1.480869    3.069213
    126          1           0        9.029884   -0.971883    3.974800
    127          1           0        9.103507   -2.337248    2.916410
    128          1           0       10.794303   -1.702653    1.174260
    129          1           0       11.128189   -0.908798    2.733613
    130          1           0       12.479132    0.530129    1.621856
    131          1           0       10.921143    1.272691    1.232130
    132          1           0       11.154060    1.038597   -0.957055
    133          1           0       11.439593   -0.704570   -0.880556
    134          1           0       13.296055    1.695732   -0.524182
    135          1           0       12.193172    0.337235   -3.067432
    136          1           0       13.930013    0.464162   -3.081928
    137          1           0       13.069468    1.911663   -2.729195
    138          1           0       14.923199   -0.568046   -1.328995
    139          1           0       13.933019   -0.970480    0.112887
    140          1           0       14.951321    0.466248    0.144197
 ---------------------------------------------------------------------

 SCF Done:  E(RPBE1PBE) =  -3005.33879328     A.U. after   15 cycles

 Excitation energies and oscillator strengths:

 Excited State   1:      Singlet-A      1.9246 eV  644.19 nm  f=0.3523  <S**2>=0.000
     245 -> 248       -0.18332
     246 -> 247        0.69025
     246 <- 247       -0.10306
 This state for optimization and/or second-order correction.
 Total Energy, E(TD-HF/TD-DFT) =  -3005.26806390
 Copying the excited state density for this state as the 1-particle RhoCI density.

 Excited State   2:      Singlet-A      2.2630 eV  547.87 nm  f=0.1370  <S**2>=0.000
     245 -> 247        0.65954
     246 -> 248        0.24781

 Excited State   3:      Singlet-A      2.9051 eV  426.78 nm  f=0.0006  <S**2>=0.000
     244 -> 247        0.68427
     244 -> 249        0.11171
     244 -> 250        0.12021

 Excited State   4:      Singlet-A      3.0818 eV  402.31 nm  f=0.0047  <S**2>=0.000
     243 -> 247        0.69758

 Excited State   5:      Singlet-A      3.1836 eV  389.44 nm  f=0.0033  <S**2>=0.000
     240 -> 247       -0.31763
     240 -> 249        0.13242
     241 -> 247        0.60064

 The electronic state is 1-A.
 Alpha  occ. eigenvalues --  -46.92964 -19.26365 -19.25040 -19.21724 -19.20295
 Alpha  occ. eigenvalues --  -19.19914 -19.18222 -14.41964 -14.41603 -14.39479
 Alpha  occ. eigenvalues --  -14.39233 -10.37561 -10.36110 -10.32937 -10.31247
 Alpha  occ. eigenvalues --  -10.29330 -10.29020 -10.29017 -10.28865 -10.28734
 Alpha  occ. eigenvalues --  -10.28507 -10.28492 -10.27941 -10.27350 -10.26895
 Alpha  occ. eigenvalues --  -10.26500 -10.26414 -10.26412 -10.26412 -10.26138
 Alpha  occ. eigenvalues --  -10.26011 -10.25970 -10.25343 -10.25060 -10.25042
 Alpha  occ. eigenvalues --  -10.24879 -10.24722 -10.24681 -10.24675 -10.24637
 Alpha  occ. eigenvalues --  -10.24036 -10.23768 -10.23699 -10.23654 -10.23469
 Alpha  occ. eigenvalues --  -10.23299 -10.23205 -10.23169 -10.23053 -10.23039
 Alpha  occ. eigenvalues --  -10.22948 -10.22910 -10.22879 -10.22828 -10.22706
 Alpha  occ. eigenvalues --  -10.22581 -10.22574 -10.22473 -10.22423 -10.22381
 Alpha  occ. eigenvalues --  -10.22288 -10.22104 -10.22072 -10.21577 -10.21558
 Alpha  occ. eigenvalues --  -10.20938  -3.15030  -1.87861  -1.87370  -1.87294
 Alpha  occ. eigenvalues --   -1.11290  -1.11054  -1.06654  -1.05980  -1.04026
 Alpha  occ. eigenvalues --   -1.02710  -1.01285  -0.98477  -0.97383  -0.96331
 Alpha  occ. eigenvalues --   -0.87828  -0.84892  -0.83664  -0.83058  -0.82749
 Alpha  occ. eigenvalues --   -0.82700  -0.82105  -0.81633  -0.80972  -0.80935
 Alpha  occ. eigenvalues --   -0.79938  -0.79195  -0.78377  -0.78163  -0.77563
 Alpha  occ. eigenvalues --   -0.76646  -0.76491  -0.75364  -0.75005  -0.74823
 Alpha  occ. eigenvalues --   -0.74198  -0.72202  -0.71990  -0.71648  -0.70761
 Alpha  occ. eigenvalues --   -0.69793  -0.69545  -0.69519  -0.68667  -0.68022
 Alpha  occ. eigenvalues --   -0.67657  -0.67088  -0.65761  -0.64589  -0.64030
 Alpha  occ. eigenvalues --   -0.63287  -0.62137  -0.61265  -0.60991  -0.60027
 Alpha  occ. eigenvalues --   -0.59814  -0.59557  -0.59284  -0.59059  -0.57585
 Alpha  occ. eigenvalues --   -0.57455  -0.57355  -0.57091  -0.56478  -0.54522
 Alpha  occ. eigenvalues --   -0.54434  -0.53777  -0.53531  -0.53084  -0.52362
 Alpha  occ. eigenvalues --   -0.51973  -0.51390  -0.50777  -0.50464  -0.50201
 Alpha  occ. eigenvalues --   -0.49759  -0.49506  -0.49321  -0.48905  -0.48744
 Alpha  occ. eigenvalues --   -0.48246  -0.48094  -0.47588  -0.47502  -0.47259
 Alpha  occ. eigenvalues --   -0.47085  -0.46885  -0.46844  -0.46774  -0.46475
 Alpha  occ. eigenvalues --   -0.46148  -0.45835  -0.45682  -0.45486  -0.45104
 Alpha  occ. eigenvalues --   -0.45052  -0.44768  -0.44603  -0.44472  -0.44313
 Alpha  occ. eigenvalues --   -0.44268  -0.43956  -0.43593  -0.43328  -0.43136
 Alpha  occ. eigenvalues --   -0.43022  -0.42760  -0.42637  -0.42535  -0.42164
 Alpha  occ. eigenvalues --   -0.41831  -0.41752  -0.41663  -0.41362  -0.41258
 Alpha  occ. eigenvalues --   -0.41053  -0.40846  -0.40823  -0.40716  -0.40631
 Alpha  occ. eigenvalues --   -0.40577  -0.40487  -0.40440  -0.39923  -0.39880
 Alpha  occ. eigenvalues --   -0.39605  -0.39419  -0.39145  -0.38960  -0.38698
 Alpha  occ. eigenvalues --   -0.38442  -0.38344  -0.38096  -0.37926  -0.37770
 Alpha  occ. eigenvalues --   -0.37659  -0.37559  -0.37315  -0.37131  -0.37093
 Alpha  occ. eigenvalues --   -0.36612  -0.36586  -0.36524  -0.36121  -0.36097
 Alpha  occ. eigenvalues --   -0.35688  -0.35546  -0.35497  -0.35304  -0.34683
 Alpha  occ. eigenvalues --   -0.34428  -0.34395  -0.33654  -0.33470  -0.33045
 Alpha  occ. eigenvalues --   -0.33003  -0.32911  -0.32684  -0.32653  -0.32338
 Alpha  occ. eigenvalues --   -0.31987  -0.31730  -0.31645  -0.31153  -0.31136
 Alpha  occ. eigenvalues --   -0.30925  -0.30626  -0.30532  -0.29577  -0.29563
 Alpha  occ. eigenvalues --   -0.29173  -0.29060  -0.28968  -0.27316  -0.26669
 Alpha  occ. eigenvalues --   -0.26071  -0.25696  -0.25604  -0.24912  -0.21048
 Alpha  occ. eigenvalues --   -0.19209
 Alpha virt. eigenvalues --   -0.11326  -0.05043  -0.03889  -0.01839  -0.00578
 Alpha virt. eigenvalues --   -0.00351  -0.00124   0.01385   0.01693   0.02762
 Alpha virt. eigenvalues --    0.03703   0.04749   0.05180   0.05655   0.05809

 Mulliken charges:
               1
     1  Mg   0.970584
     2  C   -0.043935
     3  C   -0.015877
     4  C   -0.061687
     5  C   -0.067915
     6  N   -0.340822
     7  C   -0.019448
     8  C   -0.088495
     9  C   -0.149705
    10  C    0.003425
    11  C    0.002019
    12  C    0.016517
    13  C   -0.045473
    14  C    0.227483
    15  O   -0.241607
    16  O   -0.366212
    17  N   -0.450942
    18  C    0.145506
    19  C   -0.156497
    20  C   -0.081547
    21  C    0.142855
    22  C    0.078797
    23  C    0.023380
    24  O   -0.218971
    25  C   -0.005706
    26  N   -0.402892
    27  C    0.101897
    28  C   -0.135599
    29  C   -0.055181
    30  C    0.070341
    31  C    0.005537
    32  C   -0.048300
    33  C   -0.060785
    34  N   -0.479815
    35  C    0.126300
    36  C   -0.230592
    37  C   -0.057354
    38  C    0.194427
    39  C    0.071397
    40  C    0.138967
    41  O   -0.179858
    42  C   -0.139402
    43  C    0.314560
    44  O   -0.232660
    45  O   -0.369224
    46  C    0.107058
    47  C    0.225280
    48  C   -0.129449
    49  C   -0.203188
    50  C   -0.009802
    51  C    0.061085
    52  C   -0.116032
    53  C   -0.005231
    54  C   -0.238724
    55  C    0.001071
    56  C   -0.017030
    57  C   -0.034299
    58  C    0.022462
    59  C   -0.211562
    60  C   -0.031033
    61  C   -0.017857
    62  C   -0.003344
    63  C   -0.070400
    64  C   -0.255186
    65  C   -0.037394
    66  C    0.001933
    67  H    0.018479
    68  H   -0.022419
    69  H   -0.000843
    70  H    0.050639
    71  H    0.055231
    72  H    0.057873
    73  H    0.054352
    74  H    0.046840
    75  H    0.049901
    76  H    0.053763
    77  H    0.093137
    78  H    0.064463
    79  H    0.066323
    80  H    0.014415
    81  H    0.061063
    82  H    0.072173
    83  H    0.052947
    84  H    0.057843
    85  H    0.051171
    86  H    0.044016
    87  H    0.029081
    88  H    0.054799
    89  H    0.040391
    90  H    0.027880
    91  H    0.045105
    92  H    0.032388
    93  H    0.074748
    94  H    0.037764
    95  H    0.062709
    96  H    0.063370
    97  H    0.035506
    98  H    0.091797
    99  H    0.053068
   100  H    0.073484
   101  H    0.045583
   102  H    0.043128
   103  H    0.054788
   104  H    0.029829
   105  H    0.039031
   106  H    0.044958
   107  H    0.053144
   108  H    0.061108
   109  H    0.029840
   110  H    0.042884
   111  H    0.036295
   112  H    0.034037
   113  H    0.024705
   114  H    0.034488
   115  H    0.025784
   116  H    0.043950
   117  H    0.027990
   118  H    0.023196
   119  H    0.034128
   120  H    0.019495
   121  H    0.030175
   122  H    0.036038
   123  H    0.027738
   124  H    0.029120
   125  H    0.031257
   126  H    0.031093
   127  H    0.017033
   128  H    0.033863
   129  H    0.023745
   130  H    0.031502
   131  H    0.031010
   132  H    0.040176
   133  H    0.038444
   134  H    0.037920
   135  H    0.048766
   136  H    0.024204
   137  H    0.040067
   138  H    0.039230
   139  H    0.035614
   140  H    0.035338
 Sum of Mulliken charges =  -0.00000

 Dipole moment (field-independent basis, Debye):
    X=              1.5705    Y=              2.1088    Z=             -2.3507  Tot=              3.5269
 Quadrupole moment (field-independent basis, Debye-Ang):
   XX=           -411.2787   YY=           -391.3179   ZZ=           -403.4738
   XY=            -18.6764   XZ=            -11.4820   YZ=            -34.6065

 Normal termination of Gaussian 16 at Wed Apr 27 01:00:01 2022.
