 Gaussian 16, Revision A.03,
 Gaussian 16:  ES64L-G16RevA.03 25-Dec-2016

 --------------------------------
 #p wB97XD/Def2SVP td=(nstates=5)
 --------------------------------

 ----------------------------------------------------
 step_101_chromophore_26 TDDFT with wB97XD functional
 ----------------------------------------------------
 Symbolic Z-matrix:
 Charge =  0 Multiplicity = 1

                         Standard orientation:
 ---------------------------------------------------------------------
 Center     Atomic      Atomic             Coordinates (Angstroms)
 Number     Number       Type             X           Y           Z
 ---------------------------------------------------------------------
      1         12           0       -3.875626    1.261664    0.241512
      2          6           0       -4.762449   -2.010834   -0.142892
      3          6           0       -2.137147    0.425909    3.120498
      4          6           0       -2.823115    4.562001    0.606724
      5          6           0       -5.274079    2.102052   -2.782462
      6          7           0       -3.377204   -0.693883    1.333451
      7          6           0       -3.943251   -1.875446    1.008023
      8          6           0       -3.562415   -3.009940    2.019474
      9          6           0       -2.953677   -2.063096    3.251147
     10          6           0       -2.745850   -0.667484    2.513658
     11          6           0       -3.930283   -1.869824    4.436437
     12          6           0       -2.701936   -4.136436    1.427985
     13          6           0       -1.659439   -3.811988    0.315980
     14          6           0       -0.207615   -4.299957    0.542596
     15          8           0        0.340042   -4.397336    1.603506
     16          8           0        0.377086   -4.674924   -0.638970
     17          7           0       -2.565410    2.362818    1.625679
     18          6           0       -2.090308    1.799885    2.812972
     19          6           0       -1.405691    2.850292    3.594644
     20          6           0       -1.657271    4.080725    2.932040
     21          6           0       -2.398639    3.722408    1.718246
     22          6           0       -0.706408    2.593842    4.941512
     23          6           0       -1.374998    5.486377    3.467683
     24          8           0       -1.059055    5.713087    4.600929
     25          6           0       -1.672761    6.704873    2.734096
     26          7           0       -3.867289    3.042040   -0.976961
     27          6           0       -3.470615    4.274925   -0.555784
     28          6           0       -3.742086    5.431726   -1.568095
     29          6           0       -4.398447    4.598279   -2.772652
     30          6           0       -4.509445    3.167060   -2.210231
     31          6           0       -4.597815    6.594572   -1.130675
     32          6           0       -3.610141    4.703377   -4.137524
     33          6           0       -2.604814    3.576765   -4.586544
     34          7           0       -4.808767    0.326435   -1.212139
     35          6           0       -5.427749    0.757622   -2.284862
     36          6           0       -6.176441   -0.320018   -2.850437
     37          6           0       -5.983804   -1.442967   -2.018792
     38          6           0       -5.079319   -0.963758   -1.068853
     39          6           0       -6.971769   -0.245580   -4.125326
     40          6           0       -6.338230   -2.863487   -1.815123
     41          8           0       -6.977711   -3.644657   -2.465177
     42          6           0       -5.444135   -3.271360   -0.612662
     43          6           0       -6.464578   -3.763853    0.396268
     44          8           0       -7.173295   -3.066579    1.096539
     45          8           0       -6.266103   -5.152979    0.499019
     46          6           0       -6.843532   -5.702222    1.706793
     47          6           0        1.856813   -4.820503   -0.579121
     48          6           0        2.569311   -3.490209   -0.793608
     49          6           0        2.980702   -2.950576   -1.927085
     50          6           0        2.505452   -3.484501   -3.262189
     51          6           0        3.590643   -1.556646   -2.014376
     52          6           0        4.957109   -1.574762   -1.344986
     53          6           0        6.036353   -0.696187   -2.152745
     54          6           0        6.106794    0.822353   -1.756072
     55          6           0        5.816702    1.666980   -3.006815
     56          6           0        7.399915    1.252170   -0.925483
     57          6           0        7.315779    0.548317    0.470528
     58          6           0        8.255097   -0.619894    0.641908
     59          6           0        9.178205   -0.490428    1.899733
     60          6           0        8.673564   -1.340249    3.012575
     61          6           0       10.748205   -0.761877    1.722235
     62          6           0       11.535821    0.383235    1.095754
     63          6           0       11.743316    0.259813   -0.473440
     64          6           0       13.164148    0.709887   -0.970980
     65          6           0       13.033932    0.831967   -2.582282
     66          6           0       14.340853   -0.166582   -0.499978
     67          1           0       -1.980548    0.138207    4.162223
     68          1           0       -2.494148    5.597955    0.711075
     69          1           0       -5.795392    2.316810   -3.717241
     70          1           0       -4.531914   -3.366168    2.367427
     71          1           0       -2.030710   -2.549242    3.568806
     72          1           0       -4.470668   -0.943892    4.240122
     73          1           0       -3.364050   -1.860906    5.368080
     74          1           0       -4.680849   -2.648042    4.572977
     75          1           0       -3.402720   -4.906056    1.103490
     76          1           0       -2.148073   -4.533713    2.279497
     77          1           0       -1.666527   -2.736138    0.489331
     78          1           0       -2.040650   -4.099694   -0.663577
     79          1           0        0.377034    2.712364    4.941785
     80          1           0       -0.969036    1.590409    5.274786
     81          1           0       -1.151011    3.188727    5.739012
     82          1           0       -2.699578    6.706059    2.369130
     83          1           0       -0.968132    6.624727    1.906446
     84          1           0       -1.416015    7.558196    3.360703
     85          1           0       -2.830271    5.933022   -1.893376
     86          1           0       -5.416573    4.968544   -2.884756
     87          1           0       -3.925132    7.430708   -0.942708
     88          1           0       -5.203766    6.420944   -0.240460
     89          1           0       -5.173896    7.047140   -1.937484
     90          1           0       -2.902244    5.513333   -3.959782
     91          1           0       -4.288226    5.003395   -4.936925
     92          1           0       -2.612134    3.671311   -5.672217
     93          1           0       -2.813823    2.545116   -4.304825
     94          1           0       -1.594900    3.935921   -4.388037
     95          1           0       -7.897427   -0.794029   -3.950854
     96          1           0       -6.370352   -0.733086   -4.892423
     97          1           0       -7.223781    0.763180   -4.451286
     98          1           0       -4.759980   -4.019377   -1.014496
     99          1           0       -7.151095   -6.723988    1.480908
    100          1           0       -7.700341   -5.214150    2.172637
    101          1           0       -6.066978   -5.815951    2.462814
    102          1           0        2.120753   -5.509878   -1.381333
    103          1           0        2.227401   -5.316812    0.317744
    104          1           0        3.064647   -3.129549    0.107698
    105          1           0        1.883918   -4.380418   -3.249836
    106          1           0        3.302624   -3.706030   -3.971181
    107          1           0        1.856086   -2.739742   -3.721245
    108          1           0        3.001229   -0.880279   -1.395226
    109          1           0        3.662751   -1.340477   -3.079621
    110          1           0        5.284523   -2.588595   -1.114284
    111          1           0        4.818603   -1.124388   -0.362126
    112          1           0        5.924274   -0.962116   -3.203873
    113          1           0        6.971646   -1.145326   -1.819321
    114          1           0        5.249823    1.054269   -1.123919
    115          1           0        6.298316    2.639884   -2.907551
    116          1           0        4.739320    1.707698   -3.166361
    117          1           0        6.312404    1.142987   -3.824321
    118          1           0        7.439732    2.340433   -0.901299
    119          1           0        8.271749    0.989219   -1.524882
    120          1           0        6.297352    0.180642    0.599673
    121          1           0        7.312309    1.350751    1.207937
    122          1           0        8.924320   -0.725448   -0.212404
    123          1           0        7.653078   -1.524385    0.726307
    124          1           0        8.886869    0.438767    2.388864
    125          1           0        7.593824   -1.480869    3.069213
    126          1           0        9.029884   -0.971883    3.974800
    127          1           0        9.103507   -2.337248    2.916410
    128          1           0       10.794303   -1.702653    1.174260
    129          1           0       11.128189   -0.908798    2.733613
    130          1           0       12.479132    0.530129    1.621856
    131          1           0       10.921143    1.272691    1.232130
    132          1           0       11.154060    1.038597   -0.957055
    133          1           0       11.439593   -0.704570   -0.880556
    134          1           0       13.296055    1.695732   -0.524182
    135          1           0       12.193172    0.337235   -3.067432
    136          1           0       13.930013    0.464162   -3.081928
    137          1           0       13.069468    1.911663   -2.729195
    138          1           0       14.923199   -0.568046   -1.328995
    139          1           0       13.933019   -0.970480    0.112887
    140          1           0       14.951321    0.466248    0.144197
 ---------------------------------------------------------------------

 SCF Done:  E(RwB97XD) =  -3007.85208520     A.U. after   18 cycles

 Excitation energies and oscillator strengths:

 Excited State   1:      Singlet-A      1.7086 eV  725.66 nm  f=0.3642  <S**2>=0.000
     245 -> 248        0.19271
     246 -> 247        0.68168
     245 <- 248        0.11820
 This state for optimization and/or second-order correction.
 Total Energy, E(TD-HF/TD-DFT) =  -3007.78929608
 Copying the excited state density for this state as the 1-particle RhoCI density.

 Excited State   2:      Singlet-A      2.1968 eV  564.39 nm  f=0.1383  <S**2>=0.000
     245 -> 247        0.64809
     246 -> 248       -0.27041

 Excited State   3:      Singlet-A      3.4275 eV  361.73 nm  f=0.0010  <S**2>=0.000
     243 -> 247        0.50417
     244 -> 247       -0.44426
     246 -> 248        0.13569

 Excited State   4:      Singlet-A      3.5860 eV  345.74 nm  f=0.0004  <S**2>=0.000
     243 -> 247        0.37993
     243 -> 249       -0.15338
     243 -> 250       -0.17848
     244 -> 247        0.40442
     244 -> 249       -0.20616
     244 -> 250       -0.25893

 Excited State   5:      Singlet-A      3.6734 eV  337.52 nm  f=0.0433  <S**2>=0.000
     239 -> 247       -0.13761
     240 -> 247       -0.13383
     240 -> 249       -0.17776
     241 -> 247        0.56000
     241 -> 249        0.12044
     243 -> 247       -0.11597
     246 -> 248        0.23539

 The electronic state is 1-A.
 Alpha  occ. eigenvalues --  -46.95915 -19.30959 -19.29602 -19.26490 -19.25105
 Alpha  occ. eigenvalues --  -19.24607 -19.23079 -14.47195 -14.46524 -14.44511
 Alpha  occ. eigenvalues --  -14.44156 -10.44439 -10.42914 -10.39767 -10.38115
 Alpha  occ. eigenvalues --  -10.35536 -10.35501 -10.35264 -10.35261 -10.35212
 Alpha  occ. eigenvalues --  -10.35050 -10.34905 -10.34430 -10.33537 -10.33092
 Alpha  occ. eigenvalues --  -10.33074 -10.32853 -10.32800 -10.32684 -10.32588
 Alpha  occ. eigenvalues --  -10.32186 -10.32162 -10.31562 -10.31476 -10.31383
 Alpha  occ. eigenvalues --  -10.31349 -10.31247 -10.31014 -10.31011 -10.30915
 Alpha  occ. eigenvalues --  -10.30341 -10.30141 -10.30044 -10.30038 -10.29815
 Alpha  occ. eigenvalues --  -10.29733 -10.29621 -10.29548 -10.29387 -10.29346
 Alpha  occ. eigenvalues --  -10.29299 -10.29275 -10.29236 -10.29181 -10.29152
 Alpha  occ. eigenvalues --  -10.29085 -10.28864 -10.28842 -10.28792 -10.28774
 Alpha  occ. eigenvalues --  -10.28662 -10.28502 -10.28477 -10.28006 -10.27993
 Alpha  occ. eigenvalues --  -10.27392  -3.21854  -1.95433  -1.94941  -1.94857
 Alpha  occ. eigenvalues --   -1.18739  -1.18436  -1.14111  -1.13486  -1.11435
 Alpha  occ. eigenvalues --   -1.10057  -1.08500  -1.05944  -1.04773  -1.03786
 Alpha  occ. eigenvalues --   -0.95458  -0.92560  -0.91346  -0.90734  -0.90347
 Alpha  occ. eigenvalues --   -0.90293  -0.89787  -0.89226  -0.88648  -0.88472
 Alpha  occ. eigenvalues --   -0.87724  -0.86878  -0.86031  -0.85776  -0.85251
 Alpha  occ. eigenvalues --   -0.84319  -0.84192  -0.83025  -0.82596  -0.82488
 Alpha  occ. eigenvalues --   -0.81860  -0.79828  -0.79605  -0.79346  -0.78365
 Alpha  occ. eigenvalues --   -0.77452  -0.77252  -0.77137  -0.76345  -0.75701
 Alpha  occ. eigenvalues --   -0.75242  -0.74653  -0.73304  -0.72222  -0.71525
 Alpha  occ. eigenvalues --   -0.70817  -0.69801  -0.68880  -0.68624  -0.67536
 Alpha  occ. eigenvalues --   -0.67436  -0.67083  -0.66752  -0.66506  -0.65171
 Alpha  occ. eigenvalues --   -0.64975  -0.64798  -0.64770  -0.64126  -0.61934
 Alpha  occ. eigenvalues --   -0.61815  -0.61366  -0.60993  -0.60604  -0.59846
 Alpha  occ. eigenvalues --   -0.59381  -0.58884  -0.58247  -0.57857  -0.57627
 Alpha  occ. eigenvalues --   -0.57145  -0.56960  -0.56676  -0.56338  -0.56164
 Alpha  occ. eigenvalues --   -0.55604  -0.55472  -0.55037  -0.54961  -0.54776
 Alpha  occ. eigenvalues --   -0.54481  -0.54243  -0.54234  -0.54111  -0.53948
 Alpha  occ. eigenvalues --   -0.53526  -0.53082  -0.53012  -0.52877  -0.52484
 Alpha  occ. eigenvalues --   -0.52396  -0.52112  -0.51945  -0.51733  -0.51674
 Alpha  occ. eigenvalues --   -0.51646  -0.51418  -0.50974  -0.50663  -0.50429
 Alpha  occ. eigenvalues --   -0.50298  -0.50062  -0.49860  -0.49833  -0.49371
 Alpha  occ. eigenvalues --   -0.49156  -0.49087  -0.48936  -0.48651  -0.48403
 Alpha  occ. eigenvalues --   -0.48308  -0.48107  -0.48053  -0.47908  -0.47871
 Alpha  occ. eigenvalues --   -0.47800  -0.47680  -0.47540  -0.47147  -0.47102
 Alpha  occ. eigenvalues --   -0.46796  -0.46583  -0.46410  -0.46142  -0.45919
 Alpha  occ. eigenvalues --   -0.45554  -0.45477  -0.45282  -0.45098  -0.44867
 Alpha  occ. eigenvalues --   -0.44725  -0.44672  -0.44414  -0.44218  -0.44185
 Alpha  occ. eigenvalues --   -0.43867  -0.43716  -0.43512  -0.43230  -0.43090
 Alpha  occ. eigenvalues --   -0.42841  -0.42650  -0.42512  -0.42242  -0.41709
 Alpha  occ. eigenvalues --   -0.41511  -0.41433  -0.40714  -0.40515  -0.40088
 Alpha  occ. eigenvalues --   -0.39979  -0.39872  -0.39759  -0.39631  -0.39401
 Alpha  occ. eigenvalues --   -0.39077  -0.38743  -0.38673  -0.38163  -0.37979
 Alpha  occ. eigenvalues --   -0.37930  -0.37701  -0.37583  -0.36428  -0.36358
 Alpha  occ. eigenvalues --   -0.36290  -0.35852  -0.35701  -0.33908  -0.33613
 Alpha  occ. eigenvalues --   -0.32669  -0.32432  -0.32364  -0.32114  -0.25997
 Alpha  occ. eigenvalues --   -0.23431
 Alpha virt. eigenvalues --   -0.07225   0.00359   0.02476   0.04683   0.05362
 Alpha virt. eigenvalues --    0.06422   0.06531   0.08158   0.08459   0.09143
 Alpha virt. eigenvalues --    0.10354   0.11468   0.11924   0.12486   0.12531

 Mulliken charges:
               1
     1  Mg   0.963029
     2  C   -0.044907
     3  C   -0.026011
     4  C   -0.074560
     5  C   -0.087247
     6  N   -0.303118
     7  C   -0.060542
     8  C   -0.057622
     9  C   -0.125234
    10  C   -0.013021
    11  C    0.010258
    12  C    0.023025
    13  C   -0.018246
    14  C    0.215322
    15  O   -0.238862
    16  O   -0.365692
    17  N   -0.423737
    18  C    0.142446
    19  C   -0.151834
    20  C   -0.075078
    21  C    0.137410
    22  C    0.091259
    23  C    0.018676
    24  O   -0.214514
    25  C    0.011984
    26  N   -0.373559
    27  C    0.093596
    28  C   -0.111281
    29  C   -0.033353
    30  C    0.058088
    31  C    0.013838
    32  C   -0.034427
    33  C   -0.042044
    34  N   -0.435598
    35  C    0.117697
    36  C   -0.227242
    37  C   -0.057062
    38  C    0.176675
    39  C    0.082132
    40  C    0.121264
    41  O   -0.170480
    42  C   -0.098390
    43  C    0.291316
    44  O   -0.227242
    45  O   -0.367909
    46  C    0.122663
    47  C    0.243156
    48  C   -0.146973
    49  C   -0.184142
    50  C    0.004111
    51  C    0.075220
    52  C   -0.094661
    53  C    0.009790
    54  C   -0.207506
    55  C    0.015894
    56  C   -0.001953
    57  C   -0.014376
    58  C    0.039649
    59  C   -0.182108
    60  C   -0.018867
    61  C   -0.000584
    62  C    0.012258
    63  C   -0.052464
    64  C   -0.228474
    65  C   -0.023584
    66  C    0.012789
    67  H    0.009951
    68  H   -0.036347
    69  H   -0.007820
    70  H    0.033191
    71  H    0.048181
    72  H    0.050612
    73  H    0.049428
    74  H    0.042524
    75  H    0.040739
    76  H    0.046026
    77  H    0.077257
    78  H    0.060139
    79  H    0.063798
    80  H    0.008718
    81  H    0.057880
    82  H    0.065578
    83  H    0.046335
    84  H    0.057129
    85  H    0.041151
    86  H    0.034076
    87  H    0.023042
    88  H    0.049682
    89  H    0.034872
    90  H    0.017361
    91  H    0.039385
    92  H    0.025887
    93  H    0.067102
    94  H    0.031604
    95  H    0.057487
    96  H    0.057601
    97  H    0.029851
    98  H    0.085931
    99  H    0.049420
   100  H    0.069780
   101  H    0.040886
   102  H    0.038015
   103  H    0.051600
   104  H    0.026260
   105  H    0.033987
   106  H    0.039336
   107  H    0.047073
   108  H    0.054291
   109  H    0.020706
   110  H    0.034191
   111  H    0.023276
   112  H    0.025680
   113  H    0.011888
   114  H    0.019323
   115  H    0.020051
   116  H    0.038340
   117  H    0.020026
   118  H    0.016100
   119  H    0.022987
   120  H    0.006043
   121  H    0.023376
   122  H    0.019681
   123  H    0.018551
   124  H    0.014608
   125  H    0.025687
   126  H    0.025016
   127  H    0.009041
   128  H    0.024079
   129  H    0.016200
   130  H    0.024428
   131  H    0.021626
   132  H    0.027908
   133  H    0.029184
   134  H    0.027190
   135  H    0.043417
   136  H    0.017786
   137  H    0.033766
   138  H    0.033908
   139  H    0.027915
   140  H    0.029981
 Sum of Mulliken charges =  -0.00000

 Dipole moment (field-independent basis, Debye):
    X=              1.7060    Y=              2.0966    Z=             -2.0360  Tot=              3.3840
 Quadrupole moment (field-independent basis, Debye-Ang):
   XX=           -411.7336   YY=           -390.4441   ZZ=           -403.1591
   XY=            -18.1648   XZ=            -12.7623   YZ=            -33.7209

 Normal termination of Gaussian 16 at Wed Apr 27 01:28:55 2022.
