 Gaussian 16, Revision A.03,
 Gaussian 16:  ES64L-G16RevA.03 25-Dec-2016

 --------------------
 #p ZINDO=(nstates=5)
 --------------------

 -----------------------------
 step_101_chromophore_26 ZINDO
 -----------------------------
 Symbolic Z-matrix:
 Charge =  0 Multiplicity = 1

                         Standard orientation:
 ---------------------------------------------------------------------
 Center     Atomic      Atomic             Coordinates (Angstroms)
 Number     Number       Type             X           Y           Z
 ---------------------------------------------------------------------
      1         12           0       -3.875626    1.261664    0.241512
      2          6           0       -4.762449   -2.010834   -0.142892
      3          6           0       -2.137147    0.425909    3.120498
      4          6           0       -2.823115    4.562001    0.606724
      5          6           0       -5.274079    2.102052   -2.782462
      6          7           0       -3.377204   -0.693883    1.333451
      7          6           0       -3.943251   -1.875446    1.008023
      8          6           0       -3.562415   -3.009940    2.019474
      9          6           0       -2.953677   -2.063096    3.251147
     10          6           0       -2.745850   -0.667484    2.513658
     11          6           0       -3.930283   -1.869824    4.436437
     12          6           0       -2.701936   -4.136436    1.427985
     13          6           0       -1.659439   -3.811988    0.315980
     14          6           0       -0.207615   -4.299957    0.542596
     15          8           0        0.340042   -4.397336    1.603506
     16          8           0        0.377086   -4.674924   -0.638970
     17          7           0       -2.565410    2.362818    1.625679
     18          6           0       -2.090308    1.799885    2.812972
     19          6           0       -1.405691    2.850292    3.594644
     20          6           0       -1.657271    4.080725    2.932040
     21          6           0       -2.398639    3.722408    1.718246
     22          6           0       -0.706408    2.593842    4.941512
     23          6           0       -1.374998    5.486377    3.467683
     24          8           0       -1.059055    5.713087    4.600929
     25          6           0       -1.672761    6.704873    2.734096
     26          7           0       -3.867289    3.042040   -0.976961
     27          6           0       -3.470615    4.274925   -0.555784
     28          6           0       -3.742086    5.431726   -1.568095
     29          6           0       -4.398447    4.598279   -2.772652
     30          6           0       -4.509445    3.167060   -2.210231
     31          6           0       -4.597815    6.594572   -1.130675
     32          6           0       -3.610141    4.703377   -4.137524
     33          6           0       -2.604814    3.576765   -4.586544
     34          7           0       -4.808767    0.326435   -1.212139
     35          6           0       -5.427749    0.757622   -2.284862
     36          6           0       -6.176441   -0.320018   -2.850437
     37          6           0       -5.983804   -1.442967   -2.018792
     38          6           0       -5.079319   -0.963758   -1.068853
     39          6           0       -6.971769   -0.245580   -4.125326
     40          6           0       -6.338230   -2.863487   -1.815123
     41          8           0       -6.977711   -3.644657   -2.465177
     42          6           0       -5.444135   -3.271360   -0.612662
     43          6           0       -6.464578   -3.763853    0.396268
     44          8           0       -7.173295   -3.066579    1.096539
     45          8           0       -6.266103   -5.152979    0.499019
     46          6           0       -6.843532   -5.702222    1.706793
     47          6           0        1.856813   -4.820503   -0.579121
     48          6           0        2.569311   -3.490209   -0.793608
     49          6           0        2.980702   -2.950576   -1.927085
     50          6           0        2.505452   -3.484501   -3.262189
     51          6           0        3.590643   -1.556646   -2.014376
     52          6           0        4.957109   -1.574762   -1.344986
     53          6           0        6.036353   -0.696187   -2.152745
     54          6           0        6.106794    0.822353   -1.756072
     55          6           0        5.816702    1.666980   -3.006815
     56          6           0        7.399915    1.252170   -0.925483
     57          6           0        7.315779    0.548317    0.470528
     58          6           0        8.255097   -0.619894    0.641908
     59          6           0        9.178205   -0.490428    1.899733
     60          6           0        8.673564   -1.340249    3.012575
     61          6           0       10.748205   -0.761877    1.722235
     62          6           0       11.535821    0.383235    1.095754
     63          6           0       11.743316    0.259813   -0.473440
     64          6           0       13.164148    0.709887   -0.970980
     65          6           0       13.033932    0.831967   -2.582282
     66          6           0       14.340853   -0.166582   -0.499978
     67          1           0       -1.980548    0.138207    4.162223
     68          1           0       -2.494148    5.597955    0.711075
     69          1           0       -5.795392    2.316810   -3.717241
     70          1           0       -4.531914   -3.366168    2.367427
     71          1           0       -2.030710   -2.549242    3.568806
     72          1           0       -4.470668   -0.943892    4.240122
     73          1           0       -3.364050   -1.860906    5.368080
     74          1           0       -4.680849   -2.648042    4.572977
     75          1           0       -3.402720   -4.906056    1.103490
     76          1           0       -2.148073   -4.533713    2.279497
     77          1           0       -1.666527   -2.736138    0.489331
     78          1           0       -2.040650   -4.099694   -0.663577
     79          1           0        0.377034    2.712364    4.941785
     80          1           0       -0.969036    1.590409    5.274786
     81          1           0       -1.151011    3.188727    5.739012
     82          1           0       -2.699578    6.706059    2.369130
     83          1           0       -0.968132    6.624727    1.906446
     84          1           0       -1.416015    7.558196    3.360703
     85          1           0       -2.830271    5.933022   -1.893376
     86          1           0       -5.416573    4.968544   -2.884756
     87          1           0       -3.925132    7.430708   -0.942708
     88          1           0       -5.203766    6.420944   -0.240460
     89          1           0       -5.173896    7.047140   -1.937484
     90          1           0       -2.902244    5.513333   -3.959782
     91          1           0       -4.288226    5.003395   -4.936925
     92          1           0       -2.612134    3.671311   -5.672217
     93          1           0       -2.813823    2.545116   -4.304825
     94          1           0       -1.594900    3.935921   -4.388037
     95          1           0       -7.897427   -0.794029   -3.950854
     96          1           0       -6.370352   -0.733086   -4.892423
     97          1           0       -7.223781    0.763180   -4.451286
     98          1           0       -4.759980   -4.019377   -1.014496
     99          1           0       -7.151095   -6.723988    1.480908
    100          1           0       -7.700341   -5.214150    2.172637
    101          1           0       -6.066978   -5.815951    2.462814
    102          1           0        2.120753   -5.509878   -1.381333
    103          1           0        2.227401   -5.316812    0.317744
    104          1           0        3.064647   -3.129549    0.107698
    105          1           0        1.883918   -4.380418   -3.249836
    106          1           0        3.302624   -3.706030   -3.971181
    107          1           0        1.856086   -2.739742   -3.721245
    108          1           0        3.001229   -0.880279   -1.395226
    109          1           0        3.662751   -1.340477   -3.079621
    110          1           0        5.284523   -2.588595   -1.114284
    111          1           0        4.818603   -1.124388   -0.362126
    112          1           0        5.924274   -0.962116   -3.203873
    113          1           0        6.971646   -1.145326   -1.819321
    114          1           0        5.249823    1.054269   -1.123919
    115          1           0        6.298316    2.639884   -2.907551
    116          1           0        4.739320    1.707698   -3.166361
    117          1           0        6.312404    1.142987   -3.824321
    118          1           0        7.439732    2.340433   -0.901299
    119          1           0        8.271749    0.989219   -1.524882
    120          1           0        6.297352    0.180642    0.599673
    121          1           0        7.312309    1.350751    1.207937
    122          1           0        8.924320   -0.725448   -0.212404
    123          1           0        7.653078   -1.524385    0.726307
    124          1           0        8.886869    0.438767    2.388864
    125          1           0        7.593824   -1.480869    3.069213
    126          1           0        9.029884   -0.971883    3.974800
    127          1           0        9.103507   -2.337248    2.916410
    128          1           0       10.794303   -1.702653    1.174260
    129          1           0       11.128189   -0.908798    2.733613
    130          1           0       12.479132    0.530129    1.621856
    131          1           0       10.921143    1.272691    1.232130
    132          1           0       11.154060    1.038597   -0.957055
    133          1           0       11.439593   -0.704570   -0.880556
    134          1           0       13.296055    1.695732   -0.524182
    135          1           0       12.193172    0.337235   -3.067432
    136          1           0       13.930013    0.464162   -3.081928
    137          1           0       13.069468    1.911663   -2.729195
    138          1           0       14.923199   -0.568046   -1.328995
    139          1           0       13.933019   -0.970480    0.112887
    140          1           0       14.951321    0.466248    0.144197
 ---------------------------------------------------------------------

 SCF Done:  E(RZINDO/S) =  -474.157001971     A.U. after   20 cycles

 Excitation energies and oscillator strengths:

 Excited State   1:      Singlet-A      1.2815 eV  967.51 nm  f=0.5890  <S**2>=0.000
     175 ->178        -0.18673
     176 ->177         0.66336
 This state for optimization and/or second-order correction.
 Total Energy, E(CIS/TDA) =  -474.109908778
 Copying the excited state density for this state as the 1-particle RhoCI density.

 Excited State   2:      Singlet-A      1.9388 eV  639.48 nm  f=0.0641  <S**2>=0.000
     175 ->177         0.56152
     176 ->178         0.39793

 Excited State   3:      Singlet-A      2.8489 eV  435.20 nm  f=0.0001  <S**2>=0.000
     169 ->179        -0.10722
     169 ->180        -0.12340
     170 ->177         0.25803
     170 ->179        -0.30748
     170 ->180        -0.36232
     170 ->181         0.10080
     170 ->183        -0.13502
     170 ->186        -0.23517
     170 ->187        -0.10490

 Excited State   4:      Singlet-A      3.0138 eV  411.38 nm  f=0.6811  <S**2>=0.000
     175 ->177        -0.30237
     176 ->178         0.48527
     176 ->179        -0.31150

 Excited State   5:      Singlet-A      3.0326 eV  408.84 nm  f=0.1086  <S**2>=0.000
     168 ->177         0.25958
     168 ->178        -0.18791
     168 ->179         0.33451
     168 ->180        -0.18094
     168 ->183        -0.18126
     168 ->186         0.16574
     168 ->187        -0.12249
     169 ->177         0.10786
     169 ->179         0.12857
     174 ->177        -0.10785
     175 ->177         0.10524
     176 ->178        -0.15781

 The electronic state is 1-A.
 Alpha  occ. eigenvalues --   -1.87776  -1.78791  -1.78197  -1.72882  -1.72282
 Alpha  occ. eigenvalues --   -1.69515  -1.65183  -1.63271  -1.60164  -1.59819
 Alpha  occ. eigenvalues --   -1.54638  -1.51717  -1.49790  -1.48671  -1.45349
 Alpha  occ. eigenvalues --   -1.44419  -1.42393  -1.40276  -1.38051  -1.36688
 Alpha  occ. eigenvalues --   -1.35668  -1.33735  -1.32798  -1.30814  -1.29509
 Alpha  occ. eigenvalues --   -1.28507  -1.26927  -1.22700  -1.21156  -1.17634
 Alpha  occ. eigenvalues --   -1.16839  -1.16574  -1.15236  -1.13996  -1.12885
 Alpha  occ. eigenvalues --   -1.12387  -1.10374  -1.09987  -1.04997  -1.04091
 Alpha  occ. eigenvalues --   -1.02206  -1.00745  -0.98697  -0.97477  -0.97142
 Alpha  occ. eigenvalues --   -0.96478  -0.93643  -0.93170  -0.91937  -0.91478
 Alpha  occ. eigenvalues --   -0.90520  -0.89871  -0.89616  -0.88295  -0.87058
 Alpha  occ. eigenvalues --   -0.85891  -0.84800  -0.83679  -0.81132  -0.80245
 Alpha  occ. eigenvalues --   -0.79415  -0.77944  -0.77587  -0.76753  -0.76305
 Alpha  occ. eigenvalues --   -0.76187  -0.75695  -0.75331  -0.74696  -0.73899
 Alpha  occ. eigenvalues --   -0.73125  -0.72623  -0.72411  -0.71425  -0.71309
 Alpha  occ. eigenvalues --   -0.70613  -0.69603  -0.69051  -0.68593  -0.68493
 Alpha  occ. eigenvalues --   -0.67287  -0.66705  -0.66674  -0.66231  -0.65716
 Alpha  occ. eigenvalues --   -0.65082  -0.64841  -0.64354  -0.64290  -0.64160
 Alpha  occ. eigenvalues --   -0.63214  -0.63052  -0.62861  -0.62754  -0.62647
 Alpha  occ. eigenvalues --   -0.62196  -0.61334  -0.61058  -0.60481  -0.59954
 Alpha  occ. eigenvalues --   -0.59752  -0.59568  -0.58978  -0.58735  -0.57996
 Alpha  occ. eigenvalues --   -0.57917  -0.57635  -0.57117  -0.56858  -0.56650
 Alpha  occ. eigenvalues --   -0.56027  -0.55702  -0.55274  -0.54745  -0.54621
 Alpha  occ. eigenvalues --   -0.54415  -0.54136  -0.53522  -0.53268  -0.52846
 Alpha  occ. eigenvalues --   -0.52452  -0.52137  -0.52071  -0.51713  -0.51452
 Alpha  occ. eigenvalues --   -0.51218  -0.51189  -0.51005  -0.50834  -0.50353
 Alpha  occ. eigenvalues --   -0.50262  -0.49816  -0.49723  -0.49315  -0.49127
 Alpha  occ. eigenvalues --   -0.48896  -0.48731  -0.48409  -0.48045  -0.47930
 Alpha  occ. eigenvalues --   -0.47392  -0.47295  -0.46890  -0.46776  -0.46552
 Alpha  occ. eigenvalues --   -0.46281  -0.45944  -0.45711  -0.45553  -0.45237
 Alpha  occ. eigenvalues --   -0.45173  -0.45168  -0.44925  -0.44302  -0.44106
 Alpha  occ. eigenvalues --   -0.43668  -0.43637  -0.42997  -0.42553  -0.42240
 Alpha  occ. eigenvalues --   -0.42103  -0.41760  -0.41725  -0.39348  -0.39179
 Alpha  occ. eigenvalues --   -0.38866  -0.37193  -0.35229  -0.34870  -0.34717
 Alpha  occ. eigenvalues --   -0.33691  -0.33082  -0.33057  -0.32306  -0.26749
 Alpha  occ. eigenvalues --   -0.22104
 Alpha virt. eigenvalues --   -0.08710  -0.02139  -0.00359   0.01139   0.01915
 Alpha virt. eigenvalues --    0.02163   0.02550   0.02805   0.04536   0.04665
 Alpha virt. eigenvalues --    0.05975   0.06674   0.06839   0.07656   0.07798

 Mulliken charges:
               1
     1  Mg   0.437504
     2  C   -0.034603
     3  C   -0.062170
     4  C   -0.103914
     5  C   -0.088966
     6  N   -0.264193
     7  C    0.093497
     8  C   -0.011407
     9  C   -0.003542
    10  C    0.143232
    11  C   -0.046423
    12  C   -0.016585
    13  C   -0.003454
    14  C    0.473432
    15  O   -0.508524
    16  O   -0.271266
    17  N   -0.335585
    18  C    0.113102
    19  C    0.046088
    20  C   -0.048041
    21  C    0.144373
    22  C   -0.037880
    23  C    0.332790
    24  O   -0.517888
    25  C   -0.023261
    26  N   -0.295639
    27  C    0.158324
    28  C   -0.001079
    29  C    0.001204
    30  C    0.108742
    31  C   -0.048555
    32  C   -0.033083
    33  C   -0.060297
    34  N   -0.284693
    35  C    0.100903
    36  C    0.006605
    37  C   -0.065007
    38  C    0.093645
    39  C   -0.043436
    40  C    0.340946
    41  O   -0.505046
    42  C    0.054511
    43  C    0.492088
    44  O   -0.510218
    45  O   -0.268858
    46  C    0.074379
    47  C    0.105541
    48  C   -0.085690
    49  C    0.008780
    50  C   -0.047627
    51  C   -0.020773
    52  C   -0.041236
    53  C   -0.042411
    54  C   -0.015421
    55  C   -0.061431
    56  C   -0.035041
    57  C   -0.031053
    58  C   -0.023786
    59  C   -0.027861
    60  C   -0.053031
    61  C   -0.027818
    62  C   -0.037367
    63  C   -0.041690
    64  C   -0.019335
    65  C   -0.067821
    66  C   -0.056079
    67  H    0.026231
    68  H    0.018354
    69  H    0.024713
    70  H    0.034891
    71  H    0.036587
    72  H    0.028960
    73  H    0.022065
    74  H    0.023315
    75  H    0.023260
    76  H    0.029124
    77  H    0.054610
    78  H    0.042901
    79  H    0.044216
    80  H    0.016285
    81  H    0.039459
    82  H    0.042706
    83  H    0.032132
    84  H    0.042764
    85  H    0.033818
    86  H    0.030367
    87  H    0.008212
    88  H    0.028962
    89  H    0.021137
    90  H    0.013603
    91  H    0.026381
    92  H    0.010153
    93  H    0.040309
    94  H    0.022172
    95  H    0.031851
    96  H    0.032657
    97  H    0.021866
    98  H    0.062491
    99  H    0.026272
   100  H    0.055919
   101  H    0.028509
   102  H    0.028394
   103  H    0.049835
   104  H    0.025170
   105  H    0.018440
   106  H    0.025734
   107  H    0.020996
   108  H    0.035930
   109  H    0.028687
   110  H    0.024753
   111  H    0.015351
   112  H    0.028307
   113  H    0.008877
   114  H    0.014291
   115  H    0.018204
   116  H    0.023363
   117  H    0.014955
   118  H    0.018734
   119  H    0.020583
   120  H    0.015310
   121  H    0.021242
   122  H    0.018968
   123  H    0.022079
   124  H    0.023545
   125  H    0.015753
   126  H    0.009664
   127  H    0.005024
   128  H    0.025866
   129  H    0.016500
   130  H    0.024409
   131  H    0.017663
   132  H    0.011718
   133  H    0.028254
   134  H    0.021769
   135  H    0.031311
   136  H    0.012908
   137  H    0.017109
   138  H    0.025516
   139  H    0.019074
   140  H    0.017859
 Sum of Mulliken charges =  -0.00000

 Dipole moment (field-independent basis, Debye):
    X=              2.5058    Y=              2.9023    Z=             -1.8954  Tot=              4.2772
 N-N= 4.479866474329D+03 E-N= 0.000000000000D+00  KE=-9.633536353602D+03
 Leave Link  601 at Wed Apr 27 01:40:48 2022, MaxMem=  6710886400 cpu:               0.8 elap:               0.1
 (Enter /sw/apps/gaussian-16.0/g16/l9999.exe)
 1\1\GINC-BP1-COMPUTE139\SP\RZINDO CIS\STO-3G\C55H74Mg1N4O6\OF15641\27-
 Apr-2022\0\\#p ZINDO=(nstates=5)\\step_101_chromophore_26 ZINDO\\0,1\M
 g,0,-8.85,18.498,43.272\C,0,-5.441,18.36,43.328\C,0,-8.675,21.86,42.45
 \C,0,-12.323,18.664,43.062\C,0,-9.097,15.102,43.733\N,0,-7.158,19.971,
 42.79\C,0,-5.855,19.671,42.976\C,0,-4.925,20.909,42.736\C,0,-6.083,22.
 11,42.763\C,0,-7.425,21.269,42.6\C,0,-6.138,22.9,44.093\C,0,-3.986,20.
 783,41.527\C,0,-4.454,20.004,40.261\C,0,-4.337,20.731,38.899\O,0,-4.45

 Normal termination of Gaussian 16 at Wed Apr 27 01:40:48 2022.
