 Gaussian 16, Revision A.03,
 Gaussian 16:  ES64L-G16RevA.03 25-Dec-2016

 ------------------------------
 #p blyp/Def2SVP td=(nstates=5)
 ------------------------------

 ---------------------------------------------------
 step_1701_chromophore_27 TDDFT with blyp functional
 ---------------------------------------------------
 Symbolic Z-matrix:
 Charge =  0 Multiplicity = 1

                         Standard orientation:
 ---------------------------------------------------------------------
 Center     Atomic      Atomic             Coordinates (Angstroms)
 Number     Number       Type             X           Y           Z
 ---------------------------------------------------------------------
      1         12           0       -4.468090    0.878696    0.475639
      2          6           0       -3.920600   -2.602872    0.377673
      3          6           0       -1.009934    1.495831    0.397894
      4          6           0       -5.249261    4.085839    0.182423
      5          6           0       -7.985440    0.077576    0.300524
      6          7           0       -2.764902   -0.412422    0.278225
      7          6           0       -2.711510   -1.819674    0.284071
      8          6           0       -1.245039   -2.312238    0.089935
      9          6           0       -0.382598   -0.958522    0.218690
     10          6           0       -1.452571    0.165066    0.303125
     11          6           0        0.620808   -1.090342    1.436568
     12          6           0       -1.048475   -3.010872   -1.343341
     13          6           0       -0.142724   -4.175485   -1.354390
     14          6           0        1.175864   -4.006189   -2.098342
     15          8           0        1.429691   -4.236408   -3.307259
     16          8           0        2.150868   -3.597680   -1.186590
     17          7           0       -3.336076    2.528090    0.438589
     18          6           0       -1.923139    2.637269    0.405426
     19          6           0       -1.527718    4.008411    0.353773
     20          6           0       -2.771060    4.761956    0.353468
     21          6           0       -3.889074    3.748883    0.370072
     22          6           0       -0.203145    4.548881    0.294650
     23          6           0       -2.984301    6.314788    0.268527
     24          8           0       -4.105002    6.783272    0.119139
     25          6           0       -1.867507    7.247648    0.313934
     26          7           0       -6.337271    1.924158    0.265847
     27          6           0       -6.322023    3.250569    0.166346
     28          6           0       -7.748686    3.828732   -0.113549
     29          6           0       -8.559223    2.461080   -0.353806
     30          6           0       -7.548073    1.366831   -0.002861
     31          6           0       -8.438408    4.611369    1.057955
     32          6           0       -9.081766    2.336583   -1.825055
     33          6           0      -10.553070    2.192770   -2.036594
     34          7           0       -5.805957   -0.878739    0.526177
     35          6           0       -7.141054   -1.038903    0.513903
     36          6           0       -7.532282   -2.434034    0.630316
     37          6           0       -6.287587   -3.122726    0.510009
     38          6           0       -5.246570   -2.098439    0.409526
     39          6           0       -8.932890   -2.850671    0.820870
     40          6           0       -5.645096   -4.392654    0.405721
     41          8           0       -6.097471   -5.509135    0.412407
     42          6           0       -4.094295   -4.160924    0.358099
     43          6           0       -3.331488   -4.832251    1.498474
     44          8           0       -3.189033   -4.495496    2.660970
     45          8           0       -2.752789   -5.910686    0.935886
     46          6           0       -1.845508   -6.599238    1.856990
     47          6           0        3.534844   -3.600321   -1.554462
     48          6           0        4.163048   -2.214042   -1.667034
     49          6           0        5.433402   -1.850388   -1.491250
     50          6           0        6.460735   -2.807755   -0.785555
     51          6           0        5.936935   -0.509548   -1.937067
     52          6           0        6.221886   -0.522159   -3.426175
     53          6           0        7.614936   -0.106707   -3.890424
     54          6           0        7.724500    1.358940   -4.282007
     55          6           0        7.896073    1.461540   -5.858648
     56          6           0        8.915349    2.051408   -3.538295
     57          6           0        8.755425    2.231835   -1.992913
     58          6           0       10.068026    1.953027   -1.179135
     59          6           0        9.756631    1.221097    0.227085
     60          6           0        9.845254   -0.301725    0.095437
     61          6           0       10.557727    1.702713    1.393206
     62          6           0        9.767531    1.820758    2.757488
     63          6           0        9.975412    0.566175    3.715169
     64          6           0       10.411614    0.927670    5.089514
     65          6           0       11.490221    0.024142    5.620002
     66          6           0        9.115757    1.053650    6.019104
     67          1           0        0.077693    1.580748    0.446776
     68          1           0       -5.531644    5.131842    0.043725
     69          1           0       -9.037107   -0.189280    0.170368
     70          1           0       -0.988205   -2.875909    0.986575
     71          1           0        0.211318   -0.896003   -0.692822
     72          1           0        1.565238   -1.533125    1.120160
     73          1           0        0.215866   -1.508672    2.357466
     74          1           0        0.841389   -0.078475    1.775038
     75          1           0       -0.858005   -2.277671   -2.127461
     76          1           0       -1.994686   -3.498982   -1.575811
     77          1           0       -0.574386   -5.078403   -1.787657
     78          1           0        0.153695   -4.579985   -0.386312
     79          1           0       -0.021316    5.176396   -0.577178
     80          1           0        0.440078    3.669168    0.331015
     81          1           0       -0.089490    5.203010    1.159237
     82          1           0       -1.301799    7.024008   -0.590773
     83          1           0       -1.386466    7.036036    1.269085
     84          1           0       -2.216973    8.274616    0.208863
     85          1           0       -7.715970    4.474804   -0.991190
     86          1           0       -9.439410    2.364270    0.282029
     87          1           0       -7.934031    5.572911    1.159931
     88          1           0       -8.309649    4.148128    2.036053
     89          1           0       -9.476865    4.664696    0.730510
     90          1           0       -8.682493    1.479187   -2.367708
     91          1           0       -8.835166    3.234995   -2.390480
     92          1           0      -11.020508    3.177763   -2.031508
     93          1           0      -11.038998    1.558544   -1.295735
     94          1           0      -10.695452    1.873159   -3.069336
     95          1           0       -9.255042   -3.377235   -0.077263
     96          1           0       -9.570772   -2.036554    1.163208
     97          1           0       -8.849544   -3.549864    1.652371
     98          1           0       -3.719612   -4.640138   -0.546343
     99          1           0       -2.166215   -6.990017    2.821846
    100          1           0       -1.121499   -5.813616    2.076303
    101          1           0       -1.257344   -7.344519    1.320766
    102          1           0        3.758638   -4.195182   -2.439578
    103          1           0        3.973893   -4.197977   -0.755620
    104          1           0        3.562567   -1.489704   -2.216512
    105          1           0        5.907580   -3.394609   -0.052844
    106          1           0        7.372752   -2.336140   -0.420479
    107          1           0        6.833477   -3.428949   -1.600450
    108          1           0        6.890909   -0.188692   -1.518524
    109          1           0        5.278281    0.339284   -1.755631
    110          1           0        5.544676    0.234538   -3.821731
    111          1           0        6.023229   -1.454514   -3.956390
    112          1           0        7.937545   -0.753836   -4.705100
    113          1           0        8.313616   -0.299882   -3.077141
    114          1           0        6.776643    1.890029   -4.202522
    115          1           0        8.680884    2.182258   -6.089655
    116          1           0        6.985985    1.667137   -6.421569
    117          1           0        8.230587    0.562541   -6.376293
    118          1           0        9.057863    3.011800   -4.033579
    119          1           0        9.860710    1.516437   -3.634977
    120          1           0        7.891108    1.828465   -1.466567
    121          1           0        8.539881    3.300600   -1.979084
    122          1           0       10.563941    2.909065   -1.012699
    123          1           0       10.729865    1.266204   -1.707958
    124          1           0        8.705544    1.360893    0.479703
    125          1           0        8.902693   -0.810910    0.296241
    126          1           0       10.622356   -0.669600    0.765627
    127          1           0       10.088810   -0.601849   -0.924722
    128          1           0       10.895981    2.716965    1.181970
    129          1           0       11.476780    1.117806    1.379127
    130          1           0        8.708997    1.840683    2.495390
    131          1           0        9.985362    2.789744    3.206115
    132          1           0       10.623295   -0.161447    3.224330
    133          1           0        9.055539   -0.009096    3.826760
    134          1           0       10.803409    1.944423    5.103252
    135          1           0       11.991713   -0.604930    4.884679
    136          1           0       11.148201   -0.562044    6.473181
    137          1           0       12.338626    0.589126    6.005394
    138          1           0        8.210153    0.668085    5.549355
    139          1           0        9.022421    2.113872    6.253924
    140          1           0        9.206102    0.424552    6.904483
 ---------------------------------------------------------------------

 SCF Done:  E(RB-LYP) =  -3007.35752754     A.U. after   20 cycles

 Excitation energies and oscillator strengths:

 Excited State   1:      Singlet-A      1.7889 eV  693.07 nm  f=0.3093  <S**2>=0.000
     244 -> 247        0.11866
     245 -> 248        0.19239
     246 -> 247        0.68197
     246 <- 247       -0.15532
 This state for optimization and/or second-order correction.
 Total Energy, E(TD-HF/TD-DFT) =  -3007.29178631
 Copying the excited state density for this state as the 1-particle RhoCI density.

 Excited State   2:      Singlet-A      1.8092 eV  685.29 nm  f=0.0092  <S**2>=0.000
     244 -> 247        0.68376
     245 -> 247        0.13845
     246 -> 247       -0.10656

 Excited State   3:      Singlet-A      1.8810 eV  659.13 nm  f=0.0038  <S**2>=0.000
     243 -> 247        0.70396

 Excited State   4:      Singlet-A      2.0181 eV  614.35 nm  f=0.0866  <S**2>=0.000
     244 -> 247       -0.12951
     245 -> 247        0.63524
     246 -> 248       -0.25452

 Excited State   5:      Singlet-A      2.3602 eV  525.32 nm  f=0.0003  <S**2>=0.000
     241 -> 247        0.70666

 The electronic state is 1-A.
 Alpha  occ. eigenvalues --  -46.26804 -18.82858 -18.82307 -18.77187 -18.76839
 Alpha  occ. eigenvalues --  -18.75249 -18.75172 -14.03951 -14.02890 -14.01503
 Alpha  occ. eigenvalues --  -14.00568 -10.04592 -10.03871  -9.99620  -9.99145
 Alpha  occ. eigenvalues --   -9.98184  -9.97742  -9.97690  -9.96989  -9.96399
 Alpha  occ. eigenvalues --   -9.96222  -9.95935  -9.95520  -9.95161  -9.94969
 Alpha  occ. eigenvalues --   -9.94652  -9.94398  -9.94219  -9.94075  -9.94049
 Alpha  occ. eigenvalues --   -9.93930  -9.93839  -9.93689  -9.93601  -9.93470
 Alpha  occ. eigenvalues --   -9.93291  -9.93261  -9.92890  -9.92767  -9.92739
 Alpha  occ. eigenvalues --   -9.92731  -9.92547  -9.92442  -9.92309  -9.92208
 Alpha  occ. eigenvalues --   -9.92149  -9.92049  -9.91914  -9.91897  -9.91890
 Alpha  occ. eigenvalues --   -9.91831  -9.91745  -9.91740  -9.91713  -9.91641
 Alpha  occ. eigenvalues --   -9.91543  -9.91426  -9.91400  -9.91111  -9.91029
 Alpha  occ. eigenvalues --   -9.90985  -9.90981  -9.90859  -9.90854  -9.90830
 Alpha  occ. eigenvalues --   -9.90566  -2.91451  -1.71890  -1.71314  -1.71177
 Alpha  occ. eigenvalues --   -0.98995  -0.97187  -0.91953  -0.91478  -0.90121
 Alpha  occ. eigenvalues --   -0.88966  -0.86613  -0.85797  -0.84753  -0.83022
 Alpha  occ. eigenvalues --   -0.74605  -0.74178  -0.73159  -0.72967  -0.72421
 Alpha  occ. eigenvalues --   -0.72049  -0.71668  -0.71288  -0.70880  -0.70563
 Alpha  occ. eigenvalues --   -0.70046  -0.68990  -0.68212  -0.67637  -0.67126
 Alpha  occ. eigenvalues --   -0.66797  -0.66468  -0.65700  -0.64910  -0.64352
 Alpha  occ. eigenvalues --   -0.64102  -0.62406  -0.62022  -0.61554  -0.60920
 Alpha  occ. eigenvalues --   -0.60476  -0.60454  -0.59777  -0.59756  -0.59096
 Alpha  occ. eigenvalues --   -0.58874  -0.57722  -0.56512  -0.55926  -0.54236
 Alpha  occ. eigenvalues --   -0.54069  -0.53570  -0.52873  -0.52142  -0.51622
 Alpha  occ. eigenvalues --   -0.51483  -0.50976  -0.50463  -0.50314  -0.49953
 Alpha  occ. eigenvalues --   -0.49689  -0.49552  -0.49231  -0.48694  -0.46837
 Alpha  occ. eigenvalues --   -0.46316  -0.45998  -0.45138  -0.44944  -0.44362
 Alpha  occ. eigenvalues --   -0.44137  -0.43774  -0.42958  -0.42759  -0.42561
 Alpha  occ. eigenvalues --   -0.41715  -0.41695  -0.41503  -0.41180  -0.41120
 Alpha  occ. eigenvalues --   -0.41062  -0.40819  -0.40616  -0.40381  -0.40115
 Alpha  occ. eigenvalues --   -0.39848  -0.39813  -0.39550  -0.39466  -0.39194
 Alpha  occ. eigenvalues --   -0.39058  -0.38953  -0.38690  -0.38671  -0.38426
 Alpha  occ. eigenvalues --   -0.38282  -0.38071  -0.37746  -0.37575  -0.37470
 Alpha  occ. eigenvalues --   -0.37385  -0.37300  -0.36857  -0.36590  -0.36525
 Alpha  occ. eigenvalues --   -0.36230  -0.36089  -0.36017  -0.35758  -0.35589
 Alpha  occ. eigenvalues --   -0.35501  -0.35424  -0.35293  -0.34976  -0.34765
 Alpha  occ. eigenvalues --   -0.34729  -0.34541  -0.34398  -0.34236  -0.34150
 Alpha  occ. eigenvalues --   -0.34068  -0.33838  -0.33599  -0.33203  -0.33021
 Alpha  occ. eigenvalues --   -0.32888  -0.32802  -0.32631  -0.32568  -0.32431
 Alpha  occ. eigenvalues --   -0.32248  -0.32093  -0.32030  -0.31925  -0.31752
 Alpha  occ. eigenvalues --   -0.31608  -0.31299  -0.31067  -0.30906  -0.30577
 Alpha  occ. eigenvalues --   -0.30465  -0.30248  -0.30128  -0.29899  -0.29812
 Alpha  occ. eigenvalues --   -0.29737  -0.29568  -0.29517  -0.29341  -0.28967
 Alpha  occ. eigenvalues --   -0.28635  -0.28290  -0.28078  -0.27535  -0.27420
 Alpha  occ. eigenvalues --   -0.27187  -0.27045  -0.26751  -0.26664  -0.26553
 Alpha  occ. eigenvalues --   -0.26253  -0.25947  -0.25873  -0.25838  -0.25636
 Alpha  occ. eigenvalues --   -0.25389  -0.25095  -0.24672  -0.23920  -0.23768
 Alpha  occ. eigenvalues --   -0.22855  -0.22352  -0.21846  -0.21729  -0.20474
 Alpha  occ. eigenvalues --   -0.20414  -0.20209  -0.18542  -0.18323  -0.17362
 Alpha  occ. eigenvalues --   -0.15876
 Alpha virt. eigenvalues --   -0.11741  -0.06739  -0.05995  -0.04280  -0.03909
 Alpha virt. eigenvalues --   -0.02381  -0.02113  -0.01800  -0.00778   0.00044
 Alpha virt. eigenvalues --    0.01172   0.01577   0.02124   0.02434   0.02583

 Mulliken charges:
               1
     1  Mg   0.699117
     2  C    0.040504
     3  C   -0.083756
     4  C   -0.045612
     5  C   -0.075201
     6  N   -0.285330
     7  C   -0.064862
     8  C    0.039342
     9  C   -0.033436
    10  C    0.074999
    11  C    0.105171
    12  C    0.158724
    13  C    0.158353
    14  C    0.056395
    15  O   -0.211202
    16  O   -0.279314
    17  N   -0.329716
    18  C    0.150670
    19  C   -0.152602
    20  C   -0.024659
    21  C    0.137484
    22  C    0.207521
    23  C   -0.090368
    24  O   -0.170364
    25  C    0.177710
    26  N   -0.201744
    27  C    0.029908
    28  C    0.000885
    29  C    0.004129
    30  C    0.073214
    31  C    0.115990
    32  C    0.086655
    33  C    0.057035
    34  N   -0.195215
    35  C    0.063117
    36  C   -0.178814
    37  C    0.092570
    38  C    0.044583
    39  C    0.188530
    40  C   -0.077315
    41  O   -0.108806
    42  C    0.014241
    43  C    0.106319
    44  O   -0.179081
    45  O   -0.247799
    46  C    0.225257
    47  C    0.314236
    48  C   -0.079238
    49  C   -0.145769
    50  C    0.135811
    51  C    0.170014
    52  C    0.045839
    53  C    0.116281
    54  C   -0.055773
    55  C    0.075317
    56  C    0.093810
    57  C    0.056477
    58  C    0.108634
    59  C   -0.111863
    60  C    0.099211
    61  C    0.104940
    62  C    0.081423
    63  C    0.113425
    64  C   -0.088335
    65  C    0.116552
    66  C    0.088754
    67  H   -0.035105
    68  H   -0.040645
    69  H   -0.056920
    70  H   -0.007507
    71  H   -0.018756
    72  H    0.008583
    73  H   -0.001258
    74  H   -0.034960
    75  H   -0.000658
    76  H   -0.015926
    77  H   -0.006107
    78  H   -0.015666
    79  H    0.001675
    80  H   -0.021188
    81  H   -0.002424
    82  H    0.007148
    83  H    0.014142
    84  H   -0.009405
    85  H   -0.015793
    86  H   -0.029617
    87  H   -0.001548
    88  H   -0.006655
    89  H    0.003741
    90  H   -0.018885
    91  H   -0.029566
    92  H   -0.020243
    93  H   -0.005145
    94  H   -0.014020
    95  H    0.017734
    96  H   -0.005125
    97  H    0.011343
    98  H    0.002374
    99  H    0.027947
   100  H   -0.007153
   101  H    0.005662
   102  H    0.006464
   103  H   -0.025578
   104  H   -0.043748
   105  H    0.012443
   106  H   -0.019672
   107  H   -0.004549
   108  H   -0.038808
   109  H   -0.026212
   110  H   -0.036812
   111  H   -0.022784
   112  H   -0.037145
   113  H   -0.039009
   114  H   -0.032266
   115  H   -0.024225
   116  H   -0.016057
   117  H   -0.028018
   118  H   -0.030732
   119  H   -0.033061
   120  H   -0.020196
   121  H   -0.036438
   122  H   -0.027607
   123  H   -0.021430
   124  H   -0.038876
   125  H    0.000429
   126  H   -0.018278
   127  H   -0.020895
   128  H   -0.052967
   129  H   -0.034991
   130  H   -0.035999
   131  H   -0.022733
   132  H   -0.038960
   133  H   -0.040821
   134  H   -0.031952
   135  H   -0.021329
   136  H   -0.020111
   137  H   -0.028043
   138  H   -0.016047
   139  H   -0.005241
   140  H   -0.020790
 Sum of Mulliken charges =  -0.00000

 Dipole moment (field-independent basis, Debye):
    X=              4.0410    Y=              2.8074    Z=              0.2224  Tot=              4.9255
 Quadrupole moment (field-independent basis, Debye-Ang):
   XX=           -378.0254   YY=           -426.3358   ZZ=           -418.6259
   XY=            -15.2718   XZ=              8.8552   YZ=             -6.6262

 Normal termination of Gaussian 16 at Thu Apr 28 20:52:23 2022.
