 Gaussian 16, Revision A.03,
 Gaussian 16:  ES64L-G16RevA.03 25-Dec-2016

 -----------------------------------
 #p cam-b3lyp/Def2SVP td=(nstates=5)
 -----------------------------------

 --------------------------------------------------------
 step_1701_chromophore_27 TDDFT with cam-b3lyp functional
 --------------------------------------------------------
 Symbolic Z-matrix:
 Charge =  0 Multiplicity = 1

                         Standard orientation:
 ---------------------------------------------------------------------
 Center     Atomic      Atomic             Coordinates (Angstroms)
 Number     Number       Type             X           Y           Z
 ---------------------------------------------------------------------
      1         12           0       -4.468090    0.878696    0.475639
      2          6           0       -3.920600   -2.602872    0.377673
      3          6           0       -1.009934    1.495831    0.397894
      4          6           0       -5.249261    4.085839    0.182423
      5          6           0       -7.985440    0.077576    0.300524
      6          7           0       -2.764902   -0.412422    0.278225
      7          6           0       -2.711510   -1.819674    0.284071
      8          6           0       -1.245039   -2.312238    0.089935
      9          6           0       -0.382598   -0.958522    0.218690
     10          6           0       -1.452571    0.165066    0.303125
     11          6           0        0.620808   -1.090342    1.436568
     12          6           0       -1.048475   -3.010872   -1.343341
     13          6           0       -0.142724   -4.175485   -1.354390
     14          6           0        1.175864   -4.006189   -2.098342
     15          8           0        1.429691   -4.236408   -3.307259
     16          8           0        2.150868   -3.597680   -1.186590
     17          7           0       -3.336076    2.528090    0.438589
     18          6           0       -1.923139    2.637269    0.405426
     19          6           0       -1.527718    4.008411    0.353773
     20          6           0       -2.771060    4.761956    0.353468
     21          6           0       -3.889074    3.748883    0.370072
     22          6           0       -0.203145    4.548881    0.294650
     23          6           0       -2.984301    6.314788    0.268527
     24          8           0       -4.105002    6.783272    0.119139
     25          6           0       -1.867507    7.247648    0.313934
     26          7           0       -6.337271    1.924158    0.265847
     27          6           0       -6.322023    3.250569    0.166346
     28          6           0       -7.748686    3.828732   -0.113549
     29          6           0       -8.559223    2.461080   -0.353806
     30          6           0       -7.548073    1.366831   -0.002861
     31          6           0       -8.438408    4.611369    1.057955
     32          6           0       -9.081766    2.336583   -1.825055
     33          6           0      -10.553070    2.192770   -2.036594
     34          7           0       -5.805957   -0.878739    0.526177
     35          6           0       -7.141054   -1.038903    0.513903
     36          6           0       -7.532282   -2.434034    0.630316
     37          6           0       -6.287587   -3.122726    0.510009
     38          6           0       -5.246570   -2.098439    0.409526
     39          6           0       -8.932890   -2.850671    0.820870
     40          6           0       -5.645096   -4.392654    0.405721
     41          8           0       -6.097471   -5.509135    0.412407
     42          6           0       -4.094295   -4.160924    0.358099
     43          6           0       -3.331488   -4.832251    1.498474
     44          8           0       -3.189033   -4.495496    2.660970
     45          8           0       -2.752789   -5.910686    0.935886
     46          6           0       -1.845508   -6.599238    1.856990
     47          6           0        3.534844   -3.600321   -1.554462
     48          6           0        4.163048   -2.214042   -1.667034
     49          6           0        5.433402   -1.850388   -1.491250
     50          6           0        6.460735   -2.807755   -0.785555
     51          6           0        5.936935   -0.509548   -1.937067
     52          6           0        6.221886   -0.522159   -3.426175
     53          6           0        7.614936   -0.106707   -3.890424
     54          6           0        7.724500    1.358940   -4.282007
     55          6           0        7.896073    1.461540   -5.858648
     56          6           0        8.915349    2.051408   -3.538295
     57          6           0        8.755425    2.231835   -1.992913
     58          6           0       10.068026    1.953027   -1.179135
     59          6           0        9.756631    1.221097    0.227085
     60          6           0        9.845254   -0.301725    0.095437
     61          6           0       10.557727    1.702713    1.393206
     62          6           0        9.767531    1.820758    2.757488
     63          6           0        9.975412    0.566175    3.715169
     64          6           0       10.411614    0.927670    5.089514
     65          6           0       11.490221    0.024142    5.620002
     66          6           0        9.115757    1.053650    6.019104
     67          1           0        0.077693    1.580748    0.446776
     68          1           0       -5.531644    5.131842    0.043725
     69          1           0       -9.037107   -0.189280    0.170368
     70          1           0       -0.988205   -2.875909    0.986575
     71          1           0        0.211318   -0.896003   -0.692822
     72          1           0        1.565238   -1.533125    1.120160
     73          1           0        0.215866   -1.508672    2.357466
     74          1           0        0.841389   -0.078475    1.775038
     75          1           0       -0.858005   -2.277671   -2.127461
     76          1           0       -1.994686   -3.498982   -1.575811
     77          1           0       -0.574386   -5.078403   -1.787657
     78          1           0        0.153695   -4.579985   -0.386312
     79          1           0       -0.021316    5.176396   -0.577178
     80          1           0        0.440078    3.669168    0.331015
     81          1           0       -0.089490    5.203010    1.159237
     82          1           0       -1.301799    7.024008   -0.590773
     83          1           0       -1.386466    7.036036    1.269085
     84          1           0       -2.216973    8.274616    0.208863
     85          1           0       -7.715970    4.474804   -0.991190
     86          1           0       -9.439410    2.364270    0.282029
     87          1           0       -7.934031    5.572911    1.159931
     88          1           0       -8.309649    4.148128    2.036053
     89          1           0       -9.476865    4.664696    0.730510
     90          1           0       -8.682493    1.479187   -2.367708
     91          1           0       -8.835166    3.234995   -2.390480
     92          1           0      -11.020508    3.177763   -2.031508
     93          1           0      -11.038998    1.558544   -1.295735
     94          1           0      -10.695452    1.873159   -3.069336
     95          1           0       -9.255042   -3.377235   -0.077263
     96          1           0       -9.570772   -2.036554    1.163208
     97          1           0       -8.849544   -3.549864    1.652371
     98          1           0       -3.719612   -4.640138   -0.546343
     99          1           0       -2.166215   -6.990017    2.821846
    100          1           0       -1.121499   -5.813616    2.076303
    101          1           0       -1.257344   -7.344519    1.320766
    102          1           0        3.758638   -4.195182   -2.439578
    103          1           0        3.973893   -4.197977   -0.755620
    104          1           0        3.562567   -1.489704   -2.216512
    105          1           0        5.907580   -3.394609   -0.052844
    106          1           0        7.372752   -2.336140   -0.420479
    107          1           0        6.833477   -3.428949   -1.600450
    108          1           0        6.890909   -0.188692   -1.518524
    109          1           0        5.278281    0.339284   -1.755631
    110          1           0        5.544676    0.234538   -3.821731
    111          1           0        6.023229   -1.454514   -3.956390
    112          1           0        7.937545   -0.753836   -4.705100
    113          1           0        8.313616   -0.299882   -3.077141
    114          1           0        6.776643    1.890029   -4.202522
    115          1           0        8.680884    2.182258   -6.089655
    116          1           0        6.985985    1.667137   -6.421569
    117          1           0        8.230587    0.562541   -6.376293
    118          1           0        9.057863    3.011800   -4.033579
    119          1           0        9.860710    1.516437   -3.634977
    120          1           0        7.891108    1.828465   -1.466567
    121          1           0        8.539881    3.300600   -1.979084
    122          1           0       10.563941    2.909065   -1.012699
    123          1           0       10.729865    1.266204   -1.707958
    124          1           0        8.705544    1.360893    0.479703
    125          1           0        8.902693   -0.810910    0.296241
    126          1           0       10.622356   -0.669600    0.765627
    127          1           0       10.088810   -0.601849   -0.924722
    128          1           0       10.895981    2.716965    1.181970
    129          1           0       11.476780    1.117806    1.379127
    130          1           0        8.708997    1.840683    2.495390
    131          1           0        9.985362    2.789744    3.206115
    132          1           0       10.623295   -0.161447    3.224330
    133          1           0        9.055539   -0.009096    3.826760
    134          1           0       10.803409    1.944423    5.103252
    135          1           0       11.991713   -0.604930    4.884679
    136          1           0       11.148201   -0.562044    6.473181
    137          1           0       12.338626    0.589126    6.005394
    138          1           0        8.210153    0.668085    5.549355
    139          1           0        9.022421    2.113872    6.253924
    140          1           0        9.206102    0.424552    6.904483
 ---------------------------------------------------------------------

 SCF Done:  E(RCAM-B3LYP) =  -3007.14381489     A.U. after   19 cycles

 Excitation energies and oscillator strengths:

 Excited State   1:      Singlet-A      1.6584 eV  747.63 nm  f=0.3995  <S**2>=0.000
     245 -> 248        0.17564
     246 -> 247        0.68767
     245 <- 248        0.10980
 This state for optimization and/or second-order correction.
 Total Energy, E(TD-HF/TD-DFT) =  -3007.08287147
 Copying the excited state density for this state as the 1-particle RhoCI density.

 Excited State   2:      Singlet-A      2.2000 eV  563.57 nm  f=0.1301  <S**2>=0.000
     245 -> 247        0.64426
     246 -> 248       -0.27991

 Excited State   3:      Singlet-A      3.3092 eV  374.67 nm  f=0.0076  <S**2>=0.000
     243 -> 247       -0.36427
     244 -> 247        0.58427

 Excited State   4:      Singlet-A      3.3978 eV  364.90 nm  f=0.0102  <S**2>=0.000
     240 -> 247       -0.15310
     243 -> 247        0.52301
     244 -> 247        0.35866
     246 -> 248        0.22845

 Excited State   5:      Singlet-A      3.4224 eV  362.27 nm  f=0.0013  <S**2>=0.000
     240 -> 247        0.57895
     240 -> 249        0.30784
     240 -> 250        0.11340
     243 -> 247        0.13481

 The electronic state is 1-A.
 Alpha  occ. eigenvalues --  -46.88317 -19.25960 -19.25187 -19.20238 -19.20087
 Alpha  occ. eigenvalues --  -19.18701 -19.18164 -14.42897 -14.41713 -14.39881
 Alpha  occ. eigenvalues --  -14.39103 -10.40069 -10.39445 -10.34655 -10.34619
 Alpha  occ. eigenvalues --  -10.32552 -10.32192 -10.31882 -10.31371 -10.30940
 Alpha  occ. eigenvalues --  -10.30307 -10.30143 -10.29744 -10.29648 -10.29602
 Alpha  occ. eigenvalues --  -10.28922 -10.28866 -10.28795 -10.28428 -10.28237
 Alpha  occ. eigenvalues --  -10.28085 -10.28023 -10.27742 -10.27643 -10.27539
 Alpha  occ. eigenvalues --  -10.27527 -10.27223 -10.26922 -10.26723 -10.26637
 Alpha  occ. eigenvalues --  -10.26557 -10.26476 -10.26177 -10.26059 -10.25988
 Alpha  occ. eigenvalues --  -10.25957 -10.25739 -10.25724 -10.25660 -10.25641
 Alpha  occ. eigenvalues --  -10.25602 -10.25576 -10.25546 -10.25468 -10.25428
 Alpha  occ. eigenvalues --  -10.25357 -10.25282 -10.25007 -10.24701 -10.24636
 Alpha  occ. eigenvalues --  -10.24625 -10.24614 -10.24491 -10.24475 -10.24473
 Alpha  occ. eigenvalues --  -10.24116  -3.16871  -1.91787  -1.91313  -1.91189
 Alpha  occ. eigenvalues --   -1.17716  -1.15598  -1.10654  -1.09699  -1.08245
 Alpha  occ. eigenvalues --   -1.06868  -1.04417  -1.03478  -1.02120  -1.00530
 Alpha  occ. eigenvalues --   -0.91873  -0.91072  -0.89985  -0.89764  -0.89124
 Alpha  occ. eigenvalues --   -0.88744  -0.88253  -0.87883  -0.87593  -0.87171
 Alpha  occ. eigenvalues --   -0.86532  -0.85322  -0.84475  -0.83853  -0.83271
 Alpha  occ. eigenvalues --   -0.82944  -0.82507  -0.81658  -0.80693  -0.80221
 Alpha  occ. eigenvalues --   -0.79899  -0.78126  -0.77593  -0.77072  -0.76319
 Alpha  occ. eigenvalues --   -0.75925  -0.75820  -0.75097  -0.75032  -0.74315
 Alpha  occ. eigenvalues --   -0.73949  -0.72832  -0.71368  -0.70771  -0.68840
 Alpha  occ. eigenvalues --   -0.68781  -0.68068  -0.67282  -0.66439  -0.65870
 Alpha  occ. eigenvalues --   -0.65567  -0.65057  -0.64496  -0.64289  -0.63898
 Alpha  occ. eigenvalues --   -0.63542  -0.63475  -0.63156  -0.62575  -0.60330
 Alpha  occ. eigenvalues --   -0.59919  -0.59525  -0.58717  -0.58340  -0.57872
 Alpha  occ. eigenvalues --   -0.57678  -0.57377  -0.56237  -0.55960  -0.55847
 Alpha  occ. eigenvalues --   -0.55326  -0.54747  -0.54352  -0.54076  -0.53766
 Alpha  occ. eigenvalues --   -0.53724  -0.53490  -0.53348  -0.53255  -0.53035
 Alpha  occ. eigenvalues --   -0.52756  -0.52346  -0.52059  -0.51897  -0.51857
 Alpha  occ. eigenvalues --   -0.51711  -0.51543  -0.51160  -0.51069  -0.50734
 Alpha  occ. eigenvalues --   -0.50653  -0.50447  -0.50231  -0.50098  -0.49902
 Alpha  occ. eigenvalues --   -0.49672  -0.49564  -0.49300  -0.49214  -0.48618
 Alpha  occ. eigenvalues --   -0.48390  -0.48247  -0.48176  -0.48011  -0.47985
 Alpha  occ. eigenvalues --   -0.47563  -0.47459  -0.47335  -0.47007  -0.46886
 Alpha  occ. eigenvalues --   -0.46698  -0.46434  -0.46204  -0.46042  -0.45934
 Alpha  occ. eigenvalues --   -0.45882  -0.45670  -0.45325  -0.45256  -0.44890
 Alpha  occ. eigenvalues --   -0.44611  -0.44432  -0.44366  -0.44136  -0.44121
 Alpha  occ. eigenvalues --   -0.43999  -0.43885  -0.43631  -0.43451  -0.43330
 Alpha  occ. eigenvalues --   -0.43215  -0.43005  -0.42493  -0.42385  -0.42212
 Alpha  occ. eigenvalues --   -0.42114  -0.41688  -0.41658  -0.41262  -0.41036
 Alpha  occ. eigenvalues --   -0.40973  -0.40894  -0.40643  -0.40460  -0.40263
 Alpha  occ. eigenvalues --   -0.39753  -0.39224  -0.39026  -0.38431  -0.38243
 Alpha  occ. eigenvalues --   -0.38209  -0.37814  -0.37648  -0.37400  -0.37360
 Alpha  occ. eigenvalues --   -0.37320  -0.37132  -0.36846  -0.36820  -0.36576
 Alpha  occ. eigenvalues --   -0.36223  -0.35679  -0.35551  -0.34655  -0.34253
 Alpha  occ. eigenvalues --   -0.34129  -0.33784  -0.32890  -0.31142  -0.30818
 Alpha  occ. eigenvalues --   -0.30368  -0.30109  -0.29951  -0.29329  -0.24120
 Alpha  occ. eigenvalues --   -0.21145
 Alpha virt. eigenvalues --   -0.09006  -0.01552   0.00441   0.02786   0.03728
 Alpha virt. eigenvalues --    0.04045   0.04978   0.05258   0.05363   0.06376
 Alpha virt. eigenvalues --    0.08130   0.08349   0.08600   0.08942   0.09146

 Mulliken charges:
               1
     1  Mg   0.832210
     2  C    0.005289
     3  C   -0.089861
     4  C   -0.061032
     5  C   -0.077973
     6  N   -0.356478
     7  C   -0.012016
     8  C   -0.009650
     9  C   -0.081300
    10  C    0.087224
    11  C    0.049950
    12  C    0.096523
    13  C    0.088466
    14  C    0.142326
    15  O   -0.252971
    16  O   -0.344420
    17  N   -0.419514
    18  C    0.152857
    19  C   -0.157122
    20  C   -0.091044
    21  C    0.160753
    22  C    0.145206
    23  C   -0.006515
    24  O   -0.214784
    25  C    0.089375
    26  N   -0.276428
    27  C    0.044987
    28  C   -0.048767
    29  C   -0.062053
    30  C    0.095006
    31  C    0.063796
    32  C    0.034908
    33  C   -0.002018
    34  N   -0.281924
    35  C    0.067822
    36  C   -0.165616
    37  C    0.011079
    38  C    0.078951
    39  C    0.132854
    40  C    0.024309
    41  O   -0.146798
    42  C   -0.053719
    43  C    0.194471
    44  O   -0.216355
    45  O   -0.310321
    46  C    0.182630
    47  C    0.280632
    48  C   -0.101695
    49  C   -0.172031
    50  C    0.080893
    51  C    0.114662
    52  C   -0.006383
    53  C    0.064465
    54  C   -0.116343
    55  C    0.021941
    56  C    0.046357
    57  C   -0.002474
    58  C    0.060492
    59  C   -0.162486
    60  C    0.044043
    61  C    0.046476
    62  C    0.028177
    63  C    0.059294
    64  C   -0.151404
    65  C    0.056315
    66  C    0.033909
    67  H   -0.002151
    68  H    0.001760
    69  H   -0.023164
    70  H    0.024486
    71  H    0.013738
    72  H    0.033032
    73  H    0.022884
    74  H   -0.009875
    75  H    0.032320
    76  H    0.014328
    77  H    0.028148
    78  H    0.017624
    79  H    0.027784
    80  H    0.004976
    81  H    0.023240
    82  H    0.033106
    83  H    0.039477
    84  H    0.026894
    85  H    0.018056
    86  H    0.006005
    87  H    0.022374
    88  H    0.017486
    89  H    0.024450
    90  H    0.010095
    91  H   -0.000978
    92  H    0.002923
    93  H    0.014810
    94  H    0.011359
    95  H    0.045886
    96  H    0.021539
    97  H    0.039284
    98  H    0.044139
    99  H    0.053011
   100  H    0.014835
   101  H    0.030866
   102  H    0.038323
   103  H    0.002737
   104  H   -0.011946
   105  H    0.034694
   106  H    0.002367
   107  H    0.019556
   108  H   -0.015903
   109  H    0.006009
   110  H   -0.008715
   111  H    0.007114
   112  H   -0.006057
   113  H   -0.015031
   114  H   -0.001023
   115  H    0.000044
   116  H    0.008500
   117  H   -0.004218
   118  H   -0.002308
   119  H   -0.005556
   120  H    0.004874
   121  H   -0.005614
   122  H    0.001467
   123  H    0.004111
   124  H   -0.008705
   125  H    0.017825
   126  H    0.005416
   127  H    0.002236
   128  H   -0.020815
   129  H   -0.006962
   130  H   -0.007006
   131  H    0.005028
   132  H   -0.012363
   133  H   -0.011868
   134  H    0.000304
   135  H    0.003677
   136  H    0.003570
   137  H   -0.002716
   138  H    0.006768
   139  H    0.017478
   140  H    0.002808
 Sum of Mulliken charges =  -0.00000

 Dipole moment (field-independent basis, Debye):
    X=              4.0531    Y=              2.5403    Z=              0.2019  Tot=              4.7877
 Quadrupole moment (field-independent basis, Debye-Ang):
   XX=           -374.2951   YY=           -423.2038   ZZ=           -419.2631
   XY=            -13.8013   XZ=              9.2011   YZ=             -7.5231

 Normal termination of Gaussian 16 at Thu Apr 28 19:54:06 2022.
