 Gaussian 16, Revision A.03,
 Gaussian 16:  ES64L-G16RevA.03 25-Dec-2016

 ---------------------------------
 #p PBE1PBE/Def2SVP td=(nstates=5)
 ---------------------------------

 ------------------------------------------------------
 step_1701_chromophore_27 TDDFT with PBE1PBE functional
 ------------------------------------------------------
 Symbolic Z-matrix:
 Charge =  0 Multiplicity = 1

                         Standard orientation:
 ---------------------------------------------------------------------
 Center     Atomic      Atomic             Coordinates (Angstroms)
 Number     Number       Type             X           Y           Z
 ---------------------------------------------------------------------
      1         12           0       -4.468090    0.878696    0.475639
      2          6           0       -3.920600   -2.602872    0.377673
      3          6           0       -1.009934    1.495831    0.397894
      4          6           0       -5.249261    4.085839    0.182423
      5          6           0       -7.985440    0.077576    0.300524
      6          7           0       -2.764902   -0.412422    0.278225
      7          6           0       -2.711510   -1.819674    0.284071
      8          6           0       -1.245039   -2.312238    0.089935
      9          6           0       -0.382598   -0.958522    0.218690
     10          6           0       -1.452571    0.165066    0.303125
     11          6           0        0.620808   -1.090342    1.436568
     12          6           0       -1.048475   -3.010872   -1.343341
     13          6           0       -0.142724   -4.175485   -1.354390
     14          6           0        1.175864   -4.006189   -2.098342
     15          8           0        1.429691   -4.236408   -3.307259
     16          8           0        2.150868   -3.597680   -1.186590
     17          7           0       -3.336076    2.528090    0.438589
     18          6           0       -1.923139    2.637269    0.405426
     19          6           0       -1.527718    4.008411    0.353773
     20          6           0       -2.771060    4.761956    0.353468
     21          6           0       -3.889074    3.748883    0.370072
     22          6           0       -0.203145    4.548881    0.294650
     23          6           0       -2.984301    6.314788    0.268527
     24          8           0       -4.105002    6.783272    0.119139
     25          6           0       -1.867507    7.247648    0.313934
     26          7           0       -6.337271    1.924158    0.265847
     27          6           0       -6.322023    3.250569    0.166346
     28          6           0       -7.748686    3.828732   -0.113549
     29          6           0       -8.559223    2.461080   -0.353806
     30          6           0       -7.548073    1.366831   -0.002861
     31          6           0       -8.438408    4.611369    1.057955
     32          6           0       -9.081766    2.336583   -1.825055
     33          6           0      -10.553070    2.192770   -2.036594
     34          7           0       -5.805957   -0.878739    0.526177
     35          6           0       -7.141054   -1.038903    0.513903
     36          6           0       -7.532282   -2.434034    0.630316
     37          6           0       -6.287587   -3.122726    0.510009
     38          6           0       -5.246570   -2.098439    0.409526
     39          6           0       -8.932890   -2.850671    0.820870
     40          6           0       -5.645096   -4.392654    0.405721
     41          8           0       -6.097471   -5.509135    0.412407
     42          6           0       -4.094295   -4.160924    0.358099
     43          6           0       -3.331488   -4.832251    1.498474
     44          8           0       -3.189033   -4.495496    2.660970
     45          8           0       -2.752789   -5.910686    0.935886
     46          6           0       -1.845508   -6.599238    1.856990
     47          6           0        3.534844   -3.600321   -1.554462
     48          6           0        4.163048   -2.214042   -1.667034
     49          6           0        5.433402   -1.850388   -1.491250
     50          6           0        6.460735   -2.807755   -0.785555
     51          6           0        5.936935   -0.509548   -1.937067
     52          6           0        6.221886   -0.522159   -3.426175
     53          6           0        7.614936   -0.106707   -3.890424
     54          6           0        7.724500    1.358940   -4.282007
     55          6           0        7.896073    1.461540   -5.858648
     56          6           0        8.915349    2.051408   -3.538295
     57          6           0        8.755425    2.231835   -1.992913
     58          6           0       10.068026    1.953027   -1.179135
     59          6           0        9.756631    1.221097    0.227085
     60          6           0        9.845254   -0.301725    0.095437
     61          6           0       10.557727    1.702713    1.393206
     62          6           0        9.767531    1.820758    2.757488
     63          6           0        9.975412    0.566175    3.715169
     64          6           0       10.411614    0.927670    5.089514
     65          6           0       11.490221    0.024142    5.620002
     66          6           0        9.115757    1.053650    6.019104
     67          1           0        0.077693    1.580748    0.446776
     68          1           0       -5.531644    5.131842    0.043725
     69          1           0       -9.037107   -0.189280    0.170368
     70          1           0       -0.988205   -2.875909    0.986575
     71          1           0        0.211318   -0.896003   -0.692822
     72          1           0        1.565238   -1.533125    1.120160
     73          1           0        0.215866   -1.508672    2.357466
     74          1           0        0.841389   -0.078475    1.775038
     75          1           0       -0.858005   -2.277671   -2.127461
     76          1           0       -1.994686   -3.498982   -1.575811
     77          1           0       -0.574386   -5.078403   -1.787657
     78          1           0        0.153695   -4.579985   -0.386312
     79          1           0       -0.021316    5.176396   -0.577178
     80          1           0        0.440078    3.669168    0.331015
     81          1           0       -0.089490    5.203010    1.159237
     82          1           0       -1.301799    7.024008   -0.590773
     83          1           0       -1.386466    7.036036    1.269085
     84          1           0       -2.216973    8.274616    0.208863
     85          1           0       -7.715970    4.474804   -0.991190
     86          1           0       -9.439410    2.364270    0.282029
     87          1           0       -7.934031    5.572911    1.159931
     88          1           0       -8.309649    4.148128    2.036053
     89          1           0       -9.476865    4.664696    0.730510
     90          1           0       -8.682493    1.479187   -2.367708
     91          1           0       -8.835166    3.234995   -2.390480
     92          1           0      -11.020508    3.177763   -2.031508
     93          1           0      -11.038998    1.558544   -1.295735
     94          1           0      -10.695452    1.873159   -3.069336
     95          1           0       -9.255042   -3.377235   -0.077263
     96          1           0       -9.570772   -2.036554    1.163208
     97          1           0       -8.849544   -3.549864    1.652371
     98          1           0       -3.719612   -4.640138   -0.546343
     99          1           0       -2.166215   -6.990017    2.821846
    100          1           0       -1.121499   -5.813616    2.076303
    101          1           0       -1.257344   -7.344519    1.320766
    102          1           0        3.758638   -4.195182   -2.439578
    103          1           0        3.973893   -4.197977   -0.755620
    104          1           0        3.562567   -1.489704   -2.216512
    105          1           0        5.907580   -3.394609   -0.052844
    106          1           0        7.372752   -2.336140   -0.420479
    107          1           0        6.833477   -3.428949   -1.600450
    108          1           0        6.890909   -0.188692   -1.518524
    109          1           0        5.278281    0.339284   -1.755631
    110          1           0        5.544676    0.234538   -3.821731
    111          1           0        6.023229   -1.454514   -3.956390
    112          1           0        7.937545   -0.753836   -4.705100
    113          1           0        8.313616   -0.299882   -3.077141
    114          1           0        6.776643    1.890029   -4.202522
    115          1           0        8.680884    2.182258   -6.089655
    116          1           0        6.985985    1.667137   -6.421569
    117          1           0        8.230587    0.562541   -6.376293
    118          1           0        9.057863    3.011800   -4.033579
    119          1           0        9.860710    1.516437   -3.634977
    120          1           0        7.891108    1.828465   -1.466567
    121          1           0        8.539881    3.300600   -1.979084
    122          1           0       10.563941    2.909065   -1.012699
    123          1           0       10.729865    1.266204   -1.707958
    124          1           0        8.705544    1.360893    0.479703
    125          1           0        8.902693   -0.810910    0.296241
    126          1           0       10.622356   -0.669600    0.765627
    127          1           0       10.088810   -0.601849   -0.924722
    128          1           0       10.895981    2.716965    1.181970
    129          1           0       11.476780    1.117806    1.379127
    130          1           0        8.708997    1.840683    2.495390
    131          1           0        9.985362    2.789744    3.206115
    132          1           0       10.623295   -0.161447    3.224330
    133          1           0        9.055539   -0.009096    3.826760
    134          1           0       10.803409    1.944423    5.103252
    135          1           0       11.991713   -0.604930    4.884679
    136          1           0       11.148201   -0.562044    6.473181
    137          1           0       12.338626    0.589126    6.005394
    138          1           0        8.210153    0.668085    5.549355
    139          1           0        9.022421    2.113872    6.253924
    140          1           0        9.206102    0.424552    6.904483
 ---------------------------------------------------------------------

 SCF Done:  E(RPBE1PBE) =  -3005.33329130     A.U. after   16 cycles

 Excitation energies and oscillator strengths:

 Excited State   1:      Singlet-A      1.8221 eV  680.46 nm  f=0.3863  <S**2>=0.000
     245 -> 248        0.17128
     246 -> 247        0.69515
     246 <- 247       -0.11535
 This state for optimization and/or second-order correction.
 Total Energy, E(TD-HF/TD-DFT) =  -3005.26633122
 Copying the excited state density for this state as the 1-particle RhoCI density.

 Excited State   2:      Singlet-A      2.2161 eV  559.47 nm  f=0.1225  <S**2>=0.000
     245 -> 247        0.65280
     246 -> 248       -0.26028

 Excited State   3:      Singlet-A      2.9189 eV  424.77 nm  f=0.0002  <S**2>=0.000
     240 -> 247        0.61902
     240 -> 249       -0.15654
     241 -> 247        0.26354

 Excited State   4:      Singlet-A      2.9406 eV  421.63 nm  f=0.0023  <S**2>=0.000
     243 -> 247       -0.36037
     244 -> 247        0.58044

 Excited State   5:      Singlet-A      2.9777 eV  416.37 nm  f=0.0013  <S**2>=0.000
     240 -> 247        0.11387
     243 -> 247        0.58620
     244 -> 247        0.35619

 The electronic state is 1-A.
 Alpha  occ. eigenvalues --  -46.91714 -19.26560 -19.25891 -19.20536 -19.20251
 Alpha  occ. eigenvalues --  -19.18768 -19.18527 -14.42483 -14.41192 -14.39626
 Alpha  occ. eigenvalues --  -14.38652 -10.37126 -10.36390 -10.31877 -10.31639
 Alpha  occ. eigenvalues --  -10.30210 -10.29597 -10.29260 -10.29069 -10.28570
 Alpha  occ. eigenvalues --  -10.28257 -10.27980 -10.27523 -10.27171 -10.27146
 Alpha  occ. eigenvalues --  -10.26681 -10.26618 -10.26361 -10.26090 -10.25995
 Alpha  occ. eigenvalues --  -10.25765 -10.25659 -10.25396 -10.25362 -10.25316
 Alpha  occ. eigenvalues --  -10.25177 -10.25062 -10.24704 -10.24480 -10.24071
 Alpha  occ. eigenvalues --  -10.23934 -10.23916 -10.23880 -10.23544 -10.23510
 Alpha  occ. eigenvalues --  -10.23434 -10.23288 -10.23272 -10.23257 -10.23203
 Alpha  occ. eigenvalues --  -10.23198 -10.23191 -10.23163 -10.23149 -10.23053
 Alpha  occ. eigenvalues --  -10.23029 -10.22946 -10.22391 -10.22270 -10.22215
 Alpha  occ. eigenvalues --  -10.22064 -10.22042 -10.22039 -10.22033 -10.21939
 Alpha  occ. eigenvalues --  -10.21499  -3.13848  -1.86706  -1.86211  -1.86088
 Alpha  occ. eigenvalues --   -1.12446  -1.10418  -1.05273  -1.04554  -1.03001
 Alpha  occ. eigenvalues --   -1.01717  -0.98986  -0.98087  -0.96890  -0.95092
 Alpha  occ. eigenvalues --   -0.86119  -0.85208  -0.84131  -0.83896  -0.83472
 Alpha  occ. eigenvalues --   -0.82879  -0.82539  -0.82030  -0.81816  -0.81474
 Alpha  occ. eigenvalues --   -0.80872  -0.79592  -0.78684  -0.78103  -0.77538
 Alpha  occ. eigenvalues --   -0.77198  -0.76696  -0.75955  -0.74969  -0.74498
 Alpha  occ. eigenvalues --   -0.74104  -0.72437  -0.71936  -0.71413  -0.70504
 Alpha  occ. eigenvalues --   -0.70206  -0.69926  -0.69382  -0.69225  -0.68520
 Alpha  occ. eigenvalues --   -0.68278  -0.67235  -0.65795  -0.65090  -0.63224
 Alpha  occ. eigenvalues --   -0.63074  -0.62445  -0.61534  -0.60923  -0.60082
 Alpha  occ. eigenvalues --   -0.59945  -0.59582  -0.59035  -0.58555  -0.58351
 Alpha  occ. eigenvalues --   -0.57990  -0.57696  -0.57357  -0.57109  -0.54691
 Alpha  occ. eigenvalues --   -0.54450  -0.54138  -0.53252  -0.52928  -0.52291
 Alpha  occ. eigenvalues --   -0.52144  -0.51847  -0.50651  -0.50459  -0.50373
 Alpha  occ. eigenvalues --   -0.49856  -0.49293  -0.48957  -0.48632  -0.48174
 Alpha  occ. eigenvalues --   -0.48155  -0.47988  -0.47867  -0.47812  -0.47594
 Alpha  occ. eigenvalues --   -0.47284  -0.46851  -0.46614  -0.46495  -0.46385
 Alpha  occ. eigenvalues --   -0.46321  -0.46076  -0.45717  -0.45621  -0.45349
 Alpha  occ. eigenvalues --   -0.45235  -0.45049  -0.44753  -0.44720  -0.44533
 Alpha  occ. eigenvalues --   -0.44291  -0.44131  -0.43920  -0.43853  -0.43219
 Alpha  occ. eigenvalues --   -0.43046  -0.42939  -0.42847  -0.42662  -0.42568
 Alpha  occ. eigenvalues --   -0.42213  -0.42073  -0.41940  -0.41680  -0.41536
 Alpha  occ. eigenvalues --   -0.41357  -0.41207  -0.40861  -0.40712  -0.40615
 Alpha  occ. eigenvalues --   -0.40515  -0.40435  -0.39996  -0.39908  -0.39589
 Alpha  occ. eigenvalues --   -0.39316  -0.39168  -0.39101  -0.38973  -0.38854
 Alpha  occ. eigenvalues --   -0.38708  -0.38651  -0.38340  -0.38190  -0.38053
 Alpha  occ. eigenvalues --   -0.38019  -0.37823  -0.37355  -0.37152  -0.37038
 Alpha  occ. eigenvalues --   -0.36958  -0.36551  -0.36461  -0.36159  -0.35886
 Alpha  occ. eigenvalues --   -0.35849  -0.35771  -0.35495  -0.35365  -0.35178
 Alpha  occ. eigenvalues --   -0.34630  -0.34019  -0.33815  -0.33211  -0.33148
 Alpha  occ. eigenvalues --   -0.33081  -0.32669  -0.32586  -0.32251  -0.32211
 Alpha  occ. eigenvalues --   -0.32194  -0.32126  -0.31910  -0.31787  -0.31397
 Alpha  occ. eigenvalues --   -0.31317  -0.30621  -0.30469  -0.29480  -0.29267
 Alpha  occ. eigenvalues --   -0.29117  -0.28780  -0.28469  -0.26818  -0.25567
 Alpha  occ. eigenvalues --   -0.25476  -0.25393  -0.25278  -0.25055  -0.21058
 Alpha  occ. eigenvalues --   -0.18796
 Alpha virt. eigenvalues --   -0.11403  -0.05080  -0.03739  -0.01660  -0.00758
 Alpha virt. eigenvalues --    0.00639   0.00784   0.01021   0.01459   0.02786
 Alpha virt. eigenvalues --    0.03969   0.04760   0.04981   0.05329   0.05468

 Mulliken charges:
               1
     1  Mg   0.982815
     2  C   -0.000795
     3  C   -0.077358
     4  C   -0.046988
     5  C   -0.063266
     6  N   -0.456662
     7  C    0.060105
     8  C   -0.076548
     9  C   -0.154445
    10  C    0.119512
    11  C   -0.009933
    12  C    0.035350
    13  C    0.017706
    14  C    0.208444
    15  O   -0.285997
    16  O   -0.374169
    17  N   -0.541876
    18  C    0.176893
    19  C   -0.185132
    20  C   -0.132483
    21  C    0.197656
    22  C    0.077622
    23  C    0.044940
    24  O   -0.250884
    25  C    0.010692
    26  N   -0.387286
    27  C    0.080726
    28  C   -0.122373
    29  C   -0.144476
    30  C    0.133139
    31  C    0.004040
    32  C   -0.017133
    33  C   -0.075613
    34  N   -0.402358
    35  C    0.085737
    36  C   -0.179000
    37  C   -0.041997
    38  C    0.118750
    39  C    0.078516
    40  C    0.123440
    41  O   -0.195682
    42  C   -0.160442
    43  C    0.285599
    44  O   -0.252566
    45  O   -0.343108
    46  C    0.125058
    47  C    0.242824
    48  C   -0.111240
    49  C   -0.219622
    50  C    0.009889
    51  C    0.043053
    52  C   -0.062137
    53  C    0.007082
    54  C   -0.204178
    55  C   -0.032041
    56  C   -0.011775
    57  C   -0.065538
    58  C    0.005260
    59  C   -0.243905
    60  C   -0.017806
    61  C   -0.012117
    62  C   -0.033145
    63  C    0.003748
    64  C   -0.244774
    65  C   -0.001568
    66  C   -0.023289
    67  H    0.026886
    68  H    0.033561
    69  H    0.007775
    70  H    0.062690
    71  H    0.051091
    72  H    0.061993
    73  H    0.049833
    74  H    0.018806
    75  H    0.061853
    76  H    0.051407
    77  H    0.059532
    78  H    0.049634
    79  H    0.056334
    80  H    0.036714
    81  H    0.052704
    82  H    0.060937
    83  H    0.066476
    84  H    0.055176
    85  H    0.052593
    86  H    0.042207
    87  H    0.050330
    88  H    0.045615
    89  H    0.053405
    90  H    0.042488
    91  H    0.031334
    92  H    0.031556
    93  H    0.041833
    94  H    0.039807
    95  H    0.072786
    96  H    0.046308
    97  H    0.067209
    98  H    0.081040
    99  H    0.074851
   100  H    0.037678
   101  H    0.053033
   102  H    0.064120
   103  H    0.030100
   104  H    0.018624
   105  H    0.060688
   106  H    0.035816
   107  H    0.048519
   108  H    0.022429
   109  H    0.037416
   110  H    0.024941
   111  H    0.039252
   112  H    0.026144
   113  H    0.023094
   114  H    0.035502
   115  H    0.027014
   116  H    0.035537
   117  H    0.022421
   118  H    0.029722
   119  H    0.027159
   120  H    0.037457
   121  H    0.029354
   122  H    0.033246
   123  H    0.035124
   124  H    0.029553
   125  H    0.048659
   126  H    0.032359
   127  H    0.029724
   128  H    0.013663
   129  H    0.025233
   130  H    0.025797
   131  H    0.035087
   132  H    0.020324
   133  H    0.020845
   134  H    0.038449
   135  H    0.030146
   136  H    0.030467
   137  H    0.025115
   138  H    0.032824
   139  H    0.044109
   140  H    0.029599
 Sum of Mulliken charges =  -0.00000

 Dipole moment (field-independent basis, Debye):
    X=              4.2234    Y=              2.9014    Z=              0.1587  Tot=              5.1264
 Quadrupole moment (field-independent basis, Debye-Ang):
   XX=           -370.1431   YY=           -419.8374   ZZ=           -416.6578
   XY=            -15.7761   XZ=              9.3029   YZ=             -7.5509

 Normal termination of Gaussian 16 at Thu Apr 28 20:10:53 2022.
