 Gaussian 16, Revision A.03,
 Gaussian 16:  ES64L-G16RevA.03 25-Dec-2016

 --------------------------------
 #p wB97XD/Def2SVP td=(nstates=5)
 --------------------------------

 -----------------------------------------------------
 step_1701_chromophore_27 TDDFT with wB97XD functional
 -----------------------------------------------------
 Symbolic Z-matrix:
 Charge =  0 Multiplicity = 1

                         Standard orientation:
 ---------------------------------------------------------------------
 Center     Atomic      Atomic             Coordinates (Angstroms)
 Number     Number       Type             X           Y           Z
 ---------------------------------------------------------------------
      1         12           0       -4.468090    0.878696    0.475639
      2          6           0       -3.920600   -2.602872    0.377673
      3          6           0       -1.009934    1.495831    0.397894
      4          6           0       -5.249261    4.085839    0.182423
      5          6           0       -7.985440    0.077576    0.300524
      6          7           0       -2.764902   -0.412422    0.278225
      7          6           0       -2.711510   -1.819674    0.284071
      8          6           0       -1.245039   -2.312238    0.089935
      9          6           0       -0.382598   -0.958522    0.218690
     10          6           0       -1.452571    0.165066    0.303125
     11          6           0        0.620808   -1.090342    1.436568
     12          6           0       -1.048475   -3.010872   -1.343341
     13          6           0       -0.142724   -4.175485   -1.354390
     14          6           0        1.175864   -4.006189   -2.098342
     15          8           0        1.429691   -4.236408   -3.307259
     16          8           0        2.150868   -3.597680   -1.186590
     17          7           0       -3.336076    2.528090    0.438589
     18          6           0       -1.923139    2.637269    0.405426
     19          6           0       -1.527718    4.008411    0.353773
     20          6           0       -2.771060    4.761956    0.353468
     21          6           0       -3.889074    3.748883    0.370072
     22          6           0       -0.203145    4.548881    0.294650
     23          6           0       -2.984301    6.314788    0.268527
     24          8           0       -4.105002    6.783272    0.119139
     25          6           0       -1.867507    7.247648    0.313934
     26          7           0       -6.337271    1.924158    0.265847
     27          6           0       -6.322023    3.250569    0.166346
     28          6           0       -7.748686    3.828732   -0.113549
     29          6           0       -8.559223    2.461080   -0.353806
     30          6           0       -7.548073    1.366831   -0.002861
     31          6           0       -8.438408    4.611369    1.057955
     32          6           0       -9.081766    2.336583   -1.825055
     33          6           0      -10.553070    2.192770   -2.036594
     34          7           0       -5.805957   -0.878739    0.526177
     35          6           0       -7.141054   -1.038903    0.513903
     36          6           0       -7.532282   -2.434034    0.630316
     37          6           0       -6.287587   -3.122726    0.510009
     38          6           0       -5.246570   -2.098439    0.409526
     39          6           0       -8.932890   -2.850671    0.820870
     40          6           0       -5.645096   -4.392654    0.405721
     41          8           0       -6.097471   -5.509135    0.412407
     42          6           0       -4.094295   -4.160924    0.358099
     43          6           0       -3.331488   -4.832251    1.498474
     44          8           0       -3.189033   -4.495496    2.660970
     45          8           0       -2.752789   -5.910686    0.935886
     46          6           0       -1.845508   -6.599238    1.856990
     47          6           0        3.534844   -3.600321   -1.554462
     48          6           0        4.163048   -2.214042   -1.667034
     49          6           0        5.433402   -1.850388   -1.491250
     50          6           0        6.460735   -2.807755   -0.785555
     51          6           0        5.936935   -0.509548   -1.937067
     52          6           0        6.221886   -0.522159   -3.426175
     53          6           0        7.614936   -0.106707   -3.890424
     54          6           0        7.724500    1.358940   -4.282007
     55          6           0        7.896073    1.461540   -5.858648
     56          6           0        8.915349    2.051408   -3.538295
     57          6           0        8.755425    2.231835   -1.992913
     58          6           0       10.068026    1.953027   -1.179135
     59          6           0        9.756631    1.221097    0.227085
     60          6           0        9.845254   -0.301725    0.095437
     61          6           0       10.557727    1.702713    1.393206
     62          6           0        9.767531    1.820758    2.757488
     63          6           0        9.975412    0.566175    3.715169
     64          6           0       10.411614    0.927670    5.089514
     65          6           0       11.490221    0.024142    5.620002
     66          6           0        9.115757    1.053650    6.019104
     67          1           0        0.077693    1.580748    0.446776
     68          1           0       -5.531644    5.131842    0.043725
     69          1           0       -9.037107   -0.189280    0.170368
     70          1           0       -0.988205   -2.875909    0.986575
     71          1           0        0.211318   -0.896003   -0.692822
     72          1           0        1.565238   -1.533125    1.120160
     73          1           0        0.215866   -1.508672    2.357466
     74          1           0        0.841389   -0.078475    1.775038
     75          1           0       -0.858005   -2.277671   -2.127461
     76          1           0       -1.994686   -3.498982   -1.575811
     77          1           0       -0.574386   -5.078403   -1.787657
     78          1           0        0.153695   -4.579985   -0.386312
     79          1           0       -0.021316    5.176396   -0.577178
     80          1           0        0.440078    3.669168    0.331015
     81          1           0       -0.089490    5.203010    1.159237
     82          1           0       -1.301799    7.024008   -0.590773
     83          1           0       -1.386466    7.036036    1.269085
     84          1           0       -2.216973    8.274616    0.208863
     85          1           0       -7.715970    4.474804   -0.991190
     86          1           0       -9.439410    2.364270    0.282029
     87          1           0       -7.934031    5.572911    1.159931
     88          1           0       -8.309649    4.148128    2.036053
     89          1           0       -9.476865    4.664696    0.730510
     90          1           0       -8.682493    1.479187   -2.367708
     91          1           0       -8.835166    3.234995   -2.390480
     92          1           0      -11.020508    3.177763   -2.031508
     93          1           0      -11.038998    1.558544   -1.295735
     94          1           0      -10.695452    1.873159   -3.069336
     95          1           0       -9.255042   -3.377235   -0.077263
     96          1           0       -9.570772   -2.036554    1.163208
     97          1           0       -8.849544   -3.549864    1.652371
     98          1           0       -3.719612   -4.640138   -0.546343
     99          1           0       -2.166215   -6.990017    2.821846
    100          1           0       -1.121499   -5.813616    2.076303
    101          1           0       -1.257344   -7.344519    1.320766
    102          1           0        3.758638   -4.195182   -2.439578
    103          1           0        3.973893   -4.197977   -0.755620
    104          1           0        3.562567   -1.489704   -2.216512
    105          1           0        5.907580   -3.394609   -0.052844
    106          1           0        7.372752   -2.336140   -0.420479
    107          1           0        6.833477   -3.428949   -1.600450
    108          1           0        6.890909   -0.188692   -1.518524
    109          1           0        5.278281    0.339284   -1.755631
    110          1           0        5.544676    0.234538   -3.821731
    111          1           0        6.023229   -1.454514   -3.956390
    112          1           0        7.937545   -0.753836   -4.705100
    113          1           0        8.313616   -0.299882   -3.077141
    114          1           0        6.776643    1.890029   -4.202522
    115          1           0        8.680884    2.182258   -6.089655
    116          1           0        6.985985    1.667137   -6.421569
    117          1           0        8.230587    0.562541   -6.376293
    118          1           0        9.057863    3.011800   -4.033579
    119          1           0        9.860710    1.516437   -3.634977
    120          1           0        7.891108    1.828465   -1.466567
    121          1           0        8.539881    3.300600   -1.979084
    122          1           0       10.563941    2.909065   -1.012699
    123          1           0       10.729865    1.266204   -1.707958
    124          1           0        8.705544    1.360893    0.479703
    125          1           0        8.902693   -0.810910    0.296241
    126          1           0       10.622356   -0.669600    0.765627
    127          1           0       10.088810   -0.601849   -0.924722
    128          1           0       10.895981    2.716965    1.181970
    129          1           0       11.476780    1.117806    1.379127
    130          1           0        8.708997    1.840683    2.495390
    131          1           0        9.985362    2.789744    3.206115
    132          1           0       10.623295   -0.161447    3.224330
    133          1           0        9.055539   -0.009096    3.826760
    134          1           0       10.803409    1.944423    5.103252
    135          1           0       11.991713   -0.604930    4.884679
    136          1           0       11.148201   -0.562044    6.473181
    137          1           0       12.338626    0.589126    6.005394
    138          1           0        8.210153    0.668085    5.549355
    139          1           0        9.022421    2.113872    6.253924
    140          1           0        9.206102    0.424552    6.904483
 ---------------------------------------------------------------------

 SCF Done:  E(RwB97XD) =  -3007.84178813     A.U. after   19 cycles

 Excitation energies and oscillator strengths:

 Excited State   1:      Singlet-A      1.5987 eV  775.54 nm  f=0.3981  <S**2>=0.000
     245 -> 248        0.18106
     246 -> 247        0.68526
     245 <- 248        0.11895
 This state for optimization and/or second-order correction.
 Total Energy, E(TD-HF/TD-DFT) =  -3007.78303794
 Copying the excited state density for this state as the 1-particle RhoCI density.

 Excited State   2:      Singlet-A      2.1427 eV  578.64 nm  f=0.1259  <S**2>=0.000
     245 -> 247        0.64192
     246 -> 248       -0.28303

 Excited State   3:      Singlet-A      3.3392 eV  371.30 nm  f=0.0125  <S**2>=0.000
     241 -> 247       -0.11468
     242 -> 247       -0.44738
     244 -> 247        0.49109
     246 -> 248       -0.13416

 Excited State   4:      Singlet-A      3.4266 eV  361.83 nm  f=0.0204  <S**2>=0.000
     240 -> 247       -0.26997
     240 -> 249       -0.14131
     241 -> 247        0.13307
     242 -> 247        0.34438
     244 -> 247        0.42904
     246 -> 248        0.24580

 Excited State   5:      Singlet-A      3.4493 eV  359.45 nm  f=0.0093  <S**2>=0.000
     240 -> 247        0.52274
     240 -> 249        0.30756
     240 -> 250        0.10991
     242 -> 247        0.19577
     244 -> 247        0.18716
     246 -> 248        0.12974

 The electronic state is 1-A.
 Alpha  occ. eigenvalues --  -46.94653 -19.31218 -19.30430 -19.25221 -19.25065
 Alpha  occ. eigenvalues --  -19.23814 -19.23149 -14.47538 -14.46301 -14.44473
 Alpha  occ. eigenvalues --  -14.43719 -10.43918 -10.43323 -10.38707 -10.38533
 Alpha  occ. eigenvalues --  -10.36654 -10.36084 -10.35658 -10.35402 -10.34976
 Alpha  occ. eigenvalues --  -10.34316 -10.34125 -10.33706 -10.33705 -10.33682
 Alpha  occ. eigenvalues --  -10.33130 -10.32978 -10.32962 -10.32538 -10.32281
 Alpha  occ. eigenvalues --  -10.32076 -10.32074 -10.31649 -10.31648 -10.31588
 Alpha  occ. eigenvalues --  -10.31568 -10.31287 -10.30984 -10.30798 -10.30562
 Alpha  occ. eigenvalues --  -10.30432 -10.30328 -10.30174 -10.30090 -10.29885
 Alpha  occ. eigenvalues --  -10.29848 -10.29652 -10.29622 -10.29586 -10.29574
 Alpha  occ. eigenvalues --  -10.29533 -10.29500 -10.29489 -10.29450 -10.29381
 Alpha  occ. eigenvalues --  -10.29378 -10.29211 -10.28804 -10.28613 -10.28550
 Alpha  occ. eigenvalues --  -10.28457 -10.28456 -10.28390 -10.28389 -10.28335
 Alpha  occ. eigenvalues --  -10.27913  -3.20638  -1.94247  -1.93751  -1.93624
 Alpha  occ. eigenvalues --   -1.19932  -1.17800  -1.12955  -1.11867  -1.10471
 Alpha  occ. eigenvalues --   -1.09081  -1.06454  -1.05513  -1.04113  -1.02528
 Alpha  occ. eigenvalues --   -0.93886  -0.92869  -0.91812  -0.91550  -0.91026
 Alpha  occ. eigenvalues --   -0.90532  -0.90113  -0.89666  -0.89560  -0.89097
 Alpha  occ. eigenvalues --   -0.88458  -0.87210  -0.86326  -0.85768  -0.85163
 Alpha  occ. eigenvalues --   -0.84827  -0.84350  -0.83620  -0.82586  -0.82152
 Alpha  occ. eigenvalues --   -0.81768  -0.80080  -0.79510  -0.79006  -0.78181
 Alpha  occ. eigenvalues --   -0.77866  -0.77605  -0.76961  -0.76902  -0.76162
 Alpha  occ. eigenvalues --   -0.75870  -0.74846  -0.73327  -0.72708  -0.70824
 Alpha  occ. eigenvalues --   -0.70696  -0.69985  -0.69153  -0.68405  -0.67720
 Alpha  occ. eigenvalues --   -0.67466  -0.67077  -0.66488  -0.66137  -0.65850
 Alpha  occ. eigenvalues --   -0.65481  -0.65320  -0.64983  -0.64590  -0.62216
 Alpha  occ. eigenvalues --   -0.61899  -0.61518  -0.60713  -0.60316  -0.59806
 Alpha  occ. eigenvalues --   -0.59628  -0.59381  -0.58169  -0.57884  -0.57816
 Alpha  occ. eigenvalues --   -0.57325  -0.56697  -0.56299  -0.56019  -0.55640
 Alpha  occ. eigenvalues --   -0.55589  -0.55377  -0.55238  -0.55195  -0.54987
 Alpha  occ. eigenvalues --   -0.54706  -0.54215  -0.53949  -0.53855  -0.53756
 Alpha  occ. eigenvalues --   -0.53664  -0.53437  -0.53103  -0.52955  -0.52647
 Alpha  occ. eigenvalues --   -0.52547  -0.52358  -0.52192  -0.52044  -0.51809
 Alpha  occ. eigenvalues --   -0.51625  -0.51433  -0.51201  -0.51152  -0.50495
 Alpha  occ. eigenvalues --   -0.50312  -0.50142  -0.50094  -0.49897  -0.49856
 Alpha  occ. eigenvalues --   -0.49449  -0.49401  -0.49212  -0.48940  -0.48858
 Alpha  occ. eigenvalues --   -0.48625  -0.48352  -0.48092  -0.47960  -0.47806
 Alpha  occ. eigenvalues --   -0.47757  -0.47586  -0.47277  -0.47171  -0.46787
 Alpha  occ. eigenvalues --   -0.46562  -0.46322  -0.46294  -0.46060  -0.46032
 Alpha  occ. eigenvalues --   -0.45919  -0.45806  -0.45574  -0.45325  -0.45199
 Alpha  occ. eigenvalues --   -0.45152  -0.44905  -0.44484  -0.44266  -0.44187
 Alpha  occ. eigenvalues --   -0.44015  -0.43653  -0.43563  -0.43238  -0.42900
 Alpha  occ. eigenvalues --   -0.42889  -0.42772  -0.42521  -0.42361  -0.42157
 Alpha  occ. eigenvalues --   -0.41608  -0.41081  -0.40875  -0.40270  -0.40145
 Alpha  occ. eigenvalues --   -0.40085  -0.39659  -0.39567  -0.39403  -0.39252
 Alpha  occ. eigenvalues --   -0.39193  -0.39065  -0.38916  -0.38774  -0.38417
 Alpha  occ. eigenvalues --   -0.38182  -0.37565  -0.37434  -0.36638  -0.36095
 Alpha  occ. eigenvalues --   -0.36079  -0.35773  -0.35135  -0.33371  -0.32854
 Alpha  occ. eigenvalues --   -0.32267  -0.32178  -0.32130  -0.31473  -0.26042
 Alpha  occ. eigenvalues --   -0.22939
 Alpha virt. eigenvalues --   -0.07368   0.00355   0.02483   0.04915   0.06076
 Alpha virt. eigenvalues --    0.07083   0.07323   0.07481   0.07787   0.09088
 Alpha virt. eigenvalues --    0.10587   0.11520   0.11670   0.12040   0.12208

 Mulliken charges:
               1
     1  Mg   0.972559
     2  C   -0.009832
     3  C   -0.095987
     4  C   -0.063991
     5  C   -0.083634
     6  N   -0.427645
     7  C    0.034297
     8  C   -0.054415
     9  C   -0.128250
    10  C    0.106252
    11  C    0.002005
    12  C    0.050642
    13  C    0.032181
    14  C    0.196901
    15  O   -0.283094
    16  O   -0.373153
    17  N   -0.507152
    18  C    0.167278
    19  C   -0.172961
    20  C   -0.131074
    21  C    0.183700
    22  C    0.092225
    23  C    0.042168
    24  O   -0.247238
    25  C    0.023494
    26  N   -0.350544
    27  C    0.063425
    28  C   -0.096714
    29  C   -0.115398
    30  C    0.120444
    31  C    0.015289
    32  C   -0.007514
    33  C   -0.058409
    34  N   -0.365389
    35  C    0.081402
    36  C   -0.173111
    37  C   -0.038830
    38  C    0.109569
    39  C    0.088020
    40  C    0.106415
    41  O   -0.184933
    42  C   -0.119701
    43  C    0.261092
    44  O   -0.246456
    45  O   -0.341748
    46  C    0.141503
    47  C    0.255119
    48  C   -0.124802
    49  C   -0.202304
    50  C    0.031417
    51  C    0.075367
    52  C   -0.049097
    53  C    0.030391
    54  C   -0.179062
    55  C   -0.021024
    56  C    0.010729
    57  C   -0.050601
    58  C    0.022909
    59  C   -0.211817
    60  C   -0.002254
    61  C    0.004796
    62  C   -0.017457
    63  C    0.022569
    64  C   -0.216022
    65  C    0.009889
    66  C   -0.011264
    67  H    0.020443
    68  H    0.028887
    69  H    0.001663
    70  H    0.048282
    71  H    0.040346
    72  H    0.057786
    73  H    0.044297
    74  H    0.011054
    75  H    0.057751
    76  H    0.038344
    77  H    0.055541
    78  H    0.043271
    79  H    0.050435
    80  H    0.029979
    81  H    0.045467
    82  H    0.054059
    83  H    0.060280
    84  H    0.053940
    85  H    0.044020
    86  H    0.030365
    87  H    0.045145
    88  H    0.039759
    89  H    0.045728
    90  H    0.034215
    91  H    0.023431
    92  H    0.024833
    93  H    0.034989
    94  H    0.034462
    95  H    0.070031
    96  H    0.042809
    97  H    0.063015
    98  H    0.073461
    99  H    0.071976
   100  H    0.031109
   101  H    0.050331
   102  H    0.060275
   103  H    0.024422
   104  H    0.015150
   105  H    0.054456
   106  H    0.025806
   107  H    0.041721
   108  H   -0.004107
   109  H    0.032470
   110  H    0.014519
   111  H    0.031322
   112  H    0.018315
   113  H    0.004261
   114  H    0.024090
   115  H    0.020665
   116  H    0.030587
   117  H    0.015644
   118  H    0.021574
   119  H    0.015952
   120  H    0.024892
   121  H    0.021796
   122  H    0.025982
   123  H    0.023672
   124  H    0.012177
   125  H    0.037836
   126  H    0.025483
   127  H    0.022533
   128  H    0.004848
   129  H    0.015305
   130  H    0.017135
   131  H    0.028253
   132  H    0.006707
   133  H    0.011065
   134  H    0.026243
   135  H    0.024519
   136  H    0.023879
   137  H    0.019465
   138  H    0.026088
   139  H    0.039033
   140  H    0.023294
 Sum of Mulliken charges =  -0.00000

 Dipole moment (field-independent basis, Debye):
    X=              4.0309    Y=              2.4959    Z=              0.2122  Tot=              4.7458
 Quadrupole moment (field-independent basis, Debye-Ang):
   XX=           -368.7448   YY=           -418.7920   ZZ=           -416.4169
   XY=            -13.4939   XZ=              9.1944   YZ=             -7.8841

 Normal termination of Gaussian 16 at Thu Apr 28 20:39:18 2022.
