 Gaussian 16, Revision A.03,
 Gaussian 16:  ES64L-G16RevA.03 25-Dec-2016

 --------------------
 #p ZINDO=(nstates=5)
 --------------------

 ------------------------------
 step_1701_chromophore_27 ZINDO
 ------------------------------
 Symbolic Z-matrix:
 Charge =  0 Multiplicity = 1

                         Standard orientation:
 ---------------------------------------------------------------------
 Center     Atomic      Atomic             Coordinates (Angstroms)
 Number     Number       Type             X           Y           Z
 ---------------------------------------------------------------------
      1         12           0       -4.468090    0.878696    0.475639
      2          6           0       -3.920600   -2.602872    0.377673
      3          6           0       -1.009934    1.495831    0.397894
      4          6           0       -5.249261    4.085839    0.182423
      5          6           0       -7.985440    0.077576    0.300524
      6          7           0       -2.764902   -0.412422    0.278225
      7          6           0       -2.711510   -1.819674    0.284071
      8          6           0       -1.245039   -2.312238    0.089935
      9          6           0       -0.382598   -0.958522    0.218690
     10          6           0       -1.452571    0.165066    0.303125
     11          6           0        0.620808   -1.090342    1.436568
     12          6           0       -1.048475   -3.010872   -1.343341
     13          6           0       -0.142724   -4.175485   -1.354390
     14          6           0        1.175864   -4.006189   -2.098342
     15          8           0        1.429691   -4.236408   -3.307259
     16          8           0        2.150868   -3.597680   -1.186590
     17          7           0       -3.336076    2.528090    0.438589
     18          6           0       -1.923139    2.637269    0.405426
     19          6           0       -1.527718    4.008411    0.353773
     20          6           0       -2.771060    4.761956    0.353468
     21          6           0       -3.889074    3.748883    0.370072
     22          6           0       -0.203145    4.548881    0.294650
     23          6           0       -2.984301    6.314788    0.268527
     24          8           0       -4.105002    6.783272    0.119139
     25          6           0       -1.867507    7.247648    0.313934
     26          7           0       -6.337271    1.924158    0.265847
     27          6           0       -6.322023    3.250569    0.166346
     28          6           0       -7.748686    3.828732   -0.113549
     29          6           0       -8.559223    2.461080   -0.353806
     30          6           0       -7.548073    1.366831   -0.002861
     31          6           0       -8.438408    4.611369    1.057955
     32          6           0       -9.081766    2.336583   -1.825055
     33          6           0      -10.553070    2.192770   -2.036594
     34          7           0       -5.805957   -0.878739    0.526177
     35          6           0       -7.141054   -1.038903    0.513903
     36          6           0       -7.532282   -2.434034    0.630316
     37          6           0       -6.287587   -3.122726    0.510009
     38          6           0       -5.246570   -2.098439    0.409526
     39          6           0       -8.932890   -2.850671    0.820870
     40          6           0       -5.645096   -4.392654    0.405721
     41          8           0       -6.097471   -5.509135    0.412407
     42          6           0       -4.094295   -4.160924    0.358099
     43          6           0       -3.331488   -4.832251    1.498474
     44          8           0       -3.189033   -4.495496    2.660970
     45          8           0       -2.752789   -5.910686    0.935886
     46          6           0       -1.845508   -6.599238    1.856990
     47          6           0        3.534844   -3.600321   -1.554462
     48          6           0        4.163048   -2.214042   -1.667034
     49          6           0        5.433402   -1.850388   -1.491250
     50          6           0        6.460735   -2.807755   -0.785555
     51          6           0        5.936935   -0.509548   -1.937067
     52          6           0        6.221886   -0.522159   -3.426175
     53          6           0        7.614936   -0.106707   -3.890424
     54          6           0        7.724500    1.358940   -4.282007
     55          6           0        7.896073    1.461540   -5.858648
     56          6           0        8.915349    2.051408   -3.538295
     57          6           0        8.755425    2.231835   -1.992913
     58          6           0       10.068026    1.953027   -1.179135
     59          6           0        9.756631    1.221097    0.227085
     60          6           0        9.845254   -0.301725    0.095437
     61          6           0       10.557727    1.702713    1.393206
     62          6           0        9.767531    1.820758    2.757488
     63          6           0        9.975412    0.566175    3.715169
     64          6           0       10.411614    0.927670    5.089514
     65          6           0       11.490221    0.024142    5.620002
     66          6           0        9.115757    1.053650    6.019104
     67          1           0        0.077693    1.580748    0.446776
     68          1           0       -5.531644    5.131842    0.043725
     69          1           0       -9.037107   -0.189280    0.170368
     70          1           0       -0.988205   -2.875909    0.986575
     71          1           0        0.211318   -0.896003   -0.692822
     72          1           0        1.565238   -1.533125    1.120160
     73          1           0        0.215866   -1.508672    2.357466
     74          1           0        0.841389   -0.078475    1.775038
     75          1           0       -0.858005   -2.277671   -2.127461
     76          1           0       -1.994686   -3.498982   -1.575811
     77          1           0       -0.574386   -5.078403   -1.787657
     78          1           0        0.153695   -4.579985   -0.386312
     79          1           0       -0.021316    5.176396   -0.577178
     80          1           0        0.440078    3.669168    0.331015
     81          1           0       -0.089490    5.203010    1.159237
     82          1           0       -1.301799    7.024008   -0.590773
     83          1           0       -1.386466    7.036036    1.269085
     84          1           0       -2.216973    8.274616    0.208863
     85          1           0       -7.715970    4.474804   -0.991190
     86          1           0       -9.439410    2.364270    0.282029
     87          1           0       -7.934031    5.572911    1.159931
     88          1           0       -8.309649    4.148128    2.036053
     89          1           0       -9.476865    4.664696    0.730510
     90          1           0       -8.682493    1.479187   -2.367708
     91          1           0       -8.835166    3.234995   -2.390480
     92          1           0      -11.020508    3.177763   -2.031508
     93          1           0      -11.038998    1.558544   -1.295735
     94          1           0      -10.695452    1.873159   -3.069336
     95          1           0       -9.255042   -3.377235   -0.077263
     96          1           0       -9.570772   -2.036554    1.163208
     97          1           0       -8.849544   -3.549864    1.652371
     98          1           0       -3.719612   -4.640138   -0.546343
     99          1           0       -2.166215   -6.990017    2.821846
    100          1           0       -1.121499   -5.813616    2.076303
    101          1           0       -1.257344   -7.344519    1.320766
    102          1           0        3.758638   -4.195182   -2.439578
    103          1           0        3.973893   -4.197977   -0.755620
    104          1           0        3.562567   -1.489704   -2.216512
    105          1           0        5.907580   -3.394609   -0.052844
    106          1           0        7.372752   -2.336140   -0.420479
    107          1           0        6.833477   -3.428949   -1.600450
    108          1           0        6.890909   -0.188692   -1.518524
    109          1           0        5.278281    0.339284   -1.755631
    110          1           0        5.544676    0.234538   -3.821731
    111          1           0        6.023229   -1.454514   -3.956390
    112          1           0        7.937545   -0.753836   -4.705100
    113          1           0        8.313616   -0.299882   -3.077141
    114          1           0        6.776643    1.890029   -4.202522
    115          1           0        8.680884    2.182258   -6.089655
    116          1           0        6.985985    1.667137   -6.421569
    117          1           0        8.230587    0.562541   -6.376293
    118          1           0        9.057863    3.011800   -4.033579
    119          1           0        9.860710    1.516437   -3.634977
    120          1           0        7.891108    1.828465   -1.466567
    121          1           0        8.539881    3.300600   -1.979084
    122          1           0       10.563941    2.909065   -1.012699
    123          1           0       10.729865    1.266204   -1.707958
    124          1           0        8.705544    1.360893    0.479703
    125          1           0        8.902693   -0.810910    0.296241
    126          1           0       10.622356   -0.669600    0.765627
    127          1           0       10.088810   -0.601849   -0.924722
    128          1           0       10.895981    2.716965    1.181970
    129          1           0       11.476780    1.117806    1.379127
    130          1           0        8.708997    1.840683    2.495390
    131          1           0        9.985362    2.789744    3.206115
    132          1           0       10.623295   -0.161447    3.224330
    133          1           0        9.055539   -0.009096    3.826760
    134          1           0       10.803409    1.944423    5.103252
    135          1           0       11.991713   -0.604930    4.884679
    136          1           0       11.148201   -0.562044    6.473181
    137          1           0       12.338626    0.589126    6.005394
    138          1           0        8.210153    0.668085    5.549355
    139          1           0        9.022421    2.113872    6.253924
    140          1           0        9.206102    0.424552    6.904483
 ---------------------------------------------------------------------

 SCF Done:  E(RZINDO/S) =  -474.132708430     A.U. after   19 cycles

 Excitation energies and oscillator strengths:

 Excited State   1:      Singlet-A      1.2561 eV  987.07 nm  f=0.6318  <S**2>=0.000
     175 ->178         0.17846
     176 ->177         0.66632
 This state for optimization and/or second-order correction.
 Total Energy, E(CIS/TDA) =  -474.086548387
 Copying the excited state density for this state as the 1-particle RhoCI density.

 Excited State   2:      Singlet-A      1.9246 eV  644.20 nm  f=0.0629  <S**2>=0.000
     175 ->177         0.55556
     176 ->178        -0.40148

 Excited State   3:      Singlet-A      2.9495 eV  420.36 nm  f=0.0362  <S**2>=0.000
     168 ->177         0.36883
     168 ->178        -0.16901
     168 ->179        -0.40017
     168 ->182        -0.14428
     168 ->186        -0.19532
     168 ->194         0.11563
     176 ->178         0.12480

 Excited State   4:      Singlet-A      2.9748 eV  416.78 nm  f=0.6100  <S**2>=0.000
     168 ->177        -0.11201
     168 ->179         0.11017
     171 ->177        -0.21269
     172 ->177        -0.10186
     175 ->177         0.29049
     176 ->178         0.48253
     176 ->179         0.23213

 Excited State   5:      Singlet-A      2.9902 eV  414.63 nm  f=0.0100  <S**2>=0.000
     170 ->177         0.27695
     170 ->179         0.22596
     170 ->181         0.31322
     170 ->182        -0.32311
     170 ->186         0.19824
     170 ->188         0.24251

 The electronic state is 1-A.
 Alpha  occ. eigenvalues --   -1.83333  -1.79868  -1.76799  -1.74326  -1.71739
 Alpha  occ. eigenvalues --   -1.67668  -1.65361  -1.61617  -1.60119  -1.59153
 Alpha  occ. eigenvalues --   -1.55112  -1.51390  -1.48611  -1.47950  -1.47278
 Alpha  occ. eigenvalues --   -1.44233  -1.43286  -1.41774  -1.38511  -1.38498
 Alpha  occ. eigenvalues --   -1.36248  -1.35344  -1.32607  -1.31353  -1.29411
 Alpha  occ. eigenvalues --   -1.26835  -1.25239  -1.22233  -1.19941  -1.18178
 Alpha  occ. eigenvalues --   -1.16910  -1.16721  -1.15568  -1.14174  -1.13734
 Alpha  occ. eigenvalues --   -1.12093  -1.10265  -1.09026  -1.05082  -1.03633
 Alpha  occ. eigenvalues --   -1.02692  -1.01384  -0.98439  -0.97833  -0.96945
 Alpha  occ. eigenvalues --   -0.95267  -0.94981  -0.93958  -0.93676  -0.92481
 Alpha  occ. eigenvalues --   -0.91693  -0.90347  -0.90079  -0.88386  -0.88332
 Alpha  occ. eigenvalues --   -0.85795  -0.84112  -0.83531  -0.81775  -0.80476
 Alpha  occ. eigenvalues --   -0.79739  -0.78624  -0.77158  -0.76633  -0.76454
 Alpha  occ. eigenvalues --   -0.75235  -0.75061  -0.74604  -0.73843  -0.73391
 Alpha  occ. eigenvalues --   -0.73249  -0.72235  -0.71872  -0.71498  -0.71256
 Alpha  occ. eigenvalues --   -0.70244  -0.69621  -0.68720  -0.68393  -0.68292
 Alpha  occ. eigenvalues --   -0.67879  -0.67747  -0.67111  -0.66925  -0.66461
 Alpha  occ. eigenvalues --   -0.65528  -0.65472  -0.65293  -0.64020  -0.63587
 Alpha  occ. eigenvalues --   -0.63361  -0.62960  -0.62551  -0.62218  -0.61976
 Alpha  occ. eigenvalues --   -0.61592  -0.61499  -0.60895  -0.60455  -0.60035
 Alpha  occ. eigenvalues --   -0.59320  -0.59235  -0.58894  -0.58485  -0.58196
 Alpha  occ. eigenvalues --   -0.58190  -0.57397  -0.57213  -0.56584  -0.56097
 Alpha  occ. eigenvalues --   -0.55848  -0.55533  -0.55251  -0.55012  -0.54854
 Alpha  occ. eigenvalues --   -0.54704  -0.54396  -0.53892  -0.53724  -0.53375
 Alpha  occ. eigenvalues --   -0.52997  -0.52595  -0.52249  -0.51987  -0.51630
 Alpha  occ. eigenvalues --   -0.51415  -0.51343  -0.51108  -0.50960  -0.50494
 Alpha  occ. eigenvalues --   -0.50475  -0.50050  -0.49723  -0.49485  -0.49245
 Alpha  occ. eigenvalues --   -0.48905  -0.48349  -0.47840  -0.47417  -0.47345
 Alpha  occ. eigenvalues --   -0.47087  -0.46977  -0.46744  -0.46356  -0.46313
 Alpha  occ. eigenvalues --   -0.45876  -0.45842  -0.45557  -0.45251  -0.45198
 Alpha  occ. eigenvalues --   -0.45013  -0.44816  -0.44167  -0.43904  -0.43818
 Alpha  occ. eigenvalues --   -0.43759  -0.43554  -0.42861  -0.42667  -0.42294
 Alpha  occ. eigenvalues --   -0.42122  -0.41984  -0.41415  -0.39452  -0.39276
 Alpha  occ. eigenvalues --   -0.38759  -0.37021  -0.35681  -0.34732  -0.33793
 Alpha  occ. eigenvalues --   -0.33357  -0.32734  -0.32448  -0.31648  -0.26876
 Alpha  occ. eigenvalues --   -0.21922
 Alpha virt. eigenvalues --   -0.08828  -0.02073  -0.00642   0.01125   0.01770
 Alpha virt. eigenvalues --    0.02131   0.02842   0.03304   0.04684   0.04709
 Alpha virt. eigenvalues --    0.05921   0.06530   0.07156   0.07331   0.08105

 Mulliken charges:
               1
     1  Mg   0.421532
     2  C   -0.066711
     3  C   -0.068970
     4  C   -0.050034
     5  C   -0.072649
     6  N   -0.295179
     7  C    0.149768
     8  C   -0.006560
     9  C   -0.009708
    10  C    0.090297
    11  C   -0.056834
    12  C   -0.006305
    13  C    0.018652
    14  C    0.463540
    15  O   -0.524478
    16  O   -0.278661
    17  N   -0.304246
    18  C    0.067185
    19  C    0.001490
    20  C   -0.096201
    21  C    0.132816
    22  C   -0.037480
    23  C    0.325399
    24  O   -0.542671
    25  C   -0.025128
    26  N   -0.256845
    27  C    0.119093
    28  C   -0.011365
    29  C   -0.005653
    30  C    0.146848
    31  C   -0.052167
    32  C   -0.030978
    33  C   -0.055184
    34  N   -0.324719
    35  C    0.123758
    36  C    0.063072
    37  C   -0.059753
    38  C    0.130819
    39  C   -0.032045
    40  C    0.342216
    41  O   -0.512800
    42  C    0.048103
    43  C    0.489646
    44  O   -0.516654
    45  O   -0.254177
    46  C    0.069878
    47  C    0.112177
    48  C   -0.094390
    49  C    0.008006
    50  C   -0.053471
    51  C   -0.013561
    52  C   -0.031810
    53  C   -0.030481
    54  C   -0.009984
    55  C   -0.071171
    56  C   -0.029962
    57  C   -0.048136
    58  C   -0.038696
    59  C   -0.015569
    60  C   -0.060354
    61  C   -0.031385
    62  C   -0.040162
    63  C   -0.028987
    64  C   -0.002786
    65  C   -0.054118
    66  C   -0.065126
    67  H    0.042982
    68  H    0.056025
    69  H    0.028463
    70  H    0.046966
    71  H    0.032154
    72  H    0.026360
    73  H    0.031119
    74  H    0.010168
    75  H    0.045489
    76  H    0.019224
    77  H    0.035837
    78  H    0.035003
    79  H    0.032855
    80  H    0.024311
    81  H    0.030204
    82  H    0.041609
    83  H    0.043463
    84  H    0.038040
    85  H    0.038910
    86  H    0.032272
    87  H    0.023815
    88  H    0.026047
    89  H    0.024582
    90  H    0.019290
    91  H    0.020425
    92  H    0.012217
    93  H    0.022708
    94  H    0.016426
    95  H    0.047188
    96  H    0.033286
    97  H    0.037256
    98  H    0.054629
    99  H    0.062094
   100  H    0.025851
   101  H    0.027400
   102  H    0.057039
   103  H    0.027363
   104  H    0.025649
   105  H    0.033419
   106  H    0.029049
   107  H    0.026521
   108  H    0.020034
   109  H    0.024758
   110  H    0.013439
   111  H    0.022361
   112  H    0.018925
   113  H    0.012622
   114  H    0.029538
   115  H    0.014545
   116  H    0.019223
   117  H    0.013362
   118  H    0.015652
   119  H    0.022157
   120  H    0.032269
   121  H    0.007445
   122  H    0.022725
   123  H    0.025613
   124  H    0.015569
   125  H    0.015666
   126  H    0.020049
   127  H    0.013866
   128  H    0.003394
   129  H    0.023684
   130  H    0.016534
   131  H    0.026488
   132  H    0.015650
   133  H    0.014927
   134  H    0.017372
   135  H    0.019413
   136  H    0.019191
   137  H    0.008537
   138  H    0.020519
   139  H    0.022015
   140  H    0.018762
 Sum of Mulliken charges =  -0.00000

 Dipole moment (field-independent basis, Debye):
    X=              3.6858    Y=              1.0292    Z=             -0.6193  Tot=              3.8766
 N-N= 4.396135367838D+03 E-N= 0.000000000000D+00  KE=-9.466132732388D+03
 Leave Link  601 at Thu Apr 28 20:52:31 2022, MaxMem=  6710886400 cpu:               2.2 elap:               0.1
 (Enter /sw/apps/gaussian-16.0/g16/l9999.exe)
 1\1\GINC-BP1-COMPUTE166\SP\RZINDO CIS\STO-3G\C55H74Mg1N4O6\OF15641\28-
 Apr-2022\0\\#p ZINDO=(nstates=5)\\step_1701_chromophore_27 ZINDO\\0,1\
 Mg,0,-5.314,24.975,26.525\C,0,-3.861,26.996,29.022\C,0,-6.529,22.736,2
 8.945\C,0,-6.907,23.467,24.041\C,0,-4.209,27.5,24.191\N,0,-5.281,24.99
 5,28.671\C,0,-4.614,25.879,29.541\C,0,-4.903,25.506,31.027\C,0,-5.657,
 24.088,30.91\C,0,-5.861,23.893,29.382\C,0,-4.816,22.983,31.671\C,0,-5.
 823,26.614,31.739\C,0,-5.497,26.886,33.152\C,0,-6.53,26.454,34.185\O,0

 Normal termination of Gaussian 16 at Thu Apr 28 20:52:31 2022.
