 Gaussian 16, Revision A.03,
 Gaussian 16:  ES64L-G16RevA.03 25-Dec-2016

 ------------------------------
 #p blyp/Def2SVP td=(nstates=5)
 ------------------------------

 -------------------------------------------------
 step_351_chromophore_3 TDDFT with blyp functional
 -------------------------------------------------
 Symbolic Z-matrix:
 Charge =  0 Multiplicity = 1

                         Standard orientation:
 ---------------------------------------------------------------------
 Center     Atomic      Atomic             Coordinates (Angstroms)
 Number     Number       Type             X           Y           Z
 ---------------------------------------------------------------------
      1         12           0       -5.576880    0.886024   -0.133278
      2          6           0       -4.379064   -2.372372    0.034787
      3          6           0       -2.141315    1.848457    0.619138
      4          6           0       -6.538632    4.050036    0.086250
      5          6           0       -8.755208   -0.230050   -0.111974
      6          7           0       -3.516569   -0.201291    0.093827
      7          6           0       -3.309542   -1.507063    0.045581
      8          6           0       -1.852261   -1.868702    0.035107
      9          6           0       -1.126061   -0.525413    0.443386
     10          6           0       -2.314735    0.454775    0.418741
     11          6           0       -0.366950   -0.506140    1.807120
     12          6           0       -1.423237   -2.449172   -1.351511
     13          6           0       -0.320440   -3.499366   -1.374016
     14          6           0        0.715085   -3.528609   -0.212428
     15          8           0        0.721375   -4.292635    0.720502
     16          8           0        1.667947   -2.571946   -0.345558
     17          7           0       -4.473297    2.702353    0.152276
     18          6           0       -3.096553    2.882010    0.486820
     19          6           0       -2.853899    4.337117    0.566991
     20          6           0       -4.075106    4.947366    0.420696
     21          6           0       -5.086794    3.911650    0.136712
     22          6           0       -1.445397    4.944474    0.745204
     23          6           0       -4.448459    6.421909    0.494444
     24          8           0       -5.497142    6.820243    0.021760
     25          6           0       -3.516731    7.539722    1.082632
     26          7           0       -7.401699    1.764703   -0.271460
     27          6           0       -7.550218    3.102268   -0.142054
     28          6           0       -9.104581    3.462407   -0.142880
     29          6           0       -9.723250    2.099409   -0.327083
     30          6           0       -8.632828    1.115433   -0.222423
     31          6           0       -9.704838    4.304066    1.075423
     32          6           0      -10.700100    2.097920   -1.547727
     33          6           0      -12.022515    1.298365   -1.332424
     34          7           0       -6.467928   -0.914823   -0.093059
     35          6           0       -7.789084   -1.265796   -0.164306
     36          6           0       -7.936581   -2.706586   -0.041257
     37          6           0       -6.618685   -3.167090   -0.008354
     38          6           0       -5.762555   -2.064260   -0.024423
     39          6           0       -9.088589   -3.638379   -0.199600
     40          6           0       -5.849258   -4.349960    0.011750
     41          8           0       -6.163087   -5.535964    0.061148
     42          6           0       -4.306400   -3.866888   -0.033246
     43          6           0       -3.428010   -4.546744    1.034807
     44          8           0       -3.264166   -4.256191    2.157234
     45          8           0       -2.681596   -5.500266    0.421223
     46          6           0       -1.750003   -6.275663    1.218854
     47          6           0        2.833520   -2.624433    0.451837
     48          6           0        3.951473   -2.171698   -0.445572
     49          6           0        5.053058   -2.873039   -0.948648
     50          6           0        5.362729   -4.272288   -0.406266
     51          6           0        6.013007   -2.242662   -1.963050
     52          6           0        7.508323   -2.189106   -1.522410
     53          6           0        7.916784   -0.876571   -0.880145
     54          6           0        8.671853    0.160745   -1.816054
     55          6           0        7.682286    1.251706   -2.378037
     56          6           0        9.894398    0.756838   -1.038738
     57          6           0       10.880624    1.640643   -2.015014
     58          6           0       12.344414    1.256901   -1.744229
     59          6           0       13.164264    2.464076   -1.155749
     60          6           0       13.531681    3.490191   -2.209608
     61          6           0       14.521645    1.952953   -0.532271
     62          6           0       14.522864    2.232297    1.050227
     63          6           0       14.419808    0.937463    1.915619
     64          6           0       13.203697    0.858300    2.859493
     65          6           0       13.501961    0.051109    4.197466
     66          6           0       12.078794    0.205999    2.159520
     67          1           0       -1.112583    2.191151    0.756731
     68          1           0       -6.954359    5.047751    0.239028
     69          1           0       -9.764396   -0.620063   -0.259252
     70          1           0       -1.591088   -2.633480    0.765683
     71          1           0       -0.339323   -0.282200   -0.270531
     72          1           0       -0.722786    0.300252    2.449493
     73          1           0        0.666157   -0.227928    1.601182
     74          1           0       -0.276301   -1.442426    2.357631
     75          1           0       -1.033390   -1.590277   -1.897669
     76          1           0       -2.310794   -2.754813   -1.904788
     77          1           0        0.331034   -3.393118   -2.240475
     78          1           0       -0.662595   -4.503299   -1.622932
     79          1           0       -1.352306    5.408642    1.726970
     80          1           0       -1.278616    5.619975   -0.094228
     81          1           0       -0.606861    4.248197    0.762725
     82          1           0       -2.856121    7.542911    0.215076
     83          1           0       -2.957901    7.232606    1.966414
     84          1           0       -3.939643    8.523735    1.285065
     85          1           0       -9.195936    4.118493   -1.008268
     86          1           0      -10.303567    1.854389    0.562031
     87          1           0      -10.691888    3.879952    1.259809
     88          1           0       -9.728390    5.350732    0.774061
     89          1           0       -9.010170    4.056245    1.878981
     90          1           0      -10.068999    1.808068   -2.387817
     91          1           0      -11.058016    3.084572   -1.845279
     92          1           0      -12.843468    1.764587   -1.876210
     93          1           0      -12.243213    1.299098   -0.264233
     94          1           0      -11.986760    0.270696   -1.695404
     95          1           0       -9.462922   -3.498931   -1.213372
     96          1           0       -9.752923   -3.350893    0.614204
     97          1           0       -8.818444   -4.674386    0.008235
     98          1           0       -3.947179   -4.228539   -0.996733
     99          1           0       -2.336613   -6.932531    1.862108
    100          1           0       -1.142106   -5.845206    2.014237
    101          1           0       -1.158962   -6.944152    0.593449
    102          1           0        3.038921   -3.623645    0.836067
    103          1           0        2.843287   -1.874808    1.242656
    104          1           0        3.719695   -1.169072   -0.805852
    105          1           0        5.881413   -4.004088    0.514195
    106          1           0        5.898557   -4.911339   -1.109535
    107          1           0        4.425929   -4.801090   -0.232620
    108          1           0        5.698641   -1.224694   -2.192633
    109          1           0        5.969013   -2.891401   -2.837800
    110          1           0        8.096888   -2.530783   -2.374779
    111          1           0        7.760319   -2.958589   -0.792628
    112          1           0        8.454894   -1.140949    0.030133
    113          1           0        6.992230   -0.430018   -0.514014
    114          1           0        9.044544   -0.278165   -2.741836
    115          1           0        7.627047    2.165917   -1.786149
    116          1           0        6.628096    0.979414   -2.434576
    117          1           0        8.049668    1.581209   -3.349487
    118          1           0       10.469589   -0.077025   -0.636653
    119          1           0        9.626565    1.437302   -0.230142
    120          1           0       10.806337    2.695915   -1.753144
    121          1           0       10.588101    1.472824   -3.051305
    122          1           0       12.740567    0.872476   -2.683503
    123          1           0       12.453893    0.386468   -1.097605
    124          1           0       12.509081    2.990411   -0.461562
    125          1           0       14.328952    3.165296   -2.878521
    126          1           0       13.761873    4.437772   -1.722984
    127          1           0       12.667082    3.658908   -2.850965
    128          1           0       15.406089    2.397514   -0.988192
    129          1           0       14.550446    0.876543   -0.698510
    130          1           0       13.568013    2.707109    1.276625
    131          1           0       15.394595    2.836473    1.302946
    132          1           0       15.351940    0.881515    2.475782
    133          1           0       14.423008    0.086941    1.234128
    134          1           0       12.856179    1.853668    3.134533
    135          1           0       13.305755    0.556323    5.142532
    136          1           0       14.543363   -0.266216    4.148163
    137          1           0       13.064867   -0.947363    4.223921
    138          1           0       11.517593    0.981845    1.639815
    139          1           0       11.336029   -0.078092    2.905938
    140          1           0       12.258414   -0.640473    1.496760
 ---------------------------------------------------------------------

 SCF Done:  E(RB-LYP) =  -3007.38782750     A.U. after   20 cycles

 Excitation energies and oscillator strengths:

 Excited State   1:      Singlet-A      1.7887 eV  693.13 nm  f=0.1900  <S**2>=0.000
     244 -> 247       -0.33105
     245 -> 247        0.20289
     245 -> 248        0.15013
     246 -> 247        0.57317
     246 <- 247       -0.12139
 This state for optimization and/or second-order correction.
 Total Energy, E(TD-HF/TD-DFT) =  -3007.32209216
 Copying the excited state density for this state as the 1-particle RhoCI density.

 Excited State   2:      Singlet-A      1.8693 eV  663.28 nm  f=0.1145  <S**2>=0.000
     243 -> 247        0.41941
     244 -> 247       -0.31678
     245 -> 247        0.30437
     245 -> 248       -0.10789
     246 -> 247       -0.34661

 Excited State   3:      Singlet-A      1.9004 eV  652.39 nm  f=0.0286  <S**2>=0.000
     243 -> 247        0.50428
     244 -> 247        0.45944
     246 -> 247        0.17817

 Excited State   4:      Singlet-A      2.0553 eV  603.24 nm  f=0.0791  <S**2>=0.000
     243 -> 247       -0.24307
     244 -> 247        0.27277
     245 -> 247        0.55103
     246 -> 248       -0.23194

 Excited State   5:      Singlet-A      2.3649 eV  524.27 nm  f=0.0001  <S**2>=0.000
     242 -> 247        0.70655

 The electronic state is 1-A.
 Alpha  occ. eigenvalues --  -46.26572 -18.82633 -18.80768 -18.77319 -18.75813
 Alpha  occ. eigenvalues --  -18.75359 -18.75332 -14.03126 -14.02572 -14.01347
 Alpha  occ. eigenvalues --  -14.00641 -10.04799 -10.02671 -10.00160  -9.98967
 Alpha  occ. eigenvalues --   -9.98003  -9.96698  -9.96349  -9.96317  -9.95992
 Alpha  occ. eigenvalues --   -9.95824  -9.95817  -9.95698  -9.95424  -9.94196
 Alpha  occ. eigenvalues --   -9.94171  -9.94129  -9.94029  -9.93815  -9.93747
 Alpha  occ. eigenvalues --   -9.93669  -9.93586  -9.93413  -9.93397  -9.93141
 Alpha  occ. eigenvalues --   -9.92985  -9.92973  -9.92961  -9.92939  -9.92851
 Alpha  occ. eigenvalues --   -9.92833  -9.92760  -9.92731  -9.92514  -9.92282
 Alpha  occ. eigenvalues --   -9.92249  -9.92131  -9.92096  -9.92007  -9.91942
 Alpha  occ. eigenvalues --   -9.91940  -9.91928  -9.91913  -9.91873  -9.91812
 Alpha  occ. eigenvalues --   -9.91561  -9.91531  -9.91300  -9.91259  -9.91163
 Alpha  occ. eigenvalues --   -9.90960  -9.90815  -9.90731  -9.90550  -9.90442
 Alpha  occ. eigenvalues --   -9.90121  -2.91301  -1.71733  -1.71178  -1.71015
 Alpha  occ. eigenvalues --   -0.99839  -0.98273  -0.91809  -0.91286  -0.90541
 Alpha  occ. eigenvalues --   -0.90149  -0.86662  -0.85751  -0.85358  -0.84192
 Alpha  occ. eigenvalues --   -0.75193  -0.73465  -0.72825  -0.72659  -0.72488
 Alpha  occ. eigenvalues --   -0.71709  -0.71279  -0.70895  -0.70818  -0.70248
 Alpha  occ. eigenvalues --   -0.69795  -0.69144  -0.67942  -0.66888  -0.66753
 Alpha  occ. eigenvalues --   -0.66024  -0.65681  -0.65164  -0.64567  -0.64095
 Alpha  occ. eigenvalues --   -0.63961  -0.62686  -0.62498  -0.61851  -0.60933
 Alpha  occ. eigenvalues --   -0.60213  -0.60111  -0.59728  -0.59270  -0.58847
 Alpha  occ. eigenvalues --   -0.58185  -0.57672  -0.56371  -0.55777  -0.54896
 Alpha  occ. eigenvalues --   -0.54068  -0.53893  -0.52395  -0.52117  -0.51510
 Alpha  occ. eigenvalues --   -0.51069  -0.50855  -0.50705  -0.50314  -0.50228
 Alpha  occ. eigenvalues --   -0.50037  -0.49745  -0.48991  -0.48186  -0.47113
 Alpha  occ. eigenvalues --   -0.46296  -0.46158  -0.45694  -0.44820  -0.44215
 Alpha  occ. eigenvalues --   -0.43918  -0.43610  -0.42889  -0.42557  -0.42020
 Alpha  occ. eigenvalues --   -0.41763  -0.41282  -0.41210  -0.40997  -0.40943
 Alpha  occ. eigenvalues --   -0.40862  -0.40555  -0.40201  -0.40116  -0.39817
 Alpha  occ. eigenvalues --   -0.39725  -0.39398  -0.39275  -0.39212  -0.39102
 Alpha  occ. eigenvalues --   -0.39011  -0.38862  -0.38416  -0.38249  -0.38182
 Alpha  occ. eigenvalues --   -0.38113  -0.37781  -0.37739  -0.37352  -0.37158
 Alpha  occ. eigenvalues --   -0.37023  -0.36909  -0.36669  -0.36495  -0.36372
 Alpha  occ. eigenvalues --   -0.36349  -0.36003  -0.35914  -0.35732  -0.35396
 Alpha  occ. eigenvalues --   -0.35317  -0.35093  -0.34865  -0.34762  -0.34705
 Alpha  occ. eigenvalues --   -0.34622  -0.34481  -0.34241  -0.33956  -0.33921
 Alpha  occ. eigenvalues --   -0.33771  -0.33596  -0.33372  -0.33332  -0.33190
 Alpha  occ. eigenvalues --   -0.33108  -0.32850  -0.32339  -0.32294  -0.32080
 Alpha  occ. eigenvalues --   -0.32007  -0.31954  -0.31764  -0.31415  -0.31228
 Alpha  occ. eigenvalues --   -0.30945  -0.30853  -0.30807  -0.30501  -0.30409
 Alpha  occ. eigenvalues --   -0.30282  -0.30199  -0.29914  -0.29752  -0.29627
 Alpha  occ. eigenvalues --   -0.29448  -0.29390  -0.29211  -0.29185  -0.28916
 Alpha  occ. eigenvalues --   -0.28808  -0.28739  -0.28361  -0.28128  -0.27958
 Alpha  occ. eigenvalues --   -0.27776  -0.27602  -0.27538  -0.27171  -0.26482
 Alpha  occ. eigenvalues --   -0.26343  -0.26303  -0.26147  -0.26112  -0.25332
 Alpha  occ. eigenvalues --   -0.25244  -0.24048  -0.23758  -0.23683  -0.23632
 Alpha  occ. eigenvalues --   -0.23472  -0.22305  -0.22129  -0.21362  -0.20875
 Alpha  occ. eigenvalues --   -0.20550  -0.20142  -0.18339  -0.18275  -0.17010
 Alpha  occ. eigenvalues --   -0.15729
 Alpha virt. eigenvalues --   -0.11453  -0.06295  -0.05677  -0.04485  -0.03520
 Alpha virt. eigenvalues --   -0.02403  -0.01833  -0.00854  -0.00783   0.00234
 Alpha virt. eigenvalues --    0.01186   0.01754   0.02262   0.02568   0.02801

 Mulliken charges:
               1
     1  Mg   0.707097
     2  C    0.074171
     3  C   -0.049928
     4  C   -0.016608
     5  C   -0.073721
     6  N   -0.175185
     7  C   -0.104093
     8  C   -0.019930
     9  C   -0.002070
    10  C    0.033876
    11  C    0.109103
    12  C    0.147982
    13  C    0.153453
    14  C    0.051731
    15  O   -0.173914
    16  O   -0.250980
    17  N   -0.291533
    18  C    0.109450
    19  C   -0.122473
    20  C    0.040477
    21  C    0.107056
    22  C    0.152947
    23  C   -0.075853
    24  O   -0.168906
    25  C    0.118136
    26  N   -0.283618
    27  C    0.019050
    28  C   -0.044472
    29  C    0.094056
    30  C    0.047721
    31  C    0.128543
    32  C    0.095500
    33  C    0.063766
    34  N   -0.282885
    35  C    0.070049
    36  C   -0.192041
    37  C    0.140858
    38  C    0.066779
    39  C    0.177311
    40  C   -0.074217
    41  O   -0.135528
    42  C   -0.005601
    43  C    0.086565
    44  O   -0.128413
    45  O   -0.266626
    46  C    0.240149
    47  C    0.335197
    48  C   -0.141978
    49  C   -0.166437
    50  C    0.126088
    51  C    0.170834
    52  C    0.049052
    53  C    0.119055
    54  C   -0.031270
    55  C    0.078538
    56  C    0.054942
    57  C    0.062546
    58  C    0.086221
    59  C   -0.090007
    60  C    0.112759
    61  C    0.109975
    62  C    0.060627
    63  C    0.111573
    64  C   -0.086568
    65  C    0.103696
    66  C    0.108447
    67  H   -0.064322
    68  H   -0.046437
    69  H   -0.064394
    70  H    0.018586
    71  H   -0.017664
    72  H   -0.009896
    73  H   -0.027567
    74  H    0.015066
    75  H   -0.030050
    76  H   -0.014405
    77  H   -0.021975
    78  H   -0.006706
    79  H    0.008716
    80  H    0.013947
    81  H   -0.019887
    82  H    0.005379
    83  H   -0.002422
    84  H    0.004121
    85  H   -0.015963
    86  H   -0.034239
    87  H   -0.003106
    88  H    0.011913
    89  H    0.003585
    90  H   -0.023451
    91  H   -0.019723
    92  H   -0.012914
    93  H   -0.008012
    94  H    0.001510
    95  H    0.016742
    96  H   -0.006256
    97  H    0.006601
    98  H    0.004372
    99  H   -0.020915
   100  H    0.016801
   101  H    0.005400
   102  H   -0.012571
   103  H   -0.005529
   104  H   -0.042207
   105  H    0.026561
   106  H   -0.008005
   107  H    0.007779
   108  H   -0.027809
   109  H   -0.026126
   110  H   -0.037838
   111  H   -0.039286
   112  H   -0.039276
   113  H   -0.037130
   114  H   -0.030648
   115  H   -0.027272
   116  H   -0.014413
   117  H   -0.013829
   118  H   -0.011414
   119  H   -0.012297
   120  H   -0.021230
   121  H   -0.027324
   122  H   -0.044322
   123  H   -0.033683
   124  H   -0.027678
   125  H   -0.015864
   126  H   -0.015846
   127  H   -0.034707
   128  H   -0.030310
   129  H   -0.034715
   130  H   -0.028499
   131  H   -0.021891
   132  H   -0.037910
   133  H   -0.040919
   134  H   -0.034256
   135  H   -0.003405
   136  H   -0.037511
   137  H   -0.028690
   138  H   -0.030042
   139  H   -0.034031
   140  H    0.001183
 Sum of Mulliken charges =  -0.00000

 Dipole moment (field-independent basis, Debye):
    X=              4.1647    Y=              3.0234    Z=             -2.2918  Tot=              5.6336
 Quadrupole moment (field-independent basis, Debye-Ang):
   XX=           -374.1080   YY=           -435.1050   ZZ=           -406.5287
   XY=            -23.4822   XZ=              7.5189   YZ=             16.4587

 Normal termination of Gaussian 16 at Wed May  4 20:15:11 2022.
