 Gaussian 16, Revision A.03,
 Gaussian 16:  ES64L-G16RevA.03 25-Dec-2016

 -----------------------------------
 #p cam-b3lyp/Def2SVP td=(nstates=5)
 -----------------------------------

 ------------------------------------------------------
 step_351_chromophore_3 TDDFT with cam-b3lyp functional
 ------------------------------------------------------
 Symbolic Z-matrix:
 Charge =  0 Multiplicity = 1

                         Standard orientation:
 ---------------------------------------------------------------------
 Center     Atomic      Atomic             Coordinates (Angstroms)
 Number     Number       Type             X           Y           Z
 ---------------------------------------------------------------------
      1         12           0       -5.576880    0.886024   -0.133278
      2          6           0       -4.379064   -2.372372    0.034787
      3          6           0       -2.141315    1.848457    0.619138
      4          6           0       -6.538632    4.050036    0.086250
      5          6           0       -8.755208   -0.230050   -0.111974
      6          7           0       -3.516569   -0.201291    0.093827
      7          6           0       -3.309542   -1.507063    0.045581
      8          6           0       -1.852261   -1.868702    0.035107
      9          6           0       -1.126061   -0.525413    0.443386
     10          6           0       -2.314735    0.454775    0.418741
     11          6           0       -0.366950   -0.506140    1.807120
     12          6           0       -1.423237   -2.449172   -1.351511
     13          6           0       -0.320440   -3.499366   -1.374016
     14          6           0        0.715085   -3.528609   -0.212428
     15          8           0        0.721375   -4.292635    0.720502
     16          8           0        1.667947   -2.571946   -0.345558
     17          7           0       -4.473297    2.702353    0.152276
     18          6           0       -3.096553    2.882010    0.486820
     19          6           0       -2.853899    4.337117    0.566991
     20          6           0       -4.075106    4.947366    0.420696
     21          6           0       -5.086794    3.911650    0.136712
     22          6           0       -1.445397    4.944474    0.745204
     23          6           0       -4.448459    6.421909    0.494444
     24          8           0       -5.497142    6.820243    0.021760
     25          6           0       -3.516731    7.539722    1.082632
     26          7           0       -7.401699    1.764703   -0.271460
     27          6           0       -7.550218    3.102268   -0.142054
     28          6           0       -9.104581    3.462407   -0.142880
     29          6           0       -9.723250    2.099409   -0.327083
     30          6           0       -8.632828    1.115433   -0.222423
     31          6           0       -9.704838    4.304066    1.075423
     32          6           0      -10.700100    2.097920   -1.547727
     33          6           0      -12.022515    1.298365   -1.332424
     34          7           0       -6.467928   -0.914823   -0.093059
     35          6           0       -7.789084   -1.265796   -0.164306
     36          6           0       -7.936581   -2.706586   -0.041257
     37          6           0       -6.618685   -3.167090   -0.008354
     38          6           0       -5.762555   -2.064260   -0.024423
     39          6           0       -9.088589   -3.638379   -0.199600
     40          6           0       -5.849258   -4.349960    0.011750
     41          8           0       -6.163087   -5.535964    0.061148
     42          6           0       -4.306400   -3.866888   -0.033246
     43          6           0       -3.428010   -4.546744    1.034807
     44          8           0       -3.264166   -4.256191    2.157234
     45          8           0       -2.681596   -5.500266    0.421223
     46          6           0       -1.750003   -6.275663    1.218854
     47          6           0        2.833520   -2.624433    0.451837
     48          6           0        3.951473   -2.171698   -0.445572
     49          6           0        5.053058   -2.873039   -0.948648
     50          6           0        5.362729   -4.272288   -0.406266
     51          6           0        6.013007   -2.242662   -1.963050
     52          6           0        7.508323   -2.189106   -1.522410
     53          6           0        7.916784   -0.876571   -0.880145
     54          6           0        8.671853    0.160745   -1.816054
     55          6           0        7.682286    1.251706   -2.378037
     56          6           0        9.894398    0.756838   -1.038738
     57          6           0       10.880624    1.640643   -2.015014
     58          6           0       12.344414    1.256901   -1.744229
     59          6           0       13.164264    2.464076   -1.155749
     60          6           0       13.531681    3.490191   -2.209608
     61          6           0       14.521645    1.952953   -0.532271
     62          6           0       14.522864    2.232297    1.050227
     63          6           0       14.419808    0.937463    1.915619
     64          6           0       13.203697    0.858300    2.859493
     65          6           0       13.501961    0.051109    4.197466
     66          6           0       12.078794    0.205999    2.159520
     67          1           0       -1.112583    2.191151    0.756731
     68          1           0       -6.954359    5.047751    0.239028
     69          1           0       -9.764396   -0.620063   -0.259252
     70          1           0       -1.591088   -2.633480    0.765683
     71          1           0       -0.339323   -0.282200   -0.270531
     72          1           0       -0.722786    0.300252    2.449493
     73          1           0        0.666157   -0.227928    1.601182
     74          1           0       -0.276301   -1.442426    2.357631
     75          1           0       -1.033390   -1.590277   -1.897669
     76          1           0       -2.310794   -2.754813   -1.904788
     77          1           0        0.331034   -3.393118   -2.240475
     78          1           0       -0.662595   -4.503299   -1.622932
     79          1           0       -1.352306    5.408642    1.726970
     80          1           0       -1.278616    5.619975   -0.094228
     81          1           0       -0.606861    4.248197    0.762725
     82          1           0       -2.856121    7.542911    0.215076
     83          1           0       -2.957901    7.232606    1.966414
     84          1           0       -3.939643    8.523735    1.285065
     85          1           0       -9.195936    4.118493   -1.008268
     86          1           0      -10.303567    1.854389    0.562031
     87          1           0      -10.691888    3.879952    1.259809
     88          1           0       -9.728390    5.350732    0.774061
     89          1           0       -9.010170    4.056245    1.878981
     90          1           0      -10.068999    1.808068   -2.387817
     91          1           0      -11.058016    3.084572   -1.845279
     92          1           0      -12.843468    1.764587   -1.876210
     93          1           0      -12.243213    1.299098   -0.264233
     94          1           0      -11.986760    0.270696   -1.695404
     95          1           0       -9.462922   -3.498931   -1.213372
     96          1           0       -9.752923   -3.350893    0.614204
     97          1           0       -8.818444   -4.674386    0.008235
     98          1           0       -3.947179   -4.228539   -0.996733
     99          1           0       -2.336613   -6.932531    1.862108
    100          1           0       -1.142106   -5.845206    2.014237
    101          1           0       -1.158962   -6.944152    0.593449
    102          1           0        3.038921   -3.623645    0.836067
    103          1           0        2.843287   -1.874808    1.242656
    104          1           0        3.719695   -1.169072   -0.805852
    105          1           0        5.881413   -4.004088    0.514195
    106          1           0        5.898557   -4.911339   -1.109535
    107          1           0        4.425929   -4.801090   -0.232620
    108          1           0        5.698641   -1.224694   -2.192633
    109          1           0        5.969013   -2.891401   -2.837800
    110          1           0        8.096888   -2.530783   -2.374779
    111          1           0        7.760319   -2.958589   -0.792628
    112          1           0        8.454894   -1.140949    0.030133
    113          1           0        6.992230   -0.430018   -0.514014
    114          1           0        9.044544   -0.278165   -2.741836
    115          1           0        7.627047    2.165917   -1.786149
    116          1           0        6.628096    0.979414   -2.434576
    117          1           0        8.049668    1.581209   -3.349487
    118          1           0       10.469589   -0.077025   -0.636653
    119          1           0        9.626565    1.437302   -0.230142
    120          1           0       10.806337    2.695915   -1.753144
    121          1           0       10.588101    1.472824   -3.051305
    122          1           0       12.740567    0.872476   -2.683503
    123          1           0       12.453893    0.386468   -1.097605
    124          1           0       12.509081    2.990411   -0.461562
    125          1           0       14.328952    3.165296   -2.878521
    126          1           0       13.761873    4.437772   -1.722984
    127          1           0       12.667082    3.658908   -2.850965
    128          1           0       15.406089    2.397514   -0.988192
    129          1           0       14.550446    0.876543   -0.698510
    130          1           0       13.568013    2.707109    1.276625
    131          1           0       15.394595    2.836473    1.302946
    132          1           0       15.351940    0.881515    2.475782
    133          1           0       14.423008    0.086941    1.234128
    134          1           0       12.856179    1.853668    3.134533
    135          1           0       13.305755    0.556323    5.142532
    136          1           0       14.543363   -0.266216    4.148163
    137          1           0       13.064867   -0.947363    4.223921
    138          1           0       11.517593    0.981845    1.639815
    139          1           0       11.336029   -0.078092    2.905938
    140          1           0       12.258414   -0.640473    1.496760
 ---------------------------------------------------------------------

 SCF Done:  E(RCAM-B3LYP) =  -3007.18470120     A.U. after   17 cycles

 Excitation energies and oscillator strengths:

 Excited State   1:      Singlet-A      1.7153 eV  722.80 nm  f=0.3827  <S**2>=0.000
     245 -> 248       -0.17893
     246 -> 247        0.68702
     245 <- 248       -0.10869
 This state for optimization and/or second-order correction.
 Total Energy, E(TD-HF/TD-DFT) =  -3007.12166435
 Copying the excited state density for this state as the 1-particle RhoCI density.

 Excited State   2:      Singlet-A      2.2246 eV  557.34 nm  f=0.1410  <S**2>=0.000
     245 -> 247        0.65193
     246 -> 248        0.26508

 Excited State   3:      Singlet-A      3.4382 eV  360.60 nm  f=0.0020  <S**2>=0.000
     239 -> 247       -0.11873
     241 -> 247        0.17772
     241 -> 249       -0.19718
     241 -> 250       -0.11780
     242 -> 247       -0.18816
     243 -> 247        0.50515
     244 -> 247       -0.28591

 Excited State   4:      Singlet-A      3.4953 eV  354.71 nm  f=0.0153  <S**2>=0.000
     239 -> 247        0.11723
     241 -> 247        0.55601
     241 -> 249       -0.15881
     241 -> 250       -0.15010
     242 -> 249        0.11125
     243 -> 247       -0.20741
     244 -> 247        0.12148
     246 -> 248       -0.13706

 Excited State   5:      Singlet-A      3.5860 eV  345.75 nm  f=0.0945  <S**2>=0.000
     240 -> 247       -0.29023
     240 -> 249       -0.15727
     240 -> 250        0.12558
     242 -> 247        0.42235
     243 -> 247        0.20730
     244 -> 247       -0.10020
     246 -> 248       -0.31389

 The electronic state is 1-A.
 Alpha  occ. eigenvalues --  -46.88065 -19.25471 -19.23571 -19.20309 -19.18872
 Alpha  occ. eigenvalues --  -19.18790 -19.18313 -14.42255 -14.41184 -14.40006
 Alpha  occ. eigenvalues --  -14.38955 -10.40052 -10.37971 -10.35591 -10.34187
 Alpha  occ. eigenvalues --  -10.32012 -10.31458 -10.31134 -10.30992 -10.30720
 Alpha  occ. eigenvalues --  -10.29951 -10.29940 -10.29685 -10.29357 -10.29219
 Alpha  occ. eigenvalues --  -10.28433 -10.28166 -10.28134 -10.27981 -10.27882
 Alpha  occ. eigenvalues --  -10.27801 -10.27636 -10.27546 -10.27450 -10.27374
 Alpha  occ. eigenvalues --  -10.27343 -10.27201 -10.27170 -10.26758 -10.26649
 Alpha  occ. eigenvalues --  -10.26610 -10.26575 -10.26505 -10.26476 -10.26184
 Alpha  occ. eigenvalues --  -10.26182 -10.25926 -10.25826 -10.25751 -10.25714
 Alpha  occ. eigenvalues --  -10.25695 -10.25637 -10.25610 -10.25555 -10.25409
 Alpha  occ. eigenvalues --  -10.25300 -10.25254 -10.25012 -10.24930 -10.24914
 Alpha  occ. eigenvalues --  -10.24669 -10.24495 -10.24364 -10.24156 -10.24032
 Alpha  occ. eigenvalues --  -10.23909  -3.16706  -1.91612  -1.91160  -1.91014
 Alpha  occ. eigenvalues --   -1.18327  -1.16858  -1.10453  -1.09193  -1.08757
 Alpha  occ. eigenvalues --   -1.08030  -1.04303  -1.03407  -1.02888  -1.01916
 Alpha  occ. eigenvalues --   -0.92258  -0.90304  -0.89624  -0.89437  -0.89084
 Alpha  occ. eigenvalues --   -0.88392  -0.88051  -0.87529  -0.87439  -0.86829
 Alpha  occ. eigenvalues --   -0.86289  -0.85499  -0.84242  -0.82923  -0.82833
 Alpha  occ. eigenvalues --   -0.82076  -0.81665  -0.81101  -0.80617  -0.79960
 Alpha  occ. eigenvalues --   -0.79762  -0.78608  -0.78176  -0.77273  -0.76335
 Alpha  occ. eigenvalues --   -0.75582  -0.75485  -0.74950  -0.74548  -0.74103
 Alpha  occ. eigenvalues --   -0.73229  -0.72686  -0.71271  -0.70583  -0.69423
 Alpha  occ. eigenvalues --   -0.68709  -0.68497  -0.66874  -0.66472  -0.65516
 Alpha  occ. eigenvalues --   -0.65278  -0.65065  -0.64895  -0.64219  -0.64122
 Alpha  occ. eigenvalues --   -0.64083  -0.63743  -0.62912  -0.61818  -0.60782
 Alpha  occ. eigenvalues --   -0.60016  -0.59721  -0.59174  -0.58121  -0.57564
 Alpha  occ. eigenvalues --   -0.57265  -0.57097  -0.56082  -0.55867  -0.55297
 Alpha  occ. eigenvalues --   -0.54888  -0.54630  -0.54152  -0.53930  -0.53798
 Alpha  occ. eigenvalues --   -0.53564  -0.53297  -0.53205  -0.52879  -0.52681
 Alpha  occ. eigenvalues --   -0.52396  -0.52288  -0.52065  -0.51849  -0.51655
 Alpha  occ. eigenvalues --   -0.51467  -0.51409  -0.51020  -0.50707  -0.50500
 Alpha  occ. eigenvalues --   -0.50432  -0.50236  -0.50090  -0.49998  -0.49487
 Alpha  occ. eigenvalues --   -0.49349  -0.49259  -0.49205  -0.48824  -0.48604
 Alpha  occ. eigenvalues --   -0.48405  -0.48376  -0.48153  -0.47781  -0.47686
 Alpha  occ. eigenvalues --   -0.47345  -0.47173  -0.46993  -0.46909  -0.46758
 Alpha  occ. eigenvalues --   -0.46656  -0.46296  -0.46206  -0.46088  -0.45742
 Alpha  occ. eigenvalues --   -0.45601  -0.45409  -0.45183  -0.44980  -0.44853
 Alpha  occ. eigenvalues --   -0.44704  -0.44517  -0.44165  -0.43958  -0.43770
 Alpha  occ. eigenvalues --   -0.43742  -0.43646  -0.43408  -0.42898  -0.42724
 Alpha  occ. eigenvalues --   -0.42649  -0.42400  -0.42200  -0.41905  -0.41801
 Alpha  occ. eigenvalues --   -0.41653  -0.41556  -0.41142  -0.41007  -0.40886
 Alpha  occ. eigenvalues --   -0.40794  -0.40651  -0.40539  -0.40338  -0.40285
 Alpha  occ. eigenvalues --   -0.39925  -0.39795  -0.39315  -0.39230  -0.39028
 Alpha  occ. eigenvalues --   -0.38631  -0.38608  -0.38427  -0.37980  -0.37615
 Alpha  occ. eigenvalues --   -0.37290  -0.37047  -0.37020  -0.36881  -0.36394
 Alpha  occ. eigenvalues --   -0.36124  -0.35171  -0.34468  -0.34354  -0.34217
 Alpha  occ. eigenvalues --   -0.33989  -0.33824  -0.32929  -0.31581  -0.30803
 Alpha  occ. eigenvalues --   -0.30180  -0.29955  -0.29733  -0.29696  -0.23816
 Alpha  occ. eigenvalues --   -0.21114
 Alpha virt. eigenvalues --   -0.08618  -0.01140   0.00941   0.02550   0.03578
 Alpha virt. eigenvalues --    0.04151   0.05186   0.05794   0.06176   0.06987
 Alpha virt. eigenvalues --    0.07996   0.08589   0.08810   0.08900   0.09178

 Mulliken charges:
               1
     1  Mg   0.840767
     2  C    0.048149
     3  C   -0.060964
     4  C   -0.047180
     5  C   -0.079479
     6  N   -0.238860
     7  C   -0.062989
     8  C   -0.070229
     9  C   -0.048752
    10  C    0.046790
    11  C    0.051456
    12  C    0.097884
    13  C    0.088395
    14  C    0.123942
    15  O   -0.213866
    16  O   -0.313470
    17  N   -0.376390
    18  C    0.120852
    19  C   -0.129686
    20  C   -0.028342
    21  C    0.139640
    22  C    0.100863
    23  C   -0.004528
    24  O   -0.206786
    25  C    0.049183
    26  N   -0.365077
    27  C    0.048981
    28  C   -0.093451
    29  C    0.026243
    30  C    0.071312
    31  C    0.072823
    32  C    0.040846
    33  C    0.002463
    34  N   -0.372406
    35  C    0.077016
    36  C   -0.182042
    37  C    0.052006
    38  C    0.100456
    39  C    0.119813
    40  C    0.026286
    41  O   -0.176873
    42  C   -0.076197
    43  C    0.172916
    44  O   -0.164491
    45  O   -0.329816
    46  C    0.195772
    47  C    0.299467
    48  C   -0.159827
    49  C   -0.183569
    50  C    0.060997
    51  C    0.113393
    52  C   -0.009176
    53  C    0.062930
    54  C   -0.086149
    55  C    0.023755
    56  C    0.011648
    57  C    0.008481
    58  C    0.037966
    59  C   -0.145625
    60  C    0.056073
    61  C    0.054782
    62  C    0.008425
    63  C    0.056433
    64  C   -0.148571
    65  C    0.041832
    66  C    0.049704
    67  H   -0.028434
    68  H   -0.008220
    69  H   -0.032888
    70  H    0.047889
    71  H    0.017702
    72  H    0.016659
    73  H   -0.004707
    74  H    0.040386
    75  H    0.001204
    76  H    0.017250
    77  H    0.013374
    78  H    0.026139
    79  H    0.035054
    80  H    0.039882
    81  H    0.009649
    82  H    0.028715
    83  H    0.024481
    84  H    0.038332
    85  H    0.018579
    86  H    0.001449
    87  H    0.019999
    88  H    0.034267
    89  H    0.027827
    90  H    0.005643
    91  H    0.008744
    92  H    0.011842
    93  H    0.013783
    94  H    0.023322
    95  H    0.039966
    96  H    0.017710
    97  H    0.035968
    98  H    0.045448
    99  H    0.003786
   100  H    0.041828
   101  H    0.028893
   102  H    0.019222
   103  H    0.018973
   104  H   -0.009975
   105  H    0.049315
   106  H    0.018077
   107  H    0.031254
   108  H   -0.001376
   109  H    0.004551
   110  H   -0.007102
   111  H   -0.009317
   112  H   -0.008699
   113  H   -0.008645
   114  H   -0.000224
   115  H   -0.002970
   116  H    0.007491
   117  H    0.008977
   118  H    0.012398
   119  H    0.012065
   120  H    0.004583
   121  H    0.000261
   122  H   -0.014065
   123  H   -0.008698
   124  H    0.000732
   125  H    0.007795
   126  H    0.009172
   127  H   -0.010094
   128  H    0.000028
   129  H   -0.006214
   130  H   -0.002878
   131  H    0.006995
   132  H   -0.007283
   133  H   -0.013582
   134  H   -0.000985
   135  H    0.020806
   136  H   -0.011949
   137  H   -0.002923
   138  H   -0.008848
   139  H   -0.006384
   140  H    0.022040
 Sum of Mulliken charges =  -0.00000

 Dipole moment (field-independent basis, Debye):
    X=              4.8781    Y=              3.8842    Z=             -2.2536  Tot=              6.6304
 Quadrupole moment (field-independent basis, Debye-Ang):
   XX=           -378.8653   YY=           -430.3850   ZZ=           -406.4715
   XY=            -26.7167   XZ=              7.4545   YZ=             18.0989

 Normal termination of Gaussian 16 at Wed May  4 19:01:46 2022.
