 Gaussian 16, Revision A.03,
 Gaussian 16:  ES64L-G16RevA.03 25-Dec-2016

 ---------------------------------
 #p PBE1PBE/Def2SVP td=(nstates=5)
 ---------------------------------

 ----------------------------------------------------
 step_351_chromophore_3 TDDFT with PBE1PBE functional
 ----------------------------------------------------
 Symbolic Z-matrix:
 Charge =  0 Multiplicity = 1

                         Standard orientation:
 ---------------------------------------------------------------------
 Center     Atomic      Atomic             Coordinates (Angstroms)
 Number     Number       Type             X           Y           Z
 ---------------------------------------------------------------------
      1         12           0       -5.576880    0.886024   -0.133278
      2          6           0       -4.379064   -2.372372    0.034787
      3          6           0       -2.141315    1.848457    0.619138
      4          6           0       -6.538632    4.050036    0.086250
      5          6           0       -8.755208   -0.230050   -0.111974
      6          7           0       -3.516569   -0.201291    0.093827
      7          6           0       -3.309542   -1.507063    0.045581
      8          6           0       -1.852261   -1.868702    0.035107
      9          6           0       -1.126061   -0.525413    0.443386
     10          6           0       -2.314735    0.454775    0.418741
     11          6           0       -0.366950   -0.506140    1.807120
     12          6           0       -1.423237   -2.449172   -1.351511
     13          6           0       -0.320440   -3.499366   -1.374016
     14          6           0        0.715085   -3.528609   -0.212428
     15          8           0        0.721375   -4.292635    0.720502
     16          8           0        1.667947   -2.571946   -0.345558
     17          7           0       -4.473297    2.702353    0.152276
     18          6           0       -3.096553    2.882010    0.486820
     19          6           0       -2.853899    4.337117    0.566991
     20          6           0       -4.075106    4.947366    0.420696
     21          6           0       -5.086794    3.911650    0.136712
     22          6           0       -1.445397    4.944474    0.745204
     23          6           0       -4.448459    6.421909    0.494444
     24          8           0       -5.497142    6.820243    0.021760
     25          6           0       -3.516731    7.539722    1.082632
     26          7           0       -7.401699    1.764703   -0.271460
     27          6           0       -7.550218    3.102268   -0.142054
     28          6           0       -9.104581    3.462407   -0.142880
     29          6           0       -9.723250    2.099409   -0.327083
     30          6           0       -8.632828    1.115433   -0.222423
     31          6           0       -9.704838    4.304066    1.075423
     32          6           0      -10.700100    2.097920   -1.547727
     33          6           0      -12.022515    1.298365   -1.332424
     34          7           0       -6.467928   -0.914823   -0.093059
     35          6           0       -7.789084   -1.265796   -0.164306
     36          6           0       -7.936581   -2.706586   -0.041257
     37          6           0       -6.618685   -3.167090   -0.008354
     38          6           0       -5.762555   -2.064260   -0.024423
     39          6           0       -9.088589   -3.638379   -0.199600
     40          6           0       -5.849258   -4.349960    0.011750
     41          8           0       -6.163087   -5.535964    0.061148
     42          6           0       -4.306400   -3.866888   -0.033246
     43          6           0       -3.428010   -4.546744    1.034807
     44          8           0       -3.264166   -4.256191    2.157234
     45          8           0       -2.681596   -5.500266    0.421223
     46          6           0       -1.750003   -6.275663    1.218854
     47          6           0        2.833520   -2.624433    0.451837
     48          6           0        3.951473   -2.171698   -0.445572
     49          6           0        5.053058   -2.873039   -0.948648
     50          6           0        5.362729   -4.272288   -0.406266
     51          6           0        6.013007   -2.242662   -1.963050
     52          6           0        7.508323   -2.189106   -1.522410
     53          6           0        7.916784   -0.876571   -0.880145
     54          6           0        8.671853    0.160745   -1.816054
     55          6           0        7.682286    1.251706   -2.378037
     56          6           0        9.894398    0.756838   -1.038738
     57          6           0       10.880624    1.640643   -2.015014
     58          6           0       12.344414    1.256901   -1.744229
     59          6           0       13.164264    2.464076   -1.155749
     60          6           0       13.531681    3.490191   -2.209608
     61          6           0       14.521645    1.952953   -0.532271
     62          6           0       14.522864    2.232297    1.050227
     63          6           0       14.419808    0.937463    1.915619
     64          6           0       13.203697    0.858300    2.859493
     65          6           0       13.501961    0.051109    4.197466
     66          6           0       12.078794    0.205999    2.159520
     67          1           0       -1.112583    2.191151    0.756731
     68          1           0       -6.954359    5.047751    0.239028
     69          1           0       -9.764396   -0.620063   -0.259252
     70          1           0       -1.591088   -2.633480    0.765683
     71          1           0       -0.339323   -0.282200   -0.270531
     72          1           0       -0.722786    0.300252    2.449493
     73          1           0        0.666157   -0.227928    1.601182
     74          1           0       -0.276301   -1.442426    2.357631
     75          1           0       -1.033390   -1.590277   -1.897669
     76          1           0       -2.310794   -2.754813   -1.904788
     77          1           0        0.331034   -3.393118   -2.240475
     78          1           0       -0.662595   -4.503299   -1.622932
     79          1           0       -1.352306    5.408642    1.726970
     80          1           0       -1.278616    5.619975   -0.094228
     81          1           0       -0.606861    4.248197    0.762725
     82          1           0       -2.856121    7.542911    0.215076
     83          1           0       -2.957901    7.232606    1.966414
     84          1           0       -3.939643    8.523735    1.285065
     85          1           0       -9.195936    4.118493   -1.008268
     86          1           0      -10.303567    1.854389    0.562031
     87          1           0      -10.691888    3.879952    1.259809
     88          1           0       -9.728390    5.350732    0.774061
     89          1           0       -9.010170    4.056245    1.878981
     90          1           0      -10.068999    1.808068   -2.387817
     91          1           0      -11.058016    3.084572   -1.845279
     92          1           0      -12.843468    1.764587   -1.876210
     93          1           0      -12.243213    1.299098   -0.264233
     94          1           0      -11.986760    0.270696   -1.695404
     95          1           0       -9.462922   -3.498931   -1.213372
     96          1           0       -9.752923   -3.350893    0.614204
     97          1           0       -8.818444   -4.674386    0.008235
     98          1           0       -3.947179   -4.228539   -0.996733
     99          1           0       -2.336613   -6.932531    1.862108
    100          1           0       -1.142106   -5.845206    2.014237
    101          1           0       -1.158962   -6.944152    0.593449
    102          1           0        3.038921   -3.623645    0.836067
    103          1           0        2.843287   -1.874808    1.242656
    104          1           0        3.719695   -1.169072   -0.805852
    105          1           0        5.881413   -4.004088    0.514195
    106          1           0        5.898557   -4.911339   -1.109535
    107          1           0        4.425929   -4.801090   -0.232620
    108          1           0        5.698641   -1.224694   -2.192633
    109          1           0        5.969013   -2.891401   -2.837800
    110          1           0        8.096888   -2.530783   -2.374779
    111          1           0        7.760319   -2.958589   -0.792628
    112          1           0        8.454894   -1.140949    0.030133
    113          1           0        6.992230   -0.430018   -0.514014
    114          1           0        9.044544   -0.278165   -2.741836
    115          1           0        7.627047    2.165917   -1.786149
    116          1           0        6.628096    0.979414   -2.434576
    117          1           0        8.049668    1.581209   -3.349487
    118          1           0       10.469589   -0.077025   -0.636653
    119          1           0        9.626565    1.437302   -0.230142
    120          1           0       10.806337    2.695915   -1.753144
    121          1           0       10.588101    1.472824   -3.051305
    122          1           0       12.740567    0.872476   -2.683503
    123          1           0       12.453893    0.386468   -1.097605
    124          1           0       12.509081    2.990411   -0.461562
    125          1           0       14.328952    3.165296   -2.878521
    126          1           0       13.761873    4.437772   -1.722984
    127          1           0       12.667082    3.658908   -2.850965
    128          1           0       15.406089    2.397514   -0.988192
    129          1           0       14.550446    0.876543   -0.698510
    130          1           0       13.568013    2.707109    1.276625
    131          1           0       15.394595    2.836473    1.302946
    132          1           0       15.351940    0.881515    2.475782
    133          1           0       14.423008    0.086941    1.234128
    134          1           0       12.856179    1.853668    3.134533
    135          1           0       13.305755    0.556323    5.142532
    136          1           0       14.543363   -0.266216    4.148163
    137          1           0       13.064867   -0.947363    4.223921
    138          1           0       11.517593    0.981845    1.639815
    139          1           0       11.336029   -0.078092    2.905938
    140          1           0       12.258414   -0.640473    1.496760
 ---------------------------------------------------------------------

 SCF Done:  E(RPBE1PBE) =  -3005.37105502     A.U. after   15 cycles

 Excitation energies and oscillator strengths:

 Excited State   1:      Singlet-A      1.8620 eV  665.85 nm  f=0.3692  <S**2>=0.000
     245 -> 248        0.17425
     246 -> 247        0.69364
     246 <- 247       -0.10885
 This state for optimization and/or second-order correction.
 Total Energy, E(TD-HF/TD-DFT) =  -3005.30262657
 Copying the excited state density for this state as the 1-particle RhoCI density.

 Excited State   2:      Singlet-A      2.2276 eV  556.57 nm  f=0.1325  <S**2>=0.000
     245 -> 247        0.66043
     246 -> 248       -0.24591

 Excited State   3:      Singlet-A      2.9215 eV  424.39 nm  f=0.0001  <S**2>=0.000
     242 -> 247       -0.34062
     242 -> 249        0.10989
     243 -> 247        0.14287
     244 -> 247        0.56985
     244 -> 249       -0.10310

 Excited State   4:      Singlet-A      3.0001 eV  413.26 nm  f=0.0003  <S**2>=0.000
     240 -> 247        0.11712
     242 -> 247        0.58278
     244 -> 247        0.32560

 Excited State   5:      Singlet-A      3.1700 eV  391.12 nm  f=0.0003  <S**2>=0.000
     240 -> 247       -0.20557
     241 -> 247        0.65847

 The electronic state is 1-A.
 Alpha  occ. eigenvalues --  -46.91479 -19.26118 -19.24244 -19.20532 -19.19046
 Alpha  occ. eigenvalues --  -19.18867 -19.18672 -14.41599 -14.40853 -14.39578
 Alpha  occ. eigenvalues --  -14.38692 -10.37073 -10.34968 -10.32617 -10.31423
 Alpha  occ. eigenvalues --  -10.29384 -10.29057 -10.28611 -10.28592 -10.28228
 Alpha  occ. eigenvalues --  -10.27791 -10.27729 -10.27298 -10.26948 -10.26614
 Alpha  occ. eigenvalues --  -10.26139 -10.26031 -10.25871 -10.25429 -10.25315
 Alpha  occ. eigenvalues --  -10.25268 -10.25223 -10.25183 -10.25162 -10.25141
 Alpha  occ. eigenvalues --  -10.25030 -10.24929 -10.24889 -10.24546 -10.24475
 Alpha  occ. eigenvalues --  -10.24280 -10.24039 -10.23955 -10.23910 -10.23760
 Alpha  occ. eigenvalues --  -10.23679 -10.23524 -10.23519 -10.23476 -10.23407
 Alpha  occ. eigenvalues --  -10.23205 -10.23138 -10.23128 -10.23113 -10.22990
 Alpha  occ. eigenvalues --  -10.22878 -10.22824 -10.22578 -10.22516 -10.22327
 Alpha  occ. eigenvalues --  -10.22236 -10.22051 -10.21783 -10.21772 -10.21526
 Alpha  occ. eigenvalues --  -10.21381  -3.13696  -1.86545  -1.86071  -1.85927
 Alpha  occ. eigenvalues --   -1.13135  -1.11647  -1.05058  -1.04035  -1.03608
 Alpha  occ. eigenvalues --   -1.02892  -0.99002  -0.98027  -0.97571  -0.96439
 Alpha  occ. eigenvalues --   -0.86674  -0.84427  -0.83738  -0.83556  -0.83431
 Alpha  occ. eigenvalues --   -0.82497  -0.82296  -0.81787  -0.81586  -0.81146
 Alpha  occ. eigenvalues --   -0.80668  -0.79701  -0.78412  -0.77219  -0.77064
 Alpha  occ. eigenvalues --   -0.76316  -0.75926  -0.75296  -0.74758  -0.74239
 Alpha  occ. eigenvalues --   -0.73918  -0.72758  -0.72425  -0.71639  -0.70471
 Alpha  occ. eigenvalues --   -0.69937  -0.69551  -0.69329  -0.68689  -0.68254
 Alpha  occ. eigenvalues --   -0.67560  -0.67128  -0.65649  -0.64914  -0.63839
 Alpha  occ. eigenvalues --   -0.63085  -0.62792  -0.61255  -0.60767  -0.59999
 Alpha  occ. eigenvalues --   -0.59655  -0.59459  -0.59290  -0.58751  -0.58576
 Alpha  occ. eigenvalues --   -0.58208  -0.57900  -0.57100  -0.56416  -0.55150
 Alpha  occ. eigenvalues --   -0.54497  -0.54217  -0.53737  -0.52808  -0.52165
 Alpha  occ. eigenvalues --   -0.51669  -0.51554  -0.50638  -0.50386  -0.49795
 Alpha  occ. eigenvalues --   -0.49456  -0.49201  -0.48677  -0.48403  -0.48274
 Alpha  occ. eigenvalues --   -0.47981  -0.47841  -0.47604  -0.47321  -0.47152
 Alpha  occ. eigenvalues --   -0.46946  -0.46729  -0.46462  -0.46344  -0.46279
 Alpha  occ. eigenvalues --   -0.46060  -0.45953  -0.45513  -0.45238  -0.45128
 Alpha  occ. eigenvalues --   -0.44988  -0.44796  -0.44761  -0.44519  -0.44103
 Alpha  occ. eigenvalues --   -0.43938  -0.43828  -0.43751  -0.43411  -0.43198
 Alpha  occ. eigenvalues --   -0.43060  -0.43005  -0.42727  -0.42337  -0.42258
 Alpha  occ. eigenvalues --   -0.42001  -0.41882  -0.41626  -0.41508  -0.41398
 Alpha  occ. eigenvalues --   -0.41167  -0.40915  -0.40886  -0.40824  -0.40423
 Alpha  occ. eigenvalues --   -0.40280  -0.40152  -0.39950  -0.39684  -0.39620
 Alpha  occ. eigenvalues --   -0.39368  -0.39347  -0.38864  -0.38745  -0.38542
 Alpha  occ. eigenvalues --   -0.38436  -0.38332  -0.38154  -0.37704  -0.37602
 Alpha  occ. eigenvalues --   -0.37423  -0.37264  -0.36866  -0.36660  -0.36576
 Alpha  occ. eigenvalues --   -0.36425  -0.36412  -0.36015  -0.35945  -0.35713
 Alpha  occ. eigenvalues --   -0.35639  -0.35539  -0.35324  -0.35148  -0.35087
 Alpha  occ. eigenvalues --   -0.34900  -0.34569  -0.34115  -0.34089  -0.33875
 Alpha  occ. eigenvalues --   -0.33597  -0.33399  -0.33182  -0.32755  -0.32622
 Alpha  occ. eigenvalues --   -0.32087  -0.31960  -0.31904  -0.31873  -0.31304
 Alpha  occ. eigenvalues --   -0.31188  -0.30050  -0.29544  -0.29432  -0.29103
 Alpha  occ. eigenvalues --   -0.29000  -0.28921  -0.28246  -0.27011  -0.25923
 Alpha  occ. eigenvalues --   -0.25603  -0.25164  -0.25056  -0.25019  -0.20721
 Alpha  occ. eigenvalues --   -0.18699
 Alpha virt. eigenvalues --   -0.11068  -0.04641  -0.03320  -0.01873  -0.00406
 Alpha virt. eigenvalues --    0.00578   0.00858   0.01772   0.02341   0.02793
 Alpha virt. eigenvalues --    0.04133   0.04793   0.05282   0.05482   0.05698

 Mulliken charges:
               1
     1  Mg   0.994264
     2  C    0.032835
     3  C   -0.057288
     4  C   -0.043986
     5  C   -0.073198
     6  N   -0.343004
     7  C    0.012643
     8  C   -0.140011
     9  C   -0.117990
    10  C    0.078671
    11  C   -0.004139
    12  C    0.049724
    13  C    0.019112
    14  C    0.187426
    15  O   -0.248693
    16  O   -0.344651
    17  N   -0.486012
    18  C    0.142373
    19  C   -0.157450
    20  C   -0.086478
    21  C    0.178823
    22  C    0.046341
    23  C    0.042810
    24  O   -0.241556
    25  C   -0.021475
    26  N   -0.472241
    27  C    0.081357
    28  C   -0.159592
    29  C   -0.058522
    30  C    0.107358
    31  C    0.007697
    32  C   -0.017366
    33  C   -0.071180
    34  N   -0.501914
    35  C    0.106466
    36  C   -0.193687
    37  C   -0.004090
    38  C    0.154952
    39  C    0.061738
    40  C    0.121429
    41  O   -0.223331
    42  C   -0.177561
    43  C    0.266304
    44  O   -0.203274
    45  O   -0.364293
    46  C    0.140130
    47  C    0.254087
    48  C   -0.169942
    49  C   -0.218939
    50  C   -0.004678
    51  C    0.038934
    52  C   -0.065433
    53  C    0.005485
    54  C   -0.170484
    55  C   -0.033034
    56  C   -0.042539
    57  C   -0.055646
    58  C   -0.010760
    59  C   -0.236687
    60  C   -0.003267
    61  C    0.002653
    62  C   -0.056487
    63  C    0.006733
    64  C   -0.249379
    65  C   -0.017385
    66  C   -0.010970
    67  H    0.003282
    68  H    0.025148
    69  H    0.002569
    70  H    0.090047
    71  H    0.052693
    72  H    0.044635
    73  H    0.023340
    74  H    0.065319
    75  H    0.034270
    76  H    0.049822
    77  H    0.045801
    78  H    0.056967
    79  H    0.060878
    80  H    0.065839
    81  H    0.035238
    82  H    0.056440
    83  H    0.050489
    84  H    0.063985
    85  H    0.056130
    86  H    0.040456
    87  H    0.047917
    88  H    0.060639
    89  H    0.056867
    90  H    0.038910
    91  H    0.041420
    92  H    0.040171
    93  H    0.040952
    94  H    0.050135
    95  H    0.068081
    96  H    0.046829
    97  H    0.063818
    98  H    0.083285
    99  H    0.027369
   100  H    0.063380
   101  H    0.051005
   102  H    0.045121
   103  H    0.046592
   104  H    0.020297
   105  H    0.077038
   106  H    0.045380
   107  H    0.058804
   108  H    0.033827
   109  H    0.038932
   110  H    0.024456
   111  H    0.023718
   112  H    0.022805
   113  H    0.025395
   114  H    0.036887
   115  H    0.024739
   116  H    0.034607
   117  H    0.035796
   118  H    0.046423
   119  H    0.043202
   120  H    0.036777
   121  H    0.032100
   122  H    0.018819
   123  H    0.024239
   124  H    0.036689
   125  H    0.035198
   126  H    0.038281
   127  H    0.018996
   128  H    0.031575
   129  H    0.025959
   130  H    0.031832
   131  H    0.038841
   132  H    0.025449
   133  H    0.018263
   134  H    0.036169
   135  H    0.047559
   136  H    0.015645
   137  H    0.024382
   138  H    0.023620
   139  H    0.023096
   140  H    0.046633
 Sum of Mulliken charges =  -0.00000

 Dipole moment (field-independent basis, Debye):
    X=              4.5713    Y=              3.5097    Z=             -2.3398  Tot=              6.2201
 Quadrupole moment (field-independent basis, Debye-Ang):
   XX=           -369.4619   YY=           -428.2119   ZZ=           -404.0910
   XY=            -25.7863   XZ=              7.9260   YZ=             17.8188

 Normal termination of Gaussian 16 at Wed May  4 19:21:06 2022.
