 Gaussian 16, Revision A.03,
 Gaussian 16:  ES64L-G16RevA.03 25-Dec-2016

 --------------------------------
 #p wB97XD/Def2SVP td=(nstates=5)
 --------------------------------

 ---------------------------------------------------
 step_351_chromophore_3 TDDFT with wB97XD functional
 ---------------------------------------------------
 Symbolic Z-matrix:
 Charge =  0 Multiplicity = 1

                         Standard orientation:
 ---------------------------------------------------------------------
 Center     Atomic      Atomic             Coordinates (Angstroms)
 Number     Number       Type             X           Y           Z
 ---------------------------------------------------------------------
      1         12           0       -5.576880    0.886024   -0.133278
      2          6           0       -4.379064   -2.372372    0.034787
      3          6           0       -2.141315    1.848457    0.619138
      4          6           0       -6.538632    4.050036    0.086250
      5          6           0       -8.755208   -0.230050   -0.111974
      6          7           0       -3.516569   -0.201291    0.093827
      7          6           0       -3.309542   -1.507063    0.045581
      8          6           0       -1.852261   -1.868702    0.035107
      9          6           0       -1.126061   -0.525413    0.443386
     10          6           0       -2.314735    0.454775    0.418741
     11          6           0       -0.366950   -0.506140    1.807120
     12          6           0       -1.423237   -2.449172   -1.351511
     13          6           0       -0.320440   -3.499366   -1.374016
     14          6           0        0.715085   -3.528609   -0.212428
     15          8           0        0.721375   -4.292635    0.720502
     16          8           0        1.667947   -2.571946   -0.345558
     17          7           0       -4.473297    2.702353    0.152276
     18          6           0       -3.096553    2.882010    0.486820
     19          6           0       -2.853899    4.337117    0.566991
     20          6           0       -4.075106    4.947366    0.420696
     21          6           0       -5.086794    3.911650    0.136712
     22          6           0       -1.445397    4.944474    0.745204
     23          6           0       -4.448459    6.421909    0.494444
     24          8           0       -5.497142    6.820243    0.021760
     25          6           0       -3.516731    7.539722    1.082632
     26          7           0       -7.401699    1.764703   -0.271460
     27          6           0       -7.550218    3.102268   -0.142054
     28          6           0       -9.104581    3.462407   -0.142880
     29          6           0       -9.723250    2.099409   -0.327083
     30          6           0       -8.632828    1.115433   -0.222423
     31          6           0       -9.704838    4.304066    1.075423
     32          6           0      -10.700100    2.097920   -1.547727
     33          6           0      -12.022515    1.298365   -1.332424
     34          7           0       -6.467928   -0.914823   -0.093059
     35          6           0       -7.789084   -1.265796   -0.164306
     36          6           0       -7.936581   -2.706586   -0.041257
     37          6           0       -6.618685   -3.167090   -0.008354
     38          6           0       -5.762555   -2.064260   -0.024423
     39          6           0       -9.088589   -3.638379   -0.199600
     40          6           0       -5.849258   -4.349960    0.011750
     41          8           0       -6.163087   -5.535964    0.061148
     42          6           0       -4.306400   -3.866888   -0.033246
     43          6           0       -3.428010   -4.546744    1.034807
     44          8           0       -3.264166   -4.256191    2.157234
     45          8           0       -2.681596   -5.500266    0.421223
     46          6           0       -1.750003   -6.275663    1.218854
     47          6           0        2.833520   -2.624433    0.451837
     48          6           0        3.951473   -2.171698   -0.445572
     49          6           0        5.053058   -2.873039   -0.948648
     50          6           0        5.362729   -4.272288   -0.406266
     51          6           0        6.013007   -2.242662   -1.963050
     52          6           0        7.508323   -2.189106   -1.522410
     53          6           0        7.916784   -0.876571   -0.880145
     54          6           0        8.671853    0.160745   -1.816054
     55          6           0        7.682286    1.251706   -2.378037
     56          6           0        9.894398    0.756838   -1.038738
     57          6           0       10.880624    1.640643   -2.015014
     58          6           0       12.344414    1.256901   -1.744229
     59          6           0       13.164264    2.464076   -1.155749
     60          6           0       13.531681    3.490191   -2.209608
     61          6           0       14.521645    1.952953   -0.532271
     62          6           0       14.522864    2.232297    1.050227
     63          6           0       14.419808    0.937463    1.915619
     64          6           0       13.203697    0.858300    2.859493
     65          6           0       13.501961    0.051109    4.197466
     66          6           0       12.078794    0.205999    2.159520
     67          1           0       -1.112583    2.191151    0.756731
     68          1           0       -6.954359    5.047751    0.239028
     69          1           0       -9.764396   -0.620063   -0.259252
     70          1           0       -1.591088   -2.633480    0.765683
     71          1           0       -0.339323   -0.282200   -0.270531
     72          1           0       -0.722786    0.300252    2.449493
     73          1           0        0.666157   -0.227928    1.601182
     74          1           0       -0.276301   -1.442426    2.357631
     75          1           0       -1.033390   -1.590277   -1.897669
     76          1           0       -2.310794   -2.754813   -1.904788
     77          1           0        0.331034   -3.393118   -2.240475
     78          1           0       -0.662595   -4.503299   -1.622932
     79          1           0       -1.352306    5.408642    1.726970
     80          1           0       -1.278616    5.619975   -0.094228
     81          1           0       -0.606861    4.248197    0.762725
     82          1           0       -2.856121    7.542911    0.215076
     83          1           0       -2.957901    7.232606    1.966414
     84          1           0       -3.939643    8.523735    1.285065
     85          1           0       -9.195936    4.118493   -1.008268
     86          1           0      -10.303567    1.854389    0.562031
     87          1           0      -10.691888    3.879952    1.259809
     88          1           0       -9.728390    5.350732    0.774061
     89          1           0       -9.010170    4.056245    1.878981
     90          1           0      -10.068999    1.808068   -2.387817
     91          1           0      -11.058016    3.084572   -1.845279
     92          1           0      -12.843468    1.764587   -1.876210
     93          1           0      -12.243213    1.299098   -0.264233
     94          1           0      -11.986760    0.270696   -1.695404
     95          1           0       -9.462922   -3.498931   -1.213372
     96          1           0       -9.752923   -3.350893    0.614204
     97          1           0       -8.818444   -4.674386    0.008235
     98          1           0       -3.947179   -4.228539   -0.996733
     99          1           0       -2.336613   -6.932531    1.862108
    100          1           0       -1.142106   -5.845206    2.014237
    101          1           0       -1.158962   -6.944152    0.593449
    102          1           0        3.038921   -3.623645    0.836067
    103          1           0        2.843287   -1.874808    1.242656
    104          1           0        3.719695   -1.169072   -0.805852
    105          1           0        5.881413   -4.004088    0.514195
    106          1           0        5.898557   -4.911339   -1.109535
    107          1           0        4.425929   -4.801090   -0.232620
    108          1           0        5.698641   -1.224694   -2.192633
    109          1           0        5.969013   -2.891401   -2.837800
    110          1           0        8.096888   -2.530783   -2.374779
    111          1           0        7.760319   -2.958589   -0.792628
    112          1           0        8.454894   -1.140949    0.030133
    113          1           0        6.992230   -0.430018   -0.514014
    114          1           0        9.044544   -0.278165   -2.741836
    115          1           0        7.627047    2.165917   -1.786149
    116          1           0        6.628096    0.979414   -2.434576
    117          1           0        8.049668    1.581209   -3.349487
    118          1           0       10.469589   -0.077025   -0.636653
    119          1           0        9.626565    1.437302   -0.230142
    120          1           0       10.806337    2.695915   -1.753144
    121          1           0       10.588101    1.472824   -3.051305
    122          1           0       12.740567    0.872476   -2.683503
    123          1           0       12.453893    0.386468   -1.097605
    124          1           0       12.509081    2.990411   -0.461562
    125          1           0       14.328952    3.165296   -2.878521
    126          1           0       13.761873    4.437772   -1.722984
    127          1           0       12.667082    3.658908   -2.850965
    128          1           0       15.406089    2.397514   -0.988192
    129          1           0       14.550446    0.876543   -0.698510
    130          1           0       13.568013    2.707109    1.276625
    131          1           0       15.394595    2.836473    1.302946
    132          1           0       15.351940    0.881515    2.475782
    133          1           0       14.423008    0.086941    1.234128
    134          1           0       12.856179    1.853668    3.134533
    135          1           0       13.305755    0.556323    5.142532
    136          1           0       14.543363   -0.266216    4.148163
    137          1           0       13.064867   -0.947363    4.223921
    138          1           0       11.517593    0.981845    1.639815
    139          1           0       11.336029   -0.078092    2.905938
    140          1           0       12.258414   -0.640473    1.496760
 ---------------------------------------------------------------------

 SCF Done:  E(RwB97XD) =  -3007.88505879     A.U. after   17 cycles

 Excitation energies and oscillator strengths:

 Excited State   1:      Singlet-A      1.6631 eV  745.50 nm  f=0.3818  <S**2>=0.000
     245 -> 248       -0.18349
     246 -> 247        0.68499
     245 <- 248       -0.11716
 This state for optimization and/or second-order correction.
 Total Energy, E(TD-HF/TD-DFT) =  -3007.82394117
 Copying the excited state density for this state as the 1-particle RhoCI density.

 Excited State   2:      Singlet-A      2.1722 eV  570.79 nm  f=0.1374  <S**2>=0.000
     245 -> 247        0.64994
     246 -> 248        0.26714

 Excited State   3:      Singlet-A      3.4694 eV  357.37 nm  f=0.0068  <S**2>=0.000
     239 -> 247       -0.15667
     241 -> 247       -0.13292
     241 -> 249       -0.15716
     242 -> 247        0.10894
     243 -> 247        0.59648
     244 -> 247       -0.10942

 Excited State   4:      Singlet-A      3.5311 eV  351.12 nm  f=0.0225  <S**2>=0.000
     239 -> 247        0.10829
     241 -> 247        0.49320
     241 -> 249       -0.10803
     241 -> 250       -0.14480
     242 -> 247        0.27548
     242 -> 249       -0.18770
     242 -> 250       -0.10141
     243 -> 249       -0.15934
     246 -> 248       -0.15474

 Excited State   5:      Singlet-A      3.6121 eV  343.25 nm  f=0.1295  <S**2>=0.000
     240 -> 247        0.28013
     240 -> 249        0.15660
     240 -> 250       -0.11518
     241 -> 247       -0.11751
     241 -> 249       -0.13008
     242 -> 247        0.40163
     243 -> 247       -0.19132
     245 -> 247       -0.11440
     246 -> 248        0.33462

 The electronic state is 1-A.
 Alpha  occ. eigenvalues --  -46.94397 -19.30672 -19.28778 -19.25201 -19.23850
 Alpha  occ. eigenvalues --  -19.23754 -19.23334 -14.46888 -14.45766 -14.44645
 Alpha  occ. eigenvalues --  -14.43536 -10.43851 -10.41784 -10.39607 -10.38174
 Alpha  occ. eigenvalues --  -10.35888 -10.35552 -10.35257 -10.35068 -10.34855
 Alpha  occ. eigenvalues --  -10.33908 -10.33897 -10.33447 -10.33427 -10.33323
 Alpha  occ. eigenvalues --  -10.32478 -10.32205 -10.32117 -10.31992 -10.31961
 Alpha  occ. eigenvalues --  -10.31699 -10.31697 -10.31589 -10.31511 -10.31413
 Alpha  occ. eigenvalues --  -10.31387 -10.31293 -10.31250 -10.30782 -10.30662
 Alpha  occ. eigenvalues --  -10.30503 -10.30500 -10.30424 -10.30364 -10.30256
 Alpha  occ. eigenvalues --  -10.30045 -10.29890 -10.29772 -10.29696 -10.29691
 Alpha  occ. eigenvalues --  -10.29592 -10.29591 -10.29489 -10.29453 -10.29259
 Alpha  occ. eigenvalues --  -10.29240 -10.29200 -10.28935 -10.28865 -10.28787
 Alpha  occ. eigenvalues --  -10.28616 -10.28417 -10.28194 -10.27992 -10.27891
 Alpha  occ. eigenvalues --  -10.27857  -3.20470  -1.94069  -1.93594  -1.93446
 Alpha  occ. eigenvalues --   -1.20493  -1.18996  -1.12702  -1.11363  -1.10959
 Alpha  occ. eigenvalues --   -1.10210  -1.06297  -1.05409  -1.04907  -1.03993
 Alpha  occ. eigenvalues --   -0.94220  -0.92116  -0.91412  -0.91232  -0.90953
 Alpha  occ. eigenvalues --   -0.90177  -0.90003  -0.89461  -0.89261  -0.88770
 Alpha  occ. eigenvalues --   -0.88215  -0.87384  -0.86104  -0.84784  -0.84723
 Alpha  occ. eigenvalues --   -0.83967  -0.83560  -0.82996  -0.82542  -0.81908
 Alpha  occ. eigenvalues --   -0.81599  -0.80593  -0.80069  -0.79183  -0.78173
 Alpha  occ. eigenvalues --   -0.77531  -0.77265  -0.76876  -0.76387  -0.75941
 Alpha  occ. eigenvalues --   -0.75158  -0.74666  -0.73226  -0.72513  -0.71321
 Alpha  occ. eigenvalues --   -0.70656  -0.70416  -0.68885  -0.68384  -0.67431
 Alpha  occ. eigenvalues --   -0.67230  -0.67011  -0.66859  -0.66161  -0.66091
 Alpha  occ. eigenvalues --   -0.65903  -0.65581  -0.64749  -0.63785  -0.62686
 Alpha  occ. eigenvalues --   -0.62066  -0.61658  -0.61154  -0.60105  -0.59534
 Alpha  occ. eigenvalues --   -0.59168  -0.59024  -0.58062  -0.57816  -0.57241
 Alpha  occ. eigenvalues --   -0.56823  -0.56611  -0.56060  -0.55830  -0.55708
 Alpha  occ. eigenvalues --   -0.55429  -0.55230  -0.55066  -0.54823  -0.54568
 Alpha  occ. eigenvalues --   -0.54345  -0.54156  -0.54005  -0.53740  -0.53567
 Alpha  occ. eigenvalues --   -0.53372  -0.53329  -0.52950  -0.52631  -0.52381
 Alpha  occ. eigenvalues --   -0.52331  -0.52147  -0.52020  -0.51883  -0.51410
 Alpha  occ. eigenvalues --   -0.51247  -0.51182  -0.51134  -0.50724  -0.50577
 Alpha  occ. eigenvalues --   -0.50299  -0.50278  -0.50046  -0.49712  -0.49557
 Alpha  occ. eigenvalues --   -0.49273  -0.49093  -0.48975  -0.48834  -0.48685
 Alpha  occ. eigenvalues --   -0.48476  -0.48175  -0.48147  -0.47997  -0.47630
 Alpha  occ. eigenvalues --   -0.47494  -0.47310  -0.47067  -0.46849  -0.46789
 Alpha  occ. eigenvalues --   -0.46580  -0.46471  -0.46077  -0.45890  -0.45686
 Alpha  occ. eigenvalues --   -0.45642  -0.45548  -0.45306  -0.44875  -0.44626
 Alpha  occ. eigenvalues --   -0.44541  -0.44286  -0.44057  -0.43916  -0.43731
 Alpha  occ. eigenvalues --   -0.43535  -0.43470  -0.43076  -0.42934  -0.42761
 Alpha  occ. eigenvalues --   -0.42719  -0.42577  -0.42413  -0.42193  -0.42167
 Alpha  occ. eigenvalues --   -0.41803  -0.41649  -0.41183  -0.41125  -0.40915
 Alpha  occ. eigenvalues --   -0.40563  -0.40462  -0.40272  -0.39825  -0.39538
 Alpha  occ. eigenvalues --   -0.39128  -0.38994  -0.38920  -0.38882  -0.38294
 Alpha  occ. eigenvalues --   -0.38118  -0.37131  -0.36363  -0.36315  -0.36121
 Alpha  occ. eigenvalues --   -0.35869  -0.35840  -0.35078  -0.33784  -0.32836
 Alpha  occ. eigenvalues --   -0.32198  -0.32074  -0.31848  -0.31757  -0.25748
 Alpha  occ. eigenvalues --   -0.22927
 Alpha virt. eigenvalues --   -0.06965   0.00772   0.02988   0.04649   0.06315
 Alpha virt. eigenvalues --    0.06665   0.07509   0.08360   0.08889   0.09200
 Alpha virt. eigenvalues --    0.10841   0.11613   0.12076   0.12120   0.12359

 Mulliken charges:
               1
     1  Mg   0.982085
     2  C    0.033638
     3  C   -0.072335
     4  C   -0.062666
     5  C   -0.087946
     6  N   -0.305305
     7  C   -0.020171
     8  C   -0.107709
     9  C   -0.097673
    10  C    0.068281
    11  C    0.006191
    12  C    0.056362
    13  C    0.034471
    14  C    0.172498
    15  O   -0.243553
    16  O   -0.341340
    17  N   -0.456108
    18  C    0.138272
    19  C   -0.146553
    20  C   -0.075995
    21  C    0.169961
    22  C    0.056418
    23  C    0.038973
    24  O   -0.236008
    25  C   -0.008726
    26  N   -0.442847
    27  C    0.071992
    28  C   -0.138804
    29  C   -0.024136
    30  C    0.094861
    31  C    0.022799
    32  C   -0.007432
    33  C   -0.053319
    34  N   -0.463704
    35  C    0.092253
    36  C   -0.191530
    37  C    0.001880
    38  C    0.134862
    39  C    0.073341
    40  C    0.102634
    41  O   -0.213606
    42  C   -0.139671
    43  C    0.239617
    44  O   -0.196184
    45  O   -0.359910
    46  C    0.150947
    47  C    0.269600
    48  C   -0.178309
    49  C   -0.208740
    50  C    0.006953
    51  C    0.064776
    52  C   -0.054154
    53  C    0.023683
    54  C   -0.142114
    55  C   -0.022421
    56  C   -0.024198
    57  C   -0.038345
    58  C    0.006588
    59  C   -0.201531
    60  C    0.008035
    61  C    0.015620
    62  C   -0.034569
    63  C    0.018235
    64  C   -0.215029
    65  C   -0.005638
    66  C    0.003216
    67  H   -0.003464
    68  H    0.019610
    69  H   -0.006011
    70  H    0.068138
    71  H    0.043672
    72  H    0.038019
    73  H    0.016482
    74  H    0.062618
    75  H    0.026174
    76  H    0.041836
    77  H    0.040468
    78  H    0.052674
    79  H    0.056874
    80  H    0.061853
    81  H    0.032927
    82  H    0.048935
    83  H    0.045617
    84  H    0.064403
    85  H    0.045194
    86  H    0.024909
    87  H    0.041483
    88  H    0.056158
    89  H    0.049606
    90  H    0.031121
    91  H    0.032939
    92  H    0.035041
    93  H    0.033705
    94  H    0.044293
    95  H    0.062216
    96  H    0.040089
    97  H    0.059618
    98  H    0.074310
    99  H    0.023231
   100  H    0.060730
   101  H    0.048795
   102  H    0.038778
   103  H    0.041740
   104  H    0.016348
   105  H    0.070820
   106  H    0.041431
   107  H    0.052895
   108  H    0.019839
   109  H    0.031745
   110  H    0.018107
   111  H    0.014958
   112  H    0.016062
   113  H    0.012721
   114  H    0.024773
   115  H    0.018451
   116  H    0.028278
   117  H    0.029993
   118  H    0.031915
   119  H    0.034744
   120  H    0.025881
   121  H    0.023588
   122  H    0.011354
   123  H    0.007854
   124  H    0.021822
   125  H    0.028713
   126  H    0.032544
   127  H    0.011533
   128  H    0.025048
   129  H    0.015057
   130  H    0.015365
   131  H    0.033503
   132  H    0.017549
   133  H    0.006477
   134  H    0.026712
   135  H    0.043397
   136  H    0.008467
   137  H    0.018197
   138  H    0.010372
   139  H    0.016745
   140  H    0.041200
 Sum of Mulliken charges =  -0.00000

 Dipole moment (field-independent basis, Debye):
    X=              5.0081    Y=              4.0197    Z=             -2.2798  Tot=              6.8144
 Quadrupole moment (field-independent basis, Debye-Ang):
   XX=           -374.4524   YY=           -425.7680   ZZ=           -403.6651
   XY=            -27.2978   XZ=              7.6210   YZ=             18.3778

 Normal termination of Gaussian 16 at Wed May  4 20:01:53 2022.
