 Gaussian 16, Revision A.03,
 Gaussian 16:  ES64L-G16RevA.03 25-Dec-2016

 --------------------
 #p ZINDO=(nstates=5)
 --------------------

 ----------------------------
 step_351_chromophore_3 ZINDO
 ----------------------------
 Symbolic Z-matrix:
 Charge =  0 Multiplicity = 1

                         Standard orientation:
 ---------------------------------------------------------------------
 Center     Atomic      Atomic             Coordinates (Angstroms)
 Number     Number       Type             X           Y           Z
 ---------------------------------------------------------------------
      1         12           0       -5.576880    0.886024   -0.133278
      2          6           0       -4.379064   -2.372372    0.034787
      3          6           0       -2.141315    1.848457    0.619138
      4          6           0       -6.538632    4.050036    0.086250
      5          6           0       -8.755208   -0.230050   -0.111974
      6          7           0       -3.516569   -0.201291    0.093827
      7          6           0       -3.309542   -1.507063    0.045581
      8          6           0       -1.852261   -1.868702    0.035107
      9          6           0       -1.126061   -0.525413    0.443386
     10          6           0       -2.314735    0.454775    0.418741
     11          6           0       -0.366950   -0.506140    1.807120
     12          6           0       -1.423237   -2.449172   -1.351511
     13          6           0       -0.320440   -3.499366   -1.374016
     14          6           0        0.715085   -3.528609   -0.212428
     15          8           0        0.721375   -4.292635    0.720502
     16          8           0        1.667947   -2.571946   -0.345558
     17          7           0       -4.473297    2.702353    0.152276
     18          6           0       -3.096553    2.882010    0.486820
     19          6           0       -2.853899    4.337117    0.566991
     20          6           0       -4.075106    4.947366    0.420696
     21          6           0       -5.086794    3.911650    0.136712
     22          6           0       -1.445397    4.944474    0.745204
     23          6           0       -4.448459    6.421909    0.494444
     24          8           0       -5.497142    6.820243    0.021760
     25          6           0       -3.516731    7.539722    1.082632
     26          7           0       -7.401699    1.764703   -0.271460
     27          6           0       -7.550218    3.102268   -0.142054
     28          6           0       -9.104581    3.462407   -0.142880
     29          6           0       -9.723250    2.099409   -0.327083
     30          6           0       -8.632828    1.115433   -0.222423
     31          6           0       -9.704838    4.304066    1.075423
     32          6           0      -10.700100    2.097920   -1.547727
     33          6           0      -12.022515    1.298365   -1.332424
     34          7           0       -6.467928   -0.914823   -0.093059
     35          6           0       -7.789084   -1.265796   -0.164306
     36          6           0       -7.936581   -2.706586   -0.041257
     37          6           0       -6.618685   -3.167090   -0.008354
     38          6           0       -5.762555   -2.064260   -0.024423
     39          6           0       -9.088589   -3.638379   -0.199600
     40          6           0       -5.849258   -4.349960    0.011750
     41          8           0       -6.163087   -5.535964    0.061148
     42          6           0       -4.306400   -3.866888   -0.033246
     43          6           0       -3.428010   -4.546744    1.034807
     44          8           0       -3.264166   -4.256191    2.157234
     45          8           0       -2.681596   -5.500266    0.421223
     46          6           0       -1.750003   -6.275663    1.218854
     47          6           0        2.833520   -2.624433    0.451837
     48          6           0        3.951473   -2.171698   -0.445572
     49          6           0        5.053058   -2.873039   -0.948648
     50          6           0        5.362729   -4.272288   -0.406266
     51          6           0        6.013007   -2.242662   -1.963050
     52          6           0        7.508323   -2.189106   -1.522410
     53          6           0        7.916784   -0.876571   -0.880145
     54          6           0        8.671853    0.160745   -1.816054
     55          6           0        7.682286    1.251706   -2.378037
     56          6           0        9.894398    0.756838   -1.038738
     57          6           0       10.880624    1.640643   -2.015014
     58          6           0       12.344414    1.256901   -1.744229
     59          6           0       13.164264    2.464076   -1.155749
     60          6           0       13.531681    3.490191   -2.209608
     61          6           0       14.521645    1.952953   -0.532271
     62          6           0       14.522864    2.232297    1.050227
     63          6           0       14.419808    0.937463    1.915619
     64          6           0       13.203697    0.858300    2.859493
     65          6           0       13.501961    0.051109    4.197466
     66          6           0       12.078794    0.205999    2.159520
     67          1           0       -1.112583    2.191151    0.756731
     68          1           0       -6.954359    5.047751    0.239028
     69          1           0       -9.764396   -0.620063   -0.259252
     70          1           0       -1.591088   -2.633480    0.765683
     71          1           0       -0.339323   -0.282200   -0.270531
     72          1           0       -0.722786    0.300252    2.449493
     73          1           0        0.666157   -0.227928    1.601182
     74          1           0       -0.276301   -1.442426    2.357631
     75          1           0       -1.033390   -1.590277   -1.897669
     76          1           0       -2.310794   -2.754813   -1.904788
     77          1           0        0.331034   -3.393118   -2.240475
     78          1           0       -0.662595   -4.503299   -1.622932
     79          1           0       -1.352306    5.408642    1.726970
     80          1           0       -1.278616    5.619975   -0.094228
     81          1           0       -0.606861    4.248197    0.762725
     82          1           0       -2.856121    7.542911    0.215076
     83          1           0       -2.957901    7.232606    1.966414
     84          1           0       -3.939643    8.523735    1.285065
     85          1           0       -9.195936    4.118493   -1.008268
     86          1           0      -10.303567    1.854389    0.562031
     87          1           0      -10.691888    3.879952    1.259809
     88          1           0       -9.728390    5.350732    0.774061
     89          1           0       -9.010170    4.056245    1.878981
     90          1           0      -10.068999    1.808068   -2.387817
     91          1           0      -11.058016    3.084572   -1.845279
     92          1           0      -12.843468    1.764587   -1.876210
     93          1           0      -12.243213    1.299098   -0.264233
     94          1           0      -11.986760    0.270696   -1.695404
     95          1           0       -9.462922   -3.498931   -1.213372
     96          1           0       -9.752923   -3.350893    0.614204
     97          1           0       -8.818444   -4.674386    0.008235
     98          1           0       -3.947179   -4.228539   -0.996733
     99          1           0       -2.336613   -6.932531    1.862108
    100          1           0       -1.142106   -5.845206    2.014237
    101          1           0       -1.158962   -6.944152    0.593449
    102          1           0        3.038921   -3.623645    0.836067
    103          1           0        2.843287   -1.874808    1.242656
    104          1           0        3.719695   -1.169072   -0.805852
    105          1           0        5.881413   -4.004088    0.514195
    106          1           0        5.898557   -4.911339   -1.109535
    107          1           0        4.425929   -4.801090   -0.232620
    108          1           0        5.698641   -1.224694   -2.192633
    109          1           0        5.969013   -2.891401   -2.837800
    110          1           0        8.096888   -2.530783   -2.374779
    111          1           0        7.760319   -2.958589   -0.792628
    112          1           0        8.454894   -1.140949    0.030133
    113          1           0        6.992230   -0.430018   -0.514014
    114          1           0        9.044544   -0.278165   -2.741836
    115          1           0        7.627047    2.165917   -1.786149
    116          1           0        6.628096    0.979414   -2.434576
    117          1           0        8.049668    1.581209   -3.349487
    118          1           0       10.469589   -0.077025   -0.636653
    119          1           0        9.626565    1.437302   -0.230142
    120          1           0       10.806337    2.695915   -1.753144
    121          1           0       10.588101    1.472824   -3.051305
    122          1           0       12.740567    0.872476   -2.683503
    123          1           0       12.453893    0.386468   -1.097605
    124          1           0       12.509081    2.990411   -0.461562
    125          1           0       14.328952    3.165296   -2.878521
    126          1           0       13.761873    4.437772   -1.722984
    127          1           0       12.667082    3.658908   -2.850965
    128          1           0       15.406089    2.397514   -0.988192
    129          1           0       14.550446    0.876543   -0.698510
    130          1           0       13.568013    2.707109    1.276625
    131          1           0       15.394595    2.836473    1.302946
    132          1           0       15.351940    0.881515    2.475782
    133          1           0       14.423008    0.086941    1.234128
    134          1           0       12.856179    1.853668    3.134533
    135          1           0       13.305755    0.556323    5.142532
    136          1           0       14.543363   -0.266216    4.148163
    137          1           0       13.064867   -0.947363    4.223921
    138          1           0       11.517593    0.981845    1.639815
    139          1           0       11.336029   -0.078092    2.905938
    140          1           0       12.258414   -0.640473    1.496760
 ---------------------------------------------------------------------

 SCF Done:  E(RZINDO/S) =  -474.289644989     A.U. after   20 cycles

 Excitation energies and oscillator strengths:

 Excited State   1:      Singlet-A      1.2489 eV  992.74 nm  f=0.5938  <S**2>=0.000
     175 ->178         0.18046
     176 ->177         0.66694
 This state for optimization and/or second-order correction.
 Total Energy, E(CIS/TDA) =  -474.243748512
 Copying the excited state density for this state as the 1-particle RhoCI density.

 Excited State   2:      Singlet-A      1.9407 eV  638.87 nm  f=0.0597  <S**2>=0.000
     175 ->177         0.56087
     176 ->178        -0.40187

 Excited State   3:      Singlet-A      2.9818 eV  415.80 nm  f=0.0655  <S**2>=0.000
     168 ->177         0.25807
     168 ->179        -0.40491
     168 ->180         0.24398
     168 ->186         0.21547
     169 ->179         0.10178
     170 ->177        -0.10552
     170 ->179         0.10662
     176 ->178        -0.14588

 Excited State   4:      Singlet-A      3.0100 eV  411.91 nm  f=0.0265  <S**2>=0.000
     171 ->177         0.33473
     171 ->178        -0.14496
     171 ->179         0.26802
     171 ->180         0.39958
     171 ->186        -0.15297
     171 ->189        -0.15326
     171 ->204        -0.10020

 Excited State   5:      Singlet-A      3.0438 eV  407.34 nm  f=0.9593  <S**2>=0.000
     175 ->177         0.34159
     176 ->178         0.50264
     176 ->179        -0.18226
     176 ->180        -0.15027

 The electronic state is 1-A.
 Alpha  occ. eigenvalues --   -1.85124  -1.80988  -1.78855  -1.75649  -1.72938
 Alpha  occ. eigenvalues --   -1.70812  -1.64425  -1.59626  -1.59122  -1.57692
 Alpha  occ. eigenvalues --   -1.55169  -1.50924  -1.47910  -1.47370  -1.46751
 Alpha  occ. eigenvalues --   -1.44689  -1.44181  -1.39873  -1.38571  -1.37872
 Alpha  occ. eigenvalues --   -1.35807  -1.33494  -1.32463  -1.30997  -1.28173
 Alpha  occ. eigenvalues --   -1.26215  -1.24546  -1.21493  -1.20537  -1.18247
 Alpha  occ. eigenvalues --   -1.17470  -1.16141  -1.15383  -1.14939  -1.12099
 Alpha  occ. eigenvalues --   -1.11576  -1.11264  -1.10397  -1.04878  -1.03743
 Alpha  occ. eigenvalues --   -1.03604  -1.01315  -0.99405  -0.98334  -0.97270
 Alpha  occ. eigenvalues --   -0.96792  -0.94333  -0.93517  -0.92453  -0.91199
 Alpha  occ. eigenvalues --   -0.90779  -0.90366  -0.88774  -0.88290  -0.87898
 Alpha  occ. eigenvalues --   -0.85714  -0.84640  -0.83811  -0.82377  -0.80243
 Alpha  occ. eigenvalues --   -0.79947  -0.78996  -0.77405  -0.76903  -0.76227
 Alpha  occ. eigenvalues --   -0.75172  -0.74865  -0.74005  -0.73724  -0.73350
 Alpha  occ. eigenvalues --   -0.72334  -0.72113  -0.72049  -0.71386  -0.71226
 Alpha  occ. eigenvalues --   -0.70066  -0.69670  -0.68693  -0.68107  -0.67329
 Alpha  occ. eigenvalues --   -0.66719  -0.66475  -0.65945  -0.65886  -0.65234
 Alpha  occ. eigenvalues --   -0.64849  -0.64409  -0.64352  -0.64188  -0.63852
 Alpha  occ. eigenvalues --   -0.63471  -0.62814  -0.62321  -0.61902  -0.61723
 Alpha  occ. eigenvalues --   -0.61527  -0.61046  -0.60478  -0.60350  -0.59977
 Alpha  occ. eigenvalues --   -0.59777  -0.59512  -0.58800  -0.58643  -0.58455
 Alpha  occ. eigenvalues --   -0.58191  -0.57875  -0.57644  -0.57255  -0.56990
 Alpha  occ. eigenvalues --   -0.56495  -0.55875  -0.55372  -0.54833  -0.54353
 Alpha  occ. eigenvalues --   -0.54004  -0.53487  -0.52923  -0.52845  -0.52401
 Alpha  occ. eigenvalues --   -0.52056  -0.51932  -0.51688  -0.51416  -0.51321
 Alpha  occ. eigenvalues --   -0.51141  -0.51018  -0.50372  -0.50179  -0.49733
 Alpha  occ. eigenvalues --   -0.49657  -0.49549  -0.49200  -0.48920  -0.48663
 Alpha  occ. eigenvalues --   -0.48539  -0.48330  -0.48055  -0.47589  -0.47553
 Alpha  occ. eigenvalues --   -0.47332  -0.47197  -0.46946  -0.46726  -0.46364
 Alpha  occ. eigenvalues --   -0.46337  -0.46295  -0.46191  -0.45584  -0.45417
 Alpha  occ. eigenvalues --   -0.45337  -0.45102  -0.44861  -0.44814  -0.44448
 Alpha  occ. eigenvalues --   -0.44389  -0.43793  -0.42714  -0.42235  -0.42055
 Alpha  occ. eigenvalues --   -0.41568  -0.41450  -0.40773  -0.38877  -0.38641
 Alpha  occ. eigenvalues --   -0.37554  -0.36928  -0.35695  -0.34763  -0.34465
 Alpha  occ. eigenvalues --   -0.33990  -0.32271  -0.31880  -0.31605  -0.26657
 Alpha  occ. eigenvalues --   -0.21720
 Alpha virt. eigenvalues --   -0.08515  -0.01739   0.00103   0.01675   0.02310
 Alpha virt. eigenvalues --    0.02900   0.03251   0.04126   0.04280   0.04961
 Alpha virt. eigenvalues --    0.06264   0.06669   0.06889   0.07909   0.08108

 Mulliken charges:
               1
     1  Mg   0.426684
     2  C   -0.034493
     3  C   -0.063923
     4  C   -0.085993
     5  C   -0.069145
     6  N   -0.280248
     7  C    0.130398
     8  C    0.005879
     9  C    0.003561
    10  C    0.134708
    11  C   -0.052911
    12  C   -0.013983
    13  C    0.005711
    14  C    0.470900
    15  O   -0.513374
    16  O   -0.266704
    17  N   -0.330941
    18  C    0.101536
    19  C    0.025733
    20  C   -0.022659
    21  C    0.162020
    22  C   -0.043299
    23  C    0.322243
    24  O   -0.519082
    25  C   -0.031404
    26  N   -0.281304
    27  C    0.154879
    28  C   -0.008531
    29  C    0.016253
    30  C    0.118137
    31  C   -0.056980
    32  C   -0.030039
    33  C   -0.057373
    34  N   -0.311311
    35  C    0.082394
    36  C    0.012522
    37  C   -0.053841
    38  C    0.098828
    39  C   -0.037373
    40  C    0.324866
    41  O   -0.531984
    42  C    0.041230
    43  C    0.489952
    44  O   -0.499388
    45  O   -0.271684
    46  C    0.069464
    47  C    0.112605
    48  C   -0.109608
    49  C   -0.012792
    50  C   -0.045542
    51  C   -0.015687
    52  C   -0.032538
    53  C   -0.031460
    54  C   -0.008932
    55  C   -0.061849
    56  C   -0.043081
    57  C   -0.050427
    58  C   -0.037637
    59  C   -0.012252
    60  C   -0.053708
    61  C   -0.045224
    62  C   -0.051979
    63  C   -0.033938
    64  C    0.001179
    65  C   -0.069200
    66  C   -0.051004
    67  H    0.030118
    68  H    0.042955
    69  H    0.010569
    70  H    0.046291
    71  H    0.034291
    72  H    0.022324
    73  H    0.008928
    74  H    0.037930
    75  H    0.016987
    76  H    0.030189
    77  H    0.024118
    78  H    0.042462
    79  H    0.031880
    80  H    0.033427
    81  H    0.024690
    82  H    0.040202
    83  H    0.026294
    84  H    0.049078
    85  H    0.028472
    86  H    0.023116
    87  H    0.026222
    88  H    0.033331
    89  H    0.030623
    90  H    0.023427
    91  H    0.018735
    92  H    0.017202
    93  H    0.022411
    94  H    0.021596
    95  H    0.036994
    96  H    0.026614
    97  H    0.038641
    98  H    0.050705
    99  H    0.026320
   100  H    0.059303
   101  H    0.032800
   102  H    0.053335
   103  H    0.042824
   104  H    0.021160
   105  H    0.040527
   106  H    0.025921
   107  H    0.027613
   108  H    0.026932
   109  H    0.024955
   110  H    0.016710
   111  H    0.013592
   112  H    0.017431
   113  H    0.017789
   114  H    0.026043
   115  H    0.013006
   116  H    0.021369
   117  H    0.015243
   118  H    0.022556
   119  H    0.024680
   120  H    0.023425
   121  H    0.025047
   122  H    0.013489
   123  H    0.018028
   124  H    0.028898
   125  H    0.021375
   126  H    0.016809
   127  H    0.006454
   128  H    0.024604
   129  H    0.021176
   130  H    0.023107
   131  H    0.026509
   132  H    0.011716
   133  H    0.021225
   134  H    0.023971
   135  H    0.027636
   136  H    0.010610
   137  H    0.017861
   138  H    0.006576
   139  H    0.004701
   140  H    0.029000
 Sum of Mulliken charges =  -0.00000

 Dipole moment (field-independent basis, Debye):
    X=              7.2504    Y=              7.0800    Z=             -3.1445  Tot=             10.6104
 N-N= 4.291956875485D+03 E-N= 0.000000000000D+00  KE=-9.258568701370D+03
 Leave Link  601 at Wed May  4 20:15:18 2022, MaxMem=  6710886400 cpu:               0.8 elap:               0.0
 (Enter /sw/apps/gaussian-16.0/g16/l9999.exe)
 1\1\GINC-BP1-COMPUTE196\SP\RZINDO CIS\STO-3G\C55H74Mg1N4O6\OF15641\04-
 May-2022\0\\#p ZINDO=(nstates=5)\\step_351_chromophore_3 ZINDO\\0,1\Mg
 ,0,1.668,7.778,25.792\C,0,2.146,9.833,28.554\C,0,2.554,5.063,28.059\C,
 0,1.597,5.661,23.243\C,0,1.579,10.458,23.753\N,0,2.098,7.545,28.081\C,
 0,2.158,8.522,28.971\C,0,2.262,8.022,30.383\C,0,2.614,6.49,30.217\C,0,
 2.446,6.327,28.694\C,0,4.016,6.018,30.715\C,0,0.95,8.309,31.183\C,0,1.
 071,8.579,32.677\C,0,2.292,8.001,33.45\O,0,3.277,8.609,33.788\O,0,2.14

 Normal termination of Gaussian 16 at Wed May  4 20:15:18 2022.
