 Gaussian 16, Revision A.03,
 Gaussian 16:  ES64L-G16RevA.03 25-Dec-2016

 ------------------------------
 #p blyp/Def2SVP td=(nstates=5)
 ------------------------------

 --------------------------------------------------
 step_751_chromophore_12 TDDFT with blyp functional
 --------------------------------------------------
 Symbolic Z-matrix:
 Charge =  0 Multiplicity = 1

                         Standard orientation:
 ---------------------------------------------------------------------
 Center     Atomic      Atomic             Coordinates (Angstroms)
 Number     Number       Type             X           Y           Z
 ---------------------------------------------------------------------
      1         12           0       -4.052556    0.330053   -0.592160
      2          6           0       -3.314233   -2.821467    0.444853
      3          6           0       -0.823570    1.199091   -0.375640
      4          6           0       -4.993260    3.739318   -0.613139
      5          6           0       -7.482087   -0.395783   -0.180138
      6          7           0       -2.322736   -0.676322    0.069621
      7          6           0       -2.208543   -2.001536    0.262216
      8          6           0       -0.741709   -2.510992    0.189237
      9          6           0        0.070796   -1.155989    0.210635
     10          6           0       -1.054511   -0.143522   -0.124478
     11          6           0        0.875895   -0.804305    1.509543
     12          6           0       -0.378347   -3.288529   -1.086160
     13          6           0        0.878902   -4.224427   -0.771280
     14          6           0        1.989476   -4.377800   -1.866542
     15          8           0        1.830762   -4.409131   -3.068691
     16          8           0        3.298481   -4.244024   -1.296664
     17          7           0       -3.122554    2.153379   -0.645746
     18          6           0       -1.737132    2.275376   -0.618354
     19          6           0       -1.327867    3.656087   -0.737473
     20          6           0       -2.545533    4.443785   -0.796082
     21          6           0       -3.646656    3.436543   -0.706341
     22          6           0        0.047574    4.133184   -0.868796
     23          6           0       -2.700927    5.898008   -0.900115
     24          8           0       -3.766461    6.493668   -0.973669
     25          6           0       -1.519167    6.910529   -0.800574
     26          7           0       -6.004978    1.525015   -0.552952
     27          6           0       -6.089480    2.865337   -0.562418
     28          6           0       -7.515502    3.366574   -0.610352
     29          6           0       -8.324784    2.024363   -0.600782
     30          6           0       -7.210680    0.989097   -0.534861
     31          6           0       -7.907331    4.329276    0.568856
     32          6           0       -9.345143    1.843843   -1.782852
     33          6           0      -10.827893    1.789076   -1.477521
     34          7           0       -5.224574   -1.298866    0.057148
     35          6           0       -6.590939   -1.430188    0.136282
     36          6           0       -6.843702   -2.787948    0.603575
     37          6           0       -5.607425   -3.434573    0.672631
     38          6           0       -4.663057   -2.418908    0.433197
     39          6           0       -8.281893   -3.323394    0.958923
     40          6           0       -4.818822   -4.604033    1.107367
     41          8           0       -5.061421   -5.657267    1.662104
     42          6           0       -3.286108   -4.233549    0.923988
     43          6           0       -2.554543   -4.607078    2.132846
     44          8           0       -2.458362   -3.982827    3.230186
     45          8           0       -1.843283   -5.764172    1.854099
     46          6           0       -1.102956   -6.391676    2.913526
     47          6           0        4.418123   -4.136548   -2.248480
     48          6           0        5.797775   -4.203989   -1.465019
     49          6           0        6.998732   -3.734867   -1.866615
     50          6           0        7.309483   -2.986610   -3.154231
     51          6           0        8.198880   -3.738435   -0.913352
     52          6           0        8.276561   -2.375558   -0.148403
     53          6           0        9.739221   -1.726012   -0.202965
     54          6           0        9.765040   -0.248504   -0.609337
     55          6           0       10.636327   -0.024895   -1.859504
     56          6           0       10.215637    0.673809    0.571714
     57          6           0        8.971093    1.138966    1.439855
     58          6           0        8.979157    2.673005    1.603628
     59          6           0        7.988248    3.474947    0.721294
     60          6           0        8.492719    3.746430   -0.715692
     61          6           0        7.655716    4.767965    1.406496
     62          6           0        6.494896    4.522577    2.350264
     63          6           0        5.071818    4.907524    1.780820
     64          6           0        4.055513    3.763262    1.911066
     65          6           0        3.069971    3.645966    0.706007
     66          6           0        3.255175    3.850134    3.200691
     67          1           0        0.237066    1.450459   -0.438415
     68          1           0       -5.269301    4.786876   -0.750996
     69          1           0       -8.538113   -0.652838   -0.080263
     70          1           0       -0.501996   -3.108209    1.069436
     71          1           0        0.813279   -1.104271   -0.584840
     72          1           0        0.175322   -0.736356    2.341904
     73          1           0        1.353322    0.166887    1.373621
     74          1           0        1.689320   -1.529307    1.554158
     75          1           0       -0.159910   -2.673964   -1.959649
     76          1           0       -1.168121   -3.970240   -1.402850
     77          1           0        0.505229   -5.155629   -0.346052
     78          1           0        1.495072   -3.750278   -0.007080
     79          1           0        0.310163    4.741569   -0.004321
     80          1           0       -0.069427    4.712733   -1.784820
     81          1           0        0.688269    3.263153   -1.014067
     82          1           0       -1.942367    7.915226   -0.797690
     83          1           0       -1.004582    6.838905   -1.759475
     84          1           0       -0.720185    6.740911   -0.078723
     85          1           0       -7.676855    4.023203   -1.465733
     86          1           0       -9.027183    1.964513    0.231081
     87          1           0       -7.168188    4.418940    1.365762
     88          1           0       -8.867007    4.067562    1.013514
     89          1           0       -7.940059    5.314103    0.103767
     90          1           0       -9.162200    0.922435   -2.336057
     91          1           0       -9.132292    2.645477   -2.489743
     92          1           0      -11.309290    2.294955   -2.313638
     93          1           0      -10.993068    2.126450   -0.454010
     94          1           0      -11.277549    0.806861   -1.626524
     95          1           0       -8.887324   -3.431969    0.059137
     96          1           0       -8.835287   -2.610730    1.570086
     97          1           0       -8.317373   -4.317843    1.404084
     98          1           0       -2.954426   -4.905447    0.133089
     99          1           0       -1.711852   -6.310309    3.814020
    100          1           0       -0.133595   -5.896289    2.973678
    101          1           0       -0.828107   -7.432347    2.742182
    102          1           0        4.338055   -3.181508   -2.767834
    103          1           0        4.327920   -5.003489   -2.903067
    104          1           0        5.721010   -4.461719   -0.409305
    105          1           0        7.571571   -1.939232   -3.000130
    106          1           0        6.457579   -3.064149   -3.830228
    107          1           0        8.099223   -3.487537   -3.714856
    108          1           0        9.143757   -3.782650   -1.453854
    109          1           0        8.223855   -4.540677   -0.174834
    110          1           0        7.944670   -2.511510    0.880102
    111          1           0        7.679697   -1.634314   -0.680479
    112          1           0       10.346807   -2.339111   -0.868642
    113          1           0       10.140197   -1.935354    0.789413
    114          1           0        8.763011    0.019012   -0.947045
    115          1           0       11.709965    0.093455   -1.713882
    116          1           0       10.160539    0.798601   -2.392718
    117          1           0       10.364273   -0.886687   -2.470331
    118          1           0       10.758863    1.504964    0.123345
    119          1           0       10.985860    0.223220    1.197324
    120          1           0        9.068698    0.675810    2.421065
    121          1           0        8.057993    0.710755    1.026704
    122          1           0        9.938839    3.104450    1.320975
    123          1           0        8.883064    2.936258    2.656411
    124          1           0        6.968124    3.094652    0.669324
    125          1           0        9.107548    2.913283   -1.058698
    126          1           0        9.157873    4.609499   -0.676041
    127          1           0        7.681974    3.909311   -1.424688
    128          1           0        7.330457    5.502807    0.670746
    129          1           0        8.529390    5.123949    1.952880
    130          1           0        6.661257    5.230849    3.162924
    131          1           0        6.509945    3.557777    2.857358
    132          1           0        5.122073    5.253491    0.748800
    133          1           0        4.874163    5.758770    2.433156
    134          1           0        4.623670    2.833720    1.898029
    135          1           0        3.276083    2.760597    0.104828
    136          1           0        3.028030    4.477239    0.001406
    137          1           0        2.017381    3.532751    0.965081
    138          1           0        3.212990    4.856258    3.618264
    139          1           0        3.804500    3.208271    3.889542
    140          1           0        2.240969    3.492185    3.022786
 ---------------------------------------------------------------------

 SCF Done:  E(RB-LYP) =  -3007.38902184     A.U. after   21 cycles

 Excitation energies and oscillator strengths:

 Excited State   1:      Singlet-A      1.7857 eV  694.32 nm  f=0.0482  <S**2>=0.000
     244 -> 247        0.64110
     246 -> 247        0.28444
 This state for optimization and/or second-order correction.
 Total Energy, E(TD-HF/TD-DFT) =  -3007.32339854
 Copying the excited state density for this state as the 1-particle RhoCI density.

 Excited State   2:      Singlet-A      1.8181 eV  681.93 nm  f=0.2479  <S**2>=0.000
     244 -> 247       -0.29469
     245 -> 248       -0.18218
     246 -> 247        0.61984
     246 <- 247       -0.12932

 Excited State   3:      Singlet-A      1.9979 eV  620.56 nm  f=0.0643  <S**2>=0.000
     243 -> 247        0.25693
     245 -> 247        0.60703
     246 -> 248        0.21552

 Excited State   4:      Singlet-A      2.1048 eV  589.04 nm  f=0.0130  <S**2>=0.000
     243 -> 247        0.65359
     245 -> 247       -0.22350
     246 -> 248       -0.12047

 Excited State   5:      Singlet-A      2.4223 eV  511.84 nm  f=0.0000  <S**2>=0.000
     242 -> 247        0.70705

 The electronic state is 1-A.
 Alpha  occ. eigenvalues --  -46.27820 -18.82022 -18.81504 -18.77759 -18.76477
 Alpha  occ. eigenvalues --  -18.76239 -18.74962 -14.03582 -14.03191 -14.01624
 Alpha  occ. eigenvalues --  -14.00863 -10.04888 -10.04087 -10.00453  -9.99512
 Alpha  occ. eigenvalues --   -9.98516  -9.97441  -9.96855  -9.96675  -9.96572
 Alpha  occ. eigenvalues --   -9.95998  -9.95966  -9.95948  -9.95764  -9.94737
 Alpha  occ. eigenvalues --   -9.94674  -9.94621  -9.94525  -9.94466  -9.94214
 Alpha  occ. eigenvalues --   -9.93984  -9.93845  -9.93783  -9.93524  -9.93426
 Alpha  occ. eigenvalues --   -9.93367  -9.93077  -9.93052  -9.92972  -9.92918
 Alpha  occ. eigenvalues --   -9.92845  -9.92800  -9.92751  -9.92517  -9.92461
 Alpha  occ. eigenvalues --   -9.92312  -9.92118  -9.92112  -9.92062  -9.92044
 Alpha  occ. eigenvalues --   -9.91976  -9.91883  -9.91716  -9.91659  -9.91490
 Alpha  occ. eigenvalues --   -9.91479  -9.91424  -9.91395  -9.91331  -9.91191
 Alpha  occ. eigenvalues --   -9.91169  -9.91157  -9.91008  -9.90899  -9.90865
 Alpha  occ. eigenvalues --   -9.90470  -2.92461  -1.72858  -1.72344  -1.72186
 Alpha  occ. eigenvalues --   -0.96929  -0.96757  -0.92236  -0.91342  -0.89694
 Alpha  occ. eigenvalues --   -0.88001  -0.87703  -0.87138  -0.86123  -0.84429
 Alpha  occ. eigenvalues --   -0.75814  -0.73905  -0.73358  -0.72999  -0.72371
 Alpha  occ. eigenvalues --   -0.72116  -0.72042  -0.71312  -0.71026  -0.70884
 Alpha  occ. eigenvalues --   -0.69627  -0.68756  -0.68149  -0.67832  -0.67315
 Alpha  occ. eigenvalues --   -0.66465  -0.65733  -0.65278  -0.64759  -0.64356
 Alpha  occ. eigenvalues --   -0.63837  -0.62707  -0.62498  -0.61943  -0.60839
 Alpha  occ. eigenvalues --   -0.60513  -0.60469  -0.60140  -0.60001  -0.59175
 Alpha  occ. eigenvalues --   -0.58307  -0.57793  -0.57014  -0.55721  -0.54532
 Alpha  occ. eigenvalues --   -0.54084  -0.53879  -0.53282  -0.52402  -0.51812
 Alpha  occ. eigenvalues --   -0.51777  -0.51588  -0.51038  -0.50573  -0.50095
 Alpha  occ. eigenvalues --   -0.49751  -0.48960  -0.48834  -0.48444  -0.46616
 Alpha  occ. eigenvalues --   -0.46391  -0.46110  -0.45831  -0.45571  -0.44794
 Alpha  occ. eigenvalues --   -0.44267  -0.43661  -0.43236  -0.42763  -0.42472
 Alpha  occ. eigenvalues --   -0.41919  -0.41655  -0.41647  -0.41456  -0.41102
 Alpha  occ. eigenvalues --   -0.40981  -0.40759  -0.40393  -0.40342  -0.40151
 Alpha  occ. eigenvalues --   -0.40069  -0.40047  -0.39779  -0.39573  -0.39182
 Alpha  occ. eigenvalues --   -0.39168  -0.39060  -0.39019  -0.38420  -0.38183
 Alpha  occ. eigenvalues --   -0.38096  -0.37993  -0.37768  -0.37473  -0.37235
 Alpha  occ. eigenvalues --   -0.37071  -0.36994  -0.36774  -0.36655  -0.36607
 Alpha  occ. eigenvalues --   -0.36483  -0.36109  -0.36048  -0.36037  -0.35960
 Alpha  occ. eigenvalues --   -0.35536  -0.35422  -0.35149  -0.35057  -0.34765
 Alpha  occ. eigenvalues --   -0.34664  -0.34546  -0.34383  -0.34350  -0.33992
 Alpha  occ. eigenvalues --   -0.33872  -0.33693  -0.33653  -0.33550  -0.33383
 Alpha  occ. eigenvalues --   -0.33265  -0.33200  -0.33124  -0.32877  -0.32421
 Alpha  occ. eigenvalues --   -0.32290  -0.32114  -0.31921  -0.31823  -0.31628
 Alpha  occ. eigenvalues --   -0.31441  -0.31324  -0.31070  -0.30962  -0.30711
 Alpha  occ. eigenvalues --   -0.30482  -0.30288  -0.30257  -0.30075  -0.29909
 Alpha  occ. eigenvalues --   -0.29785  -0.29668  -0.29570  -0.29303  -0.29154
 Alpha  occ. eigenvalues --   -0.28876  -0.28835  -0.28700  -0.28168  -0.28124
 Alpha  occ. eigenvalues --   -0.27711  -0.27654  -0.27137  -0.27014  -0.26682
 Alpha  occ. eigenvalues --   -0.26427  -0.26388  -0.26044  -0.25813  -0.25581
 Alpha  occ. eigenvalues --   -0.25212  -0.25119  -0.24512  -0.24226  -0.23802
 Alpha  occ. eigenvalues --   -0.23698  -0.22309  -0.22249  -0.21395  -0.21210
 Alpha  occ. eigenvalues --   -0.20608  -0.20527  -0.19167  -0.18128  -0.17383
 Alpha  occ. eigenvalues --   -0.16000
 Alpha virt. eigenvalues --   -0.11625  -0.07472  -0.05946  -0.04705  -0.03944
 Alpha virt. eigenvalues --   -0.03814  -0.03475  -0.02143  -0.01774   0.00241
 Alpha virt. eigenvalues --    0.00842   0.01270   0.01957   0.02212   0.02586

 Mulliken charges:
               1
     1  Mg   0.712947
     2  C    0.042381
     3  C   -0.080749
     4  C   -0.054502
     5  C   -0.075705
     6  N   -0.250330
     7  C   -0.050125
     8  C    0.023051
     9  C   -0.006669
    10  C    0.028511
    11  C    0.131476
    12  C    0.140015
    13  C    0.049213
    14  C    0.109845
    15  O   -0.175225
    16  O   -0.322057
    17  N   -0.310854
    18  C    0.168416
    19  C   -0.188551
    20  C    0.078952
    21  C    0.113437
    22  C    0.196880
    23  C   -0.114477
    24  O   -0.170297
    25  C    0.123821
    26  N   -0.130662
    27  C   -0.000011
    28  C    0.008818
    29  C    0.036050
    30  C    0.020298
    31  C    0.102985
    32  C    0.063847
    33  C    0.077827
    34  N   -0.223716
    35  C    0.115941
    36  C   -0.163339
    37  C    0.072741
    38  C    0.006156
    39  C    0.154100
    40  C   -0.038530
    41  O   -0.113416
    42  C    0.093536
    43  C    0.126176
    44  O   -0.219813
    45  O   -0.279955
    46  C    0.222751
    47  C    0.297968
    48  C   -0.083190
    49  C   -0.142082
    50  C    0.129691
    51  C    0.145416
    52  C    0.023049
    53  C    0.104744
    54  C   -0.094949
    55  C    0.112943
    56  C    0.094077
    57  C    0.118149
    58  C    0.094383
    59  C   -0.080334
    60  C    0.113340
    61  C    0.121732
    62  C    0.036148
    63  C    0.120380
    64  C   -0.072779
    65  C    0.050063
    66  C    0.113287
    67  H   -0.068325
    68  H   -0.047074
    69  H   -0.063937
    70  H   -0.010798
    71  H   -0.031475
    72  H    0.016191
    73  H   -0.013184
    74  H    0.000506
    75  H   -0.011467
    76  H   -0.015417
    77  H    0.023829
    78  H    0.001188
    79  H    0.032939
    80  H    0.006548
    81  H   -0.004501
    82  H   -0.006625
    83  H   -0.016692
    84  H   -0.004144
    85  H   -0.008802
    86  H   -0.028642
    87  H   -0.000538
    88  H   -0.006103
    89  H   -0.004708
    90  H   -0.026906
    91  H   -0.027730
    92  H   -0.012445
    93  H   -0.000159
    94  H   -0.014741
    95  H   -0.007963
    96  H   -0.000291
    97  H    0.006244
    98  H   -0.003722
    99  H    0.026168
   100  H    0.000415
   101  H    0.010499
   102  H    0.009143
   103  H    0.011128
   104  H   -0.028091
   105  H    0.011687
   106  H   -0.019824
   107  H   -0.004032
   108  H   -0.039945
   109  H   -0.025209
   110  H   -0.013587
   111  H   -0.019900
   112  H   -0.039761
   113  H   -0.037479
   114  H   -0.036145
   115  H    0.003085
   116  H   -0.022073
   117  H   -0.031368
   118  H   -0.037647
   119  H   -0.033849
   120  H   -0.038571
   121  H   -0.021830
   122  H   -0.034973
   123  H   -0.038445
   124  H   -0.045411
   125  H   -0.021866
   126  H   -0.019073
   127  H   -0.013844
   128  H   -0.044751
   129  H   -0.046310
   130  H   -0.050979
   131  H   -0.027742
   132  H   -0.029752
   133  H   -0.026812
   134  H   -0.027986
   135  H   -0.020657
   136  H   -0.012625
   137  H   -0.025030
   138  H   -0.012204
   139  H   -0.015608
   140  H   -0.013024
 Sum of Mulliken charges =  -0.00000

 Dipole moment (field-independent basis, Debye):
    X=              3.0129    Y=              1.3861    Z=             -2.0341  Tot=              3.8905
 Quadrupole moment (field-independent basis, Debye-Ang):
   XX=           -362.0230   YY=           -437.8128   ZZ=           -417.5197
   XY=             -9.2046   XZ=             17.9406   YZ=              1.6901

 Normal termination of Gaussian 16 at Thu May  5 08:19:50 2022.
