 Gaussian 16, Revision A.03,
 Gaussian 16:  ES64L-G16RevA.03 25-Dec-2016

 -----------------------------------
 #p cam-b3lyp/Def2SVP td=(nstates=5)
 -----------------------------------

 -------------------------------------------------------
 step_751_chromophore_12 TDDFT with cam-b3lyp functional
 -------------------------------------------------------
 Symbolic Z-matrix:
 Charge =  0 Multiplicity = 1

                         Standard orientation:
 ---------------------------------------------------------------------
 Center     Atomic      Atomic             Coordinates (Angstroms)
 Number     Number       Type             X           Y           Z
 ---------------------------------------------------------------------
      1         12           0       -4.052556    0.330053   -0.592160
      2          6           0       -3.314233   -2.821467    0.444853
      3          6           0       -0.823570    1.199091   -0.375640
      4          6           0       -4.993260    3.739318   -0.613139
      5          6           0       -7.482087   -0.395783   -0.180138
      6          7           0       -2.322736   -0.676322    0.069621
      7          6           0       -2.208543   -2.001536    0.262216
      8          6           0       -0.741709   -2.510992    0.189237
      9          6           0        0.070796   -1.155989    0.210635
     10          6           0       -1.054511   -0.143522   -0.124478
     11          6           0        0.875895   -0.804305    1.509543
     12          6           0       -0.378347   -3.288529   -1.086160
     13          6           0        0.878902   -4.224427   -0.771280
     14          6           0        1.989476   -4.377800   -1.866542
     15          8           0        1.830762   -4.409131   -3.068691
     16          8           0        3.298481   -4.244024   -1.296664
     17          7           0       -3.122554    2.153379   -0.645746
     18          6           0       -1.737132    2.275376   -0.618354
     19          6           0       -1.327867    3.656087   -0.737473
     20          6           0       -2.545533    4.443785   -0.796082
     21          6           0       -3.646656    3.436543   -0.706341
     22          6           0        0.047574    4.133184   -0.868796
     23          6           0       -2.700927    5.898008   -0.900115
     24          8           0       -3.766461    6.493668   -0.973669
     25          6           0       -1.519167    6.910529   -0.800574
     26          7           0       -6.004978    1.525015   -0.552952
     27          6           0       -6.089480    2.865337   -0.562418
     28          6           0       -7.515502    3.366574   -0.610352
     29          6           0       -8.324784    2.024363   -0.600782
     30          6           0       -7.210680    0.989097   -0.534861
     31          6           0       -7.907331    4.329276    0.568856
     32          6           0       -9.345143    1.843843   -1.782852
     33          6           0      -10.827893    1.789076   -1.477521
     34          7           0       -5.224574   -1.298866    0.057148
     35          6           0       -6.590939   -1.430188    0.136282
     36          6           0       -6.843702   -2.787948    0.603575
     37          6           0       -5.607425   -3.434573    0.672631
     38          6           0       -4.663057   -2.418908    0.433197
     39          6           0       -8.281893   -3.323394    0.958923
     40          6           0       -4.818822   -4.604033    1.107367
     41          8           0       -5.061421   -5.657267    1.662104
     42          6           0       -3.286108   -4.233549    0.923988
     43          6           0       -2.554543   -4.607078    2.132846
     44          8           0       -2.458362   -3.982827    3.230186
     45          8           0       -1.843283   -5.764172    1.854099
     46          6           0       -1.102956   -6.391676    2.913526
     47          6           0        4.418123   -4.136548   -2.248480
     48          6           0        5.797775   -4.203989   -1.465019
     49          6           0        6.998732   -3.734867   -1.866615
     50          6           0        7.309483   -2.986610   -3.154231
     51          6           0        8.198880   -3.738435   -0.913352
     52          6           0        8.276561   -2.375558   -0.148403
     53          6           0        9.739221   -1.726012   -0.202965
     54          6           0        9.765040   -0.248504   -0.609337
     55          6           0       10.636327   -0.024895   -1.859504
     56          6           0       10.215637    0.673809    0.571714
     57          6           0        8.971093    1.138966    1.439855
     58          6           0        8.979157    2.673005    1.603628
     59          6           0        7.988248    3.474947    0.721294
     60          6           0        8.492719    3.746430   -0.715692
     61          6           0        7.655716    4.767965    1.406496
     62          6           0        6.494896    4.522577    2.350264
     63          6           0        5.071818    4.907524    1.780820
     64          6           0        4.055513    3.763262    1.911066
     65          6           0        3.069971    3.645966    0.706007
     66          6           0        3.255175    3.850134    3.200691
     67          1           0        0.237066    1.450459   -0.438415
     68          1           0       -5.269301    4.786876   -0.750996
     69          1           0       -8.538113   -0.652838   -0.080263
     70          1           0       -0.501996   -3.108209    1.069436
     71          1           0        0.813279   -1.104271   -0.584840
     72          1           0        0.175322   -0.736356    2.341904
     73          1           0        1.353322    0.166887    1.373621
     74          1           0        1.689320   -1.529307    1.554158
     75          1           0       -0.159910   -2.673964   -1.959649
     76          1           0       -1.168121   -3.970240   -1.402850
     77          1           0        0.505229   -5.155629   -0.346052
     78          1           0        1.495072   -3.750278   -0.007080
     79          1           0        0.310163    4.741569   -0.004321
     80          1           0       -0.069427    4.712733   -1.784820
     81          1           0        0.688269    3.263153   -1.014067
     82          1           0       -1.942367    7.915226   -0.797690
     83          1           0       -1.004582    6.838905   -1.759475
     84          1           0       -0.720185    6.740911   -0.078723
     85          1           0       -7.676855    4.023203   -1.465733
     86          1           0       -9.027183    1.964513    0.231081
     87          1           0       -7.168188    4.418940    1.365762
     88          1           0       -8.867007    4.067562    1.013514
     89          1           0       -7.940059    5.314103    0.103767
     90          1           0       -9.162200    0.922435   -2.336057
     91          1           0       -9.132292    2.645477   -2.489743
     92          1           0      -11.309290    2.294955   -2.313638
     93          1           0      -10.993068    2.126450   -0.454010
     94          1           0      -11.277549    0.806861   -1.626524
     95          1           0       -8.887324   -3.431969    0.059137
     96          1           0       -8.835287   -2.610730    1.570086
     97          1           0       -8.317373   -4.317843    1.404084
     98          1           0       -2.954426   -4.905447    0.133089
     99          1           0       -1.711852   -6.310309    3.814020
    100          1           0       -0.133595   -5.896289    2.973678
    101          1           0       -0.828107   -7.432347    2.742182
    102          1           0        4.338055   -3.181508   -2.767834
    103          1           0        4.327920   -5.003489   -2.903067
    104          1           0        5.721010   -4.461719   -0.409305
    105          1           0        7.571571   -1.939232   -3.000130
    106          1           0        6.457579   -3.064149   -3.830228
    107          1           0        8.099223   -3.487537   -3.714856
    108          1           0        9.143757   -3.782650   -1.453854
    109          1           0        8.223855   -4.540677   -0.174834
    110          1           0        7.944670   -2.511510    0.880102
    111          1           0        7.679697   -1.634314   -0.680479
    112          1           0       10.346807   -2.339111   -0.868642
    113          1           0       10.140197   -1.935354    0.789413
    114          1           0        8.763011    0.019012   -0.947045
    115          1           0       11.709965    0.093455   -1.713882
    116          1           0       10.160539    0.798601   -2.392718
    117          1           0       10.364273   -0.886687   -2.470331
    118          1           0       10.758863    1.504964    0.123345
    119          1           0       10.985860    0.223220    1.197324
    120          1           0        9.068698    0.675810    2.421065
    121          1           0        8.057993    0.710755    1.026704
    122          1           0        9.938839    3.104450    1.320975
    123          1           0        8.883064    2.936258    2.656411
    124          1           0        6.968124    3.094652    0.669324
    125          1           0        9.107548    2.913283   -1.058698
    126          1           0        9.157873    4.609499   -0.676041
    127          1           0        7.681974    3.909311   -1.424688
    128          1           0        7.330457    5.502807    0.670746
    129          1           0        8.529390    5.123949    1.952880
    130          1           0        6.661257    5.230849    3.162924
    131          1           0        6.509945    3.557777    2.857358
    132          1           0        5.122073    5.253491    0.748800
    133          1           0        4.874163    5.758770    2.433156
    134          1           0        4.623670    2.833720    1.898029
    135          1           0        3.276083    2.760597    0.104828
    136          1           0        3.028030    4.477239    0.001406
    137          1           0        2.017381    3.532751    0.965081
    138          1           0        3.212990    4.856258    3.618264
    139          1           0        3.804500    3.208271    3.889542
    140          1           0        2.240969    3.492185    3.022786
 ---------------------------------------------------------------------

 SCF Done:  E(RCAM-B3LYP) =  -3007.18029159     A.U. after   19 cycles

 Excitation energies and oscillator strengths:

 Excited State   1:      Singlet-A      1.7210 eV  720.42 nm  f=0.3853  <S**2>=0.000
     245 -> 248       -0.18371
     246 -> 247        0.68246
     245 <- 248       -0.10489
 This state for optimization and/or second-order correction.
 Total Energy, E(TD-HF/TD-DFT) =  -3007.11704633
 Copying the excited state density for this state as the 1-particle RhoCI density.

 Excited State   2:      Singlet-A      2.2395 eV  553.62 nm  f=0.0921  <S**2>=0.000
     245 -> 247        0.63143
     246 -> 248        0.30280

 Excited State   3:      Singlet-A      3.4282 eV  361.66 nm  f=0.5418  <S**2>=0.000
     241 -> 247       -0.26610
     245 -> 247       -0.26228
     246 -> 248        0.58263

 Excited State   4:      Singlet-A      3.4848 eV  355.78 nm  f=0.0073  <S**2>=0.000
     241 -> 247       -0.16956
     242 -> 247        0.36802
     242 -> 248        0.18308
     242 -> 249       -0.17869
     242 -> 251        0.20166
     244 -> 247        0.43673

 Excited State   5:      Singlet-A      3.5076 eV  353.47 nm  f=0.0247  <S**2>=0.000
     241 -> 247       -0.18646
     242 -> 247       -0.41238
     242 -> 248       -0.11674
     242 -> 249        0.11301
     242 -> 251       -0.13637
     244 -> 247        0.41375
     246 -> 248       -0.13020

 The electronic state is 1-A.
 Alpha  occ. eigenvalues --  -46.89390 -19.24999 -19.24332 -19.20867 -19.19666
 Alpha  occ. eigenvalues --  -19.19633 -19.18074 -14.42286 -14.42194 -14.40099
 Alpha  occ. eigenvalues --  -14.39295 -10.40361 -10.39724 -10.35986 -10.34647
 Alpha  occ. eigenvalues --  -10.32591 -10.31409 -10.31331 -10.31289 -10.30930
 Alpha  occ. eigenvalues --  -10.30207 -10.30192 -10.30186 -10.30135 -10.29467
 Alpha  occ. eigenvalues --  -10.28913 -10.28853 -10.28775 -10.28503 -10.28402
 Alpha  occ. eigenvalues --  -10.28189 -10.27832 -10.27786 -10.27744 -10.27660
 Alpha  occ. eigenvalues --  -10.27637 -10.27024 -10.27013 -10.26988 -10.26844
 Alpha  occ. eigenvalues --  -10.26828 -10.26561 -10.26534 -10.26422 -10.26208
 Alpha  occ. eigenvalues --  -10.26172 -10.26014 -10.25857 -10.25843 -10.25841
 Alpha  occ. eigenvalues --  -10.25676 -10.25674 -10.25670 -10.25557 -10.25319
 Alpha  occ. eigenvalues --  -10.25141 -10.25113 -10.25064 -10.25030 -10.24859
 Alpha  occ. eigenvalues --  -10.24830 -10.24790 -10.24608 -10.24562 -10.24422
 Alpha  occ. eigenvalues --  -10.24086  -3.17931  -1.92804  -1.92379  -1.92245
 Alpha  occ. eigenvalues --   -1.15444  -1.15250  -1.10869  -1.09676  -1.07510
 Alpha  occ. eigenvalues --   -1.05976  -1.05538  -1.04890  -1.03725  -1.01818
 Alpha  occ. eigenvalues --   -0.93033  -0.90773  -0.90197  -0.89778  -0.89086
 Alpha  occ. eigenvalues --   -0.88757  -0.88716  -0.87906  -0.87623  -0.87462
 Alpha  occ. eigenvalues --   -0.86246  -0.85102  -0.84401  -0.84038  -0.83422
 Alpha  occ. eigenvalues --   -0.82491  -0.81758  -0.81159  -0.80621  -0.80140
 Alpha  occ. eigenvalues --   -0.79765  -0.78461  -0.78107  -0.77483  -0.76282
 Alpha  occ. eigenvalues --   -0.75885  -0.75813  -0.75425  -0.75323  -0.74395
 Alpha  occ. eigenvalues --   -0.73381  -0.72803  -0.71920  -0.70493  -0.69115
 Alpha  occ. eigenvalues --   -0.68752  -0.68460  -0.67741  -0.66772  -0.66074
 Alpha  occ. eigenvalues --   -0.65891  -0.65683  -0.65078  -0.64644  -0.64118
 Alpha  occ. eigenvalues --   -0.63734  -0.62858  -0.62562  -0.62154  -0.60323
 Alpha  occ. eigenvalues --   -0.59971  -0.59573  -0.59217  -0.58977  -0.58357
 Alpha  occ. eigenvalues --   -0.57777  -0.56954  -0.56385  -0.56123  -0.55668
 Alpha  occ. eigenvalues --   -0.54979  -0.54780  -0.54556  -0.54320  -0.54060
 Alpha  occ. eigenvalues --   -0.53836  -0.53620  -0.53251  -0.53199  -0.52897
 Alpha  occ. eigenvalues --   -0.52744  -0.52687  -0.52310  -0.52222  -0.51867
 Alpha  occ. eigenvalues --   -0.51706  -0.51587  -0.51404  -0.51035  -0.50623
 Alpha  occ. eigenvalues --   -0.50414  -0.50353  -0.50190  -0.49709  -0.49573
 Alpha  occ. eigenvalues --   -0.49395  -0.49280  -0.49167  -0.48995  -0.48920
 Alpha  occ. eigenvalues --   -0.48723  -0.48622  -0.48524  -0.48198  -0.48103
 Alpha  occ. eigenvalues --   -0.47870  -0.47496  -0.47220  -0.46965  -0.46679
 Alpha  occ. eigenvalues --   -0.46552  -0.46447  -0.46282  -0.46144  -0.45878
 Alpha  occ. eigenvalues --   -0.45769  -0.45637  -0.45402  -0.45198  -0.45043
 Alpha  occ. eigenvalues --   -0.44947  -0.44917  -0.44696  -0.44427  -0.44326
 Alpha  occ. eigenvalues --   -0.44000  -0.43742  -0.43540  -0.43375  -0.43295
 Alpha  occ. eigenvalues --   -0.42867  -0.42787  -0.42631  -0.42270  -0.41932
 Alpha  occ. eigenvalues --   -0.41801  -0.41724  -0.41578  -0.41358  -0.41227
 Alpha  occ. eigenvalues --   -0.41215  -0.41107  -0.40828  -0.40700  -0.40490
 Alpha  occ. eigenvalues --   -0.40051  -0.39861  -0.39790  -0.39082  -0.39030
 Alpha  occ. eigenvalues --   -0.38712  -0.38507  -0.37969  -0.37936  -0.37821
 Alpha  occ. eigenvalues --   -0.37086  -0.37032  -0.36870  -0.36819  -0.36395
 Alpha  occ. eigenvalues --   -0.36154  -0.36021  -0.35762  -0.34733  -0.34369
 Alpha  occ. eigenvalues --   -0.34218  -0.34135  -0.33430  -0.31546  -0.31309
 Alpha  occ. eigenvalues --   -0.30556  -0.30330  -0.30165  -0.29801  -0.24124
 Alpha  occ. eigenvalues --   -0.21277
 Alpha virt. eigenvalues --   -0.08670  -0.02341   0.00402   0.01230   0.02276
 Alpha virt. eigenvalues --    0.03934   0.04015   0.05338   0.05516   0.06662
 Alpha virt. eigenvalues --    0.07541   0.08043   0.08098   0.08673   0.08818

 Mulliken charges:
               1
     1  Mg   0.842347
     2  C    0.010508
     3  C   -0.093302
     4  C   -0.063835
     5  C   -0.077912
     6  N   -0.324559
     7  C   -0.002721
     8  C   -0.033088
     9  C   -0.058289
    10  C    0.045071
    11  C    0.083100
    12  C    0.087420
    13  C   -0.013245
    14  C    0.192891
    15  O   -0.213754
    16  O   -0.389080
    17  N   -0.396639
    18  C    0.174344
    19  C   -0.185439
    20  C    0.003264
    21  C    0.136343
    22  C    0.133799
    23  C   -0.038053
    24  O   -0.214121
    25  C    0.048090
    26  N   -0.198571
    27  C    0.013990
    28  C   -0.044243
    29  C   -0.024023
    30  C    0.040260
    31  C    0.048546
    32  C    0.011913
    33  C    0.014079
    34  N   -0.314903
    35  C    0.117828
    36  C   -0.156824
    37  C   -0.002499
    38  C    0.050866
    39  C    0.104490
    40  C    0.063390
    41  O   -0.151375
    42  C    0.008196
    43  C    0.214401
    44  O   -0.256220
    45  O   -0.344132
    46  C    0.183099
    47  C    0.270005
    48  C   -0.103465
    49  C   -0.169780
    50  C    0.071733
    51  C    0.084201
    52  C   -0.022691
    53  C    0.049068
    54  C   -0.153145
    55  C    0.058381
    56  C    0.042223
    57  C    0.062940
    58  C    0.037603
    59  C   -0.131688
    60  C    0.062189
    61  C    0.064173
    62  C   -0.019327
    63  C    0.065255
    64  C   -0.135035
    65  C    0.000334
    66  C    0.057099
    67  H   -0.038109
    68  H   -0.004154
    69  H   -0.027694
    70  H    0.023856
    71  H    0.002865
    72  H    0.039363
    73  H    0.008266
    74  H    0.022593
    75  H    0.021435
    76  H    0.015290
    77  H    0.053582
    78  H    0.031800
    79  H    0.053927
    80  H    0.032020
    81  H    0.020526
    82  H    0.028860
    83  H    0.010945
    84  H    0.024139
    85  H    0.024760
    86  H    0.005168
    87  H    0.025512
    88  H    0.016215
    89  H    0.018080
    90  H    0.003160
    91  H    0.001286
    92  H    0.013035
    93  H    0.020811
    94  H    0.009040
    95  H    0.018716
    96  H    0.025336
    97  H    0.034671
    98  H    0.039972
    99  H    0.050621
   100  H    0.021095
   101  H    0.033767
   102  H    0.033494
   103  H    0.039559
   104  H    0.006103
   105  H    0.032300
   106  H    0.004935
   107  H    0.021153
   108  H   -0.009790
   109  H    0.006221
   110  H    0.013059
   111  H    0.004831
   112  H   -0.010281
   113  H   -0.007363
   114  H   -0.006212
   115  H    0.026518
   116  H    0.002176
   117  H   -0.008866
   118  H   -0.010183
   119  H   -0.004333
   120  H   -0.007841
   121  H    0.004066
   122  H   -0.006516
   123  H   -0.008077
   124  H   -0.017062
   125  H   -0.004086
   126  H    0.004388
   127  H    0.010636
   128  H   -0.013218
   129  H   -0.015898
   130  H   -0.018971
   131  H   -0.001013
   132  H   -0.002253
   133  H    0.002379
   134  H    0.003189
   135  H    0.001662
   136  H    0.009066
   137  H   -0.005912
   138  H    0.010896
   139  H    0.007847
   140  H    0.011160
 Sum of Mulliken charges =  -0.00000

 Dipole moment (field-independent basis, Debye):
    X=              2.9323    Y=              1.4123    Z=             -2.0995  Tot=              3.8731
 Quadrupole moment (field-independent basis, Debye-Ang):
   XX=           -357.7561   YY=           -434.5128   ZZ=           -418.1471
   XY=             -7.5045   XZ=             18.3557   YZ=              0.8794

 Normal termination of Gaussian 16 at Thu May  5 07:15:00 2022.
