 Gaussian 16, Revision A.03,
 Gaussian 16:  ES64L-G16RevA.03 25-Dec-2016

 ---------------------------------
 #p PBE1PBE/Def2SVP td=(nstates=5)
 ---------------------------------

 -----------------------------------------------------
 step_751_chromophore_12 TDDFT with PBE1PBE functional
 -----------------------------------------------------
 Symbolic Z-matrix:
 Charge =  0 Multiplicity = 1

                         Standard orientation:
 ---------------------------------------------------------------------
 Center     Atomic      Atomic             Coordinates (Angstroms)
 Number     Number       Type             X           Y           Z
 ---------------------------------------------------------------------
      1         12           0       -4.052556    0.330053   -0.592160
      2          6           0       -3.314233   -2.821467    0.444853
      3          6           0       -0.823570    1.199091   -0.375640
      4          6           0       -4.993260    3.739318   -0.613139
      5          6           0       -7.482087   -0.395783   -0.180138
      6          7           0       -2.322736   -0.676322    0.069621
      7          6           0       -2.208543   -2.001536    0.262216
      8          6           0       -0.741709   -2.510992    0.189237
      9          6           0        0.070796   -1.155989    0.210635
     10          6           0       -1.054511   -0.143522   -0.124478
     11          6           0        0.875895   -0.804305    1.509543
     12          6           0       -0.378347   -3.288529   -1.086160
     13          6           0        0.878902   -4.224427   -0.771280
     14          6           0        1.989476   -4.377800   -1.866542
     15          8           0        1.830762   -4.409131   -3.068691
     16          8           0        3.298481   -4.244024   -1.296664
     17          7           0       -3.122554    2.153379   -0.645746
     18          6           0       -1.737132    2.275376   -0.618354
     19          6           0       -1.327867    3.656087   -0.737473
     20          6           0       -2.545533    4.443785   -0.796082
     21          6           0       -3.646656    3.436543   -0.706341
     22          6           0        0.047574    4.133184   -0.868796
     23          6           0       -2.700927    5.898008   -0.900115
     24          8           0       -3.766461    6.493668   -0.973669
     25          6           0       -1.519167    6.910529   -0.800574
     26          7           0       -6.004978    1.525015   -0.552952
     27          6           0       -6.089480    2.865337   -0.562418
     28          6           0       -7.515502    3.366574   -0.610352
     29          6           0       -8.324784    2.024363   -0.600782
     30          6           0       -7.210680    0.989097   -0.534861
     31          6           0       -7.907331    4.329276    0.568856
     32          6           0       -9.345143    1.843843   -1.782852
     33          6           0      -10.827893    1.789076   -1.477521
     34          7           0       -5.224574   -1.298866    0.057148
     35          6           0       -6.590939   -1.430188    0.136282
     36          6           0       -6.843702   -2.787948    0.603575
     37          6           0       -5.607425   -3.434573    0.672631
     38          6           0       -4.663057   -2.418908    0.433197
     39          6           0       -8.281893   -3.323394    0.958923
     40          6           0       -4.818822   -4.604033    1.107367
     41          8           0       -5.061421   -5.657267    1.662104
     42          6           0       -3.286108   -4.233549    0.923988
     43          6           0       -2.554543   -4.607078    2.132846
     44          8           0       -2.458362   -3.982827    3.230186
     45          8           0       -1.843283   -5.764172    1.854099
     46          6           0       -1.102956   -6.391676    2.913526
     47          6           0        4.418123   -4.136548   -2.248480
     48          6           0        5.797775   -4.203989   -1.465019
     49          6           0        6.998732   -3.734867   -1.866615
     50          6           0        7.309483   -2.986610   -3.154231
     51          6           0        8.198880   -3.738435   -0.913352
     52          6           0        8.276561   -2.375558   -0.148403
     53          6           0        9.739221   -1.726012   -0.202965
     54          6           0        9.765040   -0.248504   -0.609337
     55          6           0       10.636327   -0.024895   -1.859504
     56          6           0       10.215637    0.673809    0.571714
     57          6           0        8.971093    1.138966    1.439855
     58          6           0        8.979157    2.673005    1.603628
     59          6           0        7.988248    3.474947    0.721294
     60          6           0        8.492719    3.746430   -0.715692
     61          6           0        7.655716    4.767965    1.406496
     62          6           0        6.494896    4.522577    2.350264
     63          6           0        5.071818    4.907524    1.780820
     64          6           0        4.055513    3.763262    1.911066
     65          6           0        3.069971    3.645966    0.706007
     66          6           0        3.255175    3.850134    3.200691
     67          1           0        0.237066    1.450459   -0.438415
     68          1           0       -5.269301    4.786876   -0.750996
     69          1           0       -8.538113   -0.652838   -0.080263
     70          1           0       -0.501996   -3.108209    1.069436
     71          1           0        0.813279   -1.104271   -0.584840
     72          1           0        0.175322   -0.736356    2.341904
     73          1           0        1.353322    0.166887    1.373621
     74          1           0        1.689320   -1.529307    1.554158
     75          1           0       -0.159910   -2.673964   -1.959649
     76          1           0       -1.168121   -3.970240   -1.402850
     77          1           0        0.505229   -5.155629   -0.346052
     78          1           0        1.495072   -3.750278   -0.007080
     79          1           0        0.310163    4.741569   -0.004321
     80          1           0       -0.069427    4.712733   -1.784820
     81          1           0        0.688269    3.263153   -1.014067
     82          1           0       -1.942367    7.915226   -0.797690
     83          1           0       -1.004582    6.838905   -1.759475
     84          1           0       -0.720185    6.740911   -0.078723
     85          1           0       -7.676855    4.023203   -1.465733
     86          1           0       -9.027183    1.964513    0.231081
     87          1           0       -7.168188    4.418940    1.365762
     88          1           0       -8.867007    4.067562    1.013514
     89          1           0       -7.940059    5.314103    0.103767
     90          1           0       -9.162200    0.922435   -2.336057
     91          1           0       -9.132292    2.645477   -2.489743
     92          1           0      -11.309290    2.294955   -2.313638
     93          1           0      -10.993068    2.126450   -0.454010
     94          1           0      -11.277549    0.806861   -1.626524
     95          1           0       -8.887324   -3.431969    0.059137
     96          1           0       -8.835287   -2.610730    1.570086
     97          1           0       -8.317373   -4.317843    1.404084
     98          1           0       -2.954426   -4.905447    0.133089
     99          1           0       -1.711852   -6.310309    3.814020
    100          1           0       -0.133595   -5.896289    2.973678
    101          1           0       -0.828107   -7.432347    2.742182
    102          1           0        4.338055   -3.181508   -2.767834
    103          1           0        4.327920   -5.003489   -2.903067
    104          1           0        5.721010   -4.461719   -0.409305
    105          1           0        7.571571   -1.939232   -3.000130
    106          1           0        6.457579   -3.064149   -3.830228
    107          1           0        8.099223   -3.487537   -3.714856
    108          1           0        9.143757   -3.782650   -1.453854
    109          1           0        8.223855   -4.540677   -0.174834
    110          1           0        7.944670   -2.511510    0.880102
    111          1           0        7.679697   -1.634314   -0.680479
    112          1           0       10.346807   -2.339111   -0.868642
    113          1           0       10.140197   -1.935354    0.789413
    114          1           0        8.763011    0.019012   -0.947045
    115          1           0       11.709965    0.093455   -1.713882
    116          1           0       10.160539    0.798601   -2.392718
    117          1           0       10.364273   -0.886687   -2.470331
    118          1           0       10.758863    1.504964    0.123345
    119          1           0       10.985860    0.223220    1.197324
    120          1           0        9.068698    0.675810    2.421065
    121          1           0        8.057993    0.710755    1.026704
    122          1           0        9.938839    3.104450    1.320975
    123          1           0        8.883064    2.936258    2.656411
    124          1           0        6.968124    3.094652    0.669324
    125          1           0        9.107548    2.913283   -1.058698
    126          1           0        9.157873    4.609499   -0.676041
    127          1           0        7.681974    3.909311   -1.424688
    128          1           0        7.330457    5.502807    0.670746
    129          1           0        8.529390    5.123949    1.952880
    130          1           0        6.661257    5.230849    3.162924
    131          1           0        6.509945    3.557777    2.857358
    132          1           0        5.122073    5.253491    0.748800
    133          1           0        4.874163    5.758770    2.433156
    134          1           0        4.623670    2.833720    1.898029
    135          1           0        3.276083    2.760597    0.104828
    136          1           0        3.028030    4.477239    0.001406
    137          1           0        2.017381    3.532751    0.965081
    138          1           0        3.212990    4.856258    3.618264
    139          1           0        3.804500    3.208271    3.889542
    140          1           0        2.240969    3.492185    3.022786
 ---------------------------------------------------------------------

 SCF Done:  E(RPBE1PBE) =  -3005.36840299     A.U. after   15 cycles

 Excitation energies and oscillator strengths:

 Excited State   1:      Singlet-A      1.8720 eV  662.31 nm  f=0.3709  <S**2>=0.000
     245 -> 248       -0.17695
     246 -> 247        0.68916
     246 <- 247       -0.10078
 This state for optimization and/or second-order correction.
 Total Energy, E(TD-HF/TD-DFT) =  -3005.29960791
 Copying the excited state density for this state as the 1-particle RhoCI density.

 Excited State   2:      Singlet-A      2.2364 eV  554.39 nm  f=0.0936  <S**2>=0.000
     245 -> 247        0.64542
     246 -> 248        0.27043

 Excited State   3:      Singlet-A      2.9276 eV  423.50 nm  f=0.0004  <S**2>=0.000
     244 -> 247        0.66926
     244 -> 248        0.13537
     244 -> 249        0.11606
     244 -> 250       -0.10814

 Excited State   4:      Singlet-A      3.0802 eV  402.52 nm  f=0.0061  <S**2>=0.000
     240 -> 247        0.18394
     241 -> 247        0.54551
     241 -> 249       -0.10902
     242 -> 247       -0.34080
     246 -> 248       -0.12270

 Excited State   5:      Singlet-A      3.1719 eV  390.88 nm  f=0.0027  <S**2>=0.000
     240 -> 247        0.15824
     241 -> 247        0.28802
     242 -> 247        0.60791

 The electronic state is 1-A.
 Alpha  occ. eigenvalues --  -46.92809 -19.25650 -19.25096 -19.21129 -19.19865
 Alpha  occ. eigenvalues --  -19.19787 -19.18359 -14.41922 -14.41555 -14.39791
 Alpha  occ. eigenvalues --  -14.38888 -10.37447 -10.36726 -10.33070 -10.31823
 Alpha  occ. eigenvalues --  -10.30036 -10.29021 -10.28936 -10.28752 -10.28608
 Alpha  occ. eigenvalues --  -10.28015 -10.28009 -10.28003 -10.27760 -10.26978
 Alpha  occ. eigenvalues --  -10.26654 -10.26443 -10.26351 -10.26312 -10.26198
 Alpha  occ. eigenvalues --  -10.25808 -10.25631 -10.25497 -10.25348 -10.25342
 Alpha  occ. eigenvalues --  -10.25302 -10.24905 -10.24832 -10.24789 -10.24348
 Alpha  occ. eigenvalues --  -10.24145 -10.24123 -10.24067 -10.23816 -10.23816
 Alpha  occ. eigenvalues --  -10.23801 -10.23721 -10.23580 -10.23438 -10.23431
 Alpha  occ. eigenvalues --  -10.23299 -10.23215 -10.23099 -10.22892 -10.22877
 Alpha  occ. eigenvalues --  -10.22753 -10.22721 -10.22718 -10.22639 -10.22478
 Alpha  occ. eigenvalues --  -10.22302 -10.22224 -10.22159 -10.21994 -10.21831
 Alpha  occ. eigenvalues --  -10.21646  -3.14926  -1.87738  -1.87293  -1.87162
 Alpha  occ. eigenvalues --   -1.10200  -1.10062  -1.05532  -1.04462  -1.02425
 Alpha  occ. eigenvalues --   -1.00737  -1.00150  -0.99520  -0.98378  -0.96548
 Alpha  occ. eigenvalues --   -0.87366  -0.84876  -0.84333  -0.83994  -0.83396
 Alpha  occ. eigenvalues --   -0.83045  -0.82878  -0.82070  -0.81958  -0.81798
 Alpha  occ. eigenvalues --   -0.80520  -0.79366  -0.78672  -0.78225  -0.77710
 Alpha  occ. eigenvalues --   -0.76703  -0.76033  -0.75503  -0.74803  -0.74361
 Alpha  occ. eigenvalues --   -0.73993  -0.72739  -0.72340  -0.71802  -0.70589
 Alpha  occ. eigenvalues --   -0.70065  -0.69986  -0.69756  -0.69454  -0.68609
 Alpha  occ. eigenvalues --   -0.67768  -0.67173  -0.66391  -0.64838  -0.63513
 Alpha  occ. eigenvalues --   -0.63163  -0.62722  -0.62236  -0.61000  -0.60288
 Alpha  occ. eigenvalues --   -0.60257  -0.60146  -0.59654  -0.59196  -0.58266
 Alpha  occ. eigenvalues --   -0.57921  -0.57142  -0.57020  -0.56723  -0.54802
 Alpha  occ. eigenvalues --   -0.54514  -0.54152  -0.53751  -0.53581  -0.52877
 Alpha  occ. eigenvalues --   -0.52262  -0.51378  -0.50988  -0.50583  -0.50111
 Alpha  occ. eigenvalues --   -0.49592  -0.49251  -0.49092  -0.48764  -0.48563
 Alpha  occ. eigenvalues --   -0.48416  -0.48091  -0.47860  -0.47758  -0.47472
 Alpha  occ. eigenvalues --   -0.47267  -0.47164  -0.46933  -0.46748  -0.46425
 Alpha  occ. eigenvalues --   -0.46267  -0.46203  -0.45951  -0.45562  -0.45207
 Alpha  occ. eigenvalues --   -0.44994  -0.44923  -0.44779  -0.44293  -0.44159
 Alpha  occ. eigenvalues --   -0.44001  -0.43854  -0.43714  -0.43570  -0.43475
 Alpha  occ. eigenvalues --   -0.43373  -0.43253  -0.43151  -0.42853  -0.42786
 Alpha  occ. eigenvalues --   -0.42526  -0.42141  -0.41818  -0.41636  -0.41349
 Alpha  occ. eigenvalues --   -0.41259  -0.41113  -0.41031  -0.40725  -0.40624
 Alpha  occ. eigenvalues --   -0.40503  -0.40277  -0.40110  -0.39922  -0.39807
 Alpha  occ. eigenvalues --   -0.39712  -0.39606  -0.39426  -0.39149  -0.39039
 Alpha  occ. eigenvalues --   -0.38819  -0.38584  -0.38362  -0.38223  -0.38103
 Alpha  occ. eigenvalues --   -0.37821  -0.37610  -0.37381  -0.37000  -0.36787
 Alpha  occ. eigenvalues --   -0.36687  -0.36496  -0.36329  -0.36201  -0.36069
 Alpha  occ. eigenvalues --   -0.36027  -0.35888  -0.35762  -0.35589  -0.35284
 Alpha  occ. eigenvalues --   -0.35030  -0.34734  -0.34667  -0.33927  -0.33874
 Alpha  occ. eigenvalues --   -0.33641  -0.33308  -0.32994  -0.32767  -0.32650
 Alpha  occ. eigenvalues --   -0.32079  -0.32005  -0.31970  -0.31791  -0.31283
 Alpha  occ. eigenvalues --   -0.31051  -0.30934  -0.30654  -0.29907  -0.29356
 Alpha  occ. eigenvalues --   -0.29250  -0.29169  -0.28530  -0.27040  -0.26526
 Alpha  occ. eigenvalues --   -0.25877  -0.25540  -0.25466  -0.25105  -0.21063
 Alpha  occ. eigenvalues --   -0.18920
 Alpha virt. eigenvalues --   -0.11178  -0.05836  -0.03717  -0.02153  -0.01564
 Alpha virt. eigenvalues --   -0.00662  -0.00621   0.00874   0.01063   0.03248
 Alpha virt. eigenvalues --    0.03527   0.04387   0.04814   0.04882   0.05385

 Mulliken charges:
               1
     1  Mg   0.983831
     2  C    0.000385
     3  C   -0.088309
     4  C   -0.050888
     5  C   -0.071579
     6  N   -0.428018
     7  C    0.070265
     8  C   -0.108927
     9  C   -0.129004
    10  C    0.081143
    11  C    0.021024
    12  C    0.040150
    13  C   -0.090028
    14  C    0.257778
    15  O   -0.245769
    16  O   -0.419758
    17  N   -0.514490
    18  C    0.199071
    19  C   -0.207982
    20  C   -0.045611
    21  C    0.169531
    22  C    0.061722
    23  C    0.012581
    24  O   -0.250195
    25  C   -0.026338
    26  N   -0.307869
    27  C    0.052439
    28  C   -0.120222
    29  C   -0.104047
    30  C    0.086317
    31  C   -0.005368
    32  C   -0.039079
    33  C   -0.059912
    34  N   -0.443079
    35  C    0.138759
    36  C   -0.177888
    37  C   -0.039624
    38  C    0.104912
    39  C    0.053489
    40  C    0.154740
    41  O   -0.197463
    42  C   -0.105656
    43  C    0.301110
    44  O   -0.291277
    45  O   -0.376722
    46  C    0.130065
    47  C    0.233446
    48  C   -0.112231
    49  C   -0.221912
    50  C    0.009639
    51  C    0.021015
    52  C   -0.083009
    53  C    0.003139
    54  C   -0.243824
    55  C   -0.007020
    56  C   -0.007969
    57  C    0.002086
    58  C   -0.019485
    59  C   -0.219453
    60  C   -0.004561
    61  C    0.009062
    62  C   -0.084193
    63  C    0.015323
    64  C   -0.232124
    65  C   -0.059485
    66  C   -0.001182
    67  H   -0.004813
    68  H    0.026413
    69  H    0.003528
    70  H    0.064665
    71  H    0.040152
    72  H    0.066952
    73  H    0.037015
    74  H    0.051633
    75  H    0.051980
    76  H    0.049167
    77  H    0.084724
    78  H    0.065348
    79  H    0.080644
    80  H    0.062517
    81  H    0.051036
    82  H    0.056635
    83  H    0.039010
    84  H    0.050866
    85  H    0.060449
    86  H    0.042619
    87  H    0.053182
    88  H    0.043804
    89  H    0.044804
    90  H    0.036262
    91  H    0.033491
    92  H    0.040736
    93  H    0.046995
    94  H    0.036955
    95  H    0.045709
    96  H    0.051243
    97  H    0.061244
    98  H    0.078916
    99  H    0.071464
   100  H    0.043099
   101  H    0.055805
   102  H    0.058938
   103  H    0.066559
   104  H    0.035542
   105  H    0.059094
   106  H    0.033276
   107  H    0.048857
   108  H    0.023778
   109  H    0.038048
   110  H    0.044827
   111  H    0.038420
   112  H    0.020404
   113  H    0.025444
   114  H    0.030651
   115  H    0.053264
   116  H    0.031954
   117  H    0.021390
   118  H    0.020342
   119  H    0.027633
   120  H    0.025391
   121  H    0.035557
   122  H    0.026868
   123  H    0.023524
   124  H    0.026393
   125  H    0.030585
   126  H    0.032041
   127  H    0.038223
   128  H    0.020464
   129  H    0.016926
   130  H    0.015709
   131  H    0.030721
   132  H    0.028389
   133  H    0.034682
   134  H    0.040433
   135  H    0.028734
   136  H    0.035723
   137  H    0.023842
   138  H    0.037722
   139  H    0.035809
   140  H    0.038122
 Sum of Mulliken charges =  -0.00000

 Dipole moment (field-independent basis, Debye):
    X=              3.0622    Y=              1.6576    Z=             -2.1362  Tot=              4.0851
 Quadrupole moment (field-independent basis, Debye-Ang):
   XX=           -352.6989   YY=           -432.1184   ZZ=           -415.5980
   XY=             -8.7905   XZ=             18.9945   YZ=              0.6554

 Normal termination of Gaussian 16 at Thu May  5 07:35:35 2022.
