 Gaussian 16, Revision A.03,
 Gaussian 16:  ES64L-G16RevA.03 25-Dec-2016

 --------------------------------
 #p wB97XD/Def2SVP td=(nstates=5)
 --------------------------------

 ----------------------------------------------------
 step_751_chromophore_12 TDDFT with wB97XD functional
 ----------------------------------------------------
 Symbolic Z-matrix:
 Charge =  0 Multiplicity = 1

                         Standard orientation:
 ---------------------------------------------------------------------
 Center     Atomic      Atomic             Coordinates (Angstroms)
 Number     Number       Type             X           Y           Z
 ---------------------------------------------------------------------
      1         12           0       -4.052556    0.330053   -0.592160
      2          6           0       -3.314233   -2.821467    0.444853
      3          6           0       -0.823570    1.199091   -0.375640
      4          6           0       -4.993260    3.739318   -0.613139
      5          6           0       -7.482087   -0.395783   -0.180138
      6          7           0       -2.322736   -0.676322    0.069621
      7          6           0       -2.208543   -2.001536    0.262216
      8          6           0       -0.741709   -2.510992    0.189237
      9          6           0        0.070796   -1.155989    0.210635
     10          6           0       -1.054511   -0.143522   -0.124478
     11          6           0        0.875895   -0.804305    1.509543
     12          6           0       -0.378347   -3.288529   -1.086160
     13          6           0        0.878902   -4.224427   -0.771280
     14          6           0        1.989476   -4.377800   -1.866542
     15          8           0        1.830762   -4.409131   -3.068691
     16          8           0        3.298481   -4.244024   -1.296664
     17          7           0       -3.122554    2.153379   -0.645746
     18          6           0       -1.737132    2.275376   -0.618354
     19          6           0       -1.327867    3.656087   -0.737473
     20          6           0       -2.545533    4.443785   -0.796082
     21          6           0       -3.646656    3.436543   -0.706341
     22          6           0        0.047574    4.133184   -0.868796
     23          6           0       -2.700927    5.898008   -0.900115
     24          8           0       -3.766461    6.493668   -0.973669
     25          6           0       -1.519167    6.910529   -0.800574
     26          7           0       -6.004978    1.525015   -0.552952
     27          6           0       -6.089480    2.865337   -0.562418
     28          6           0       -7.515502    3.366574   -0.610352
     29          6           0       -8.324784    2.024363   -0.600782
     30          6           0       -7.210680    0.989097   -0.534861
     31          6           0       -7.907331    4.329276    0.568856
     32          6           0       -9.345143    1.843843   -1.782852
     33          6           0      -10.827893    1.789076   -1.477521
     34          7           0       -5.224574   -1.298866    0.057148
     35          6           0       -6.590939   -1.430188    0.136282
     36          6           0       -6.843702   -2.787948    0.603575
     37          6           0       -5.607425   -3.434573    0.672631
     38          6           0       -4.663057   -2.418908    0.433197
     39          6           0       -8.281893   -3.323394    0.958923
     40          6           0       -4.818822   -4.604033    1.107367
     41          8           0       -5.061421   -5.657267    1.662104
     42          6           0       -3.286108   -4.233549    0.923988
     43          6           0       -2.554543   -4.607078    2.132846
     44          8           0       -2.458362   -3.982827    3.230186
     45          8           0       -1.843283   -5.764172    1.854099
     46          6           0       -1.102956   -6.391676    2.913526
     47          6           0        4.418123   -4.136548   -2.248480
     48          6           0        5.797775   -4.203989   -1.465019
     49          6           0        6.998732   -3.734867   -1.866615
     50          6           0        7.309483   -2.986610   -3.154231
     51          6           0        8.198880   -3.738435   -0.913352
     52          6           0        8.276561   -2.375558   -0.148403
     53          6           0        9.739221   -1.726012   -0.202965
     54          6           0        9.765040   -0.248504   -0.609337
     55          6           0       10.636327   -0.024895   -1.859504
     56          6           0       10.215637    0.673809    0.571714
     57          6           0        8.971093    1.138966    1.439855
     58          6           0        8.979157    2.673005    1.603628
     59          6           0        7.988248    3.474947    0.721294
     60          6           0        8.492719    3.746430   -0.715692
     61          6           0        7.655716    4.767965    1.406496
     62          6           0        6.494896    4.522577    2.350264
     63          6           0        5.071818    4.907524    1.780820
     64          6           0        4.055513    3.763262    1.911066
     65          6           0        3.069971    3.645966    0.706007
     66          6           0        3.255175    3.850134    3.200691
     67          1           0        0.237066    1.450459   -0.438415
     68          1           0       -5.269301    4.786876   -0.750996
     69          1           0       -8.538113   -0.652838   -0.080263
     70          1           0       -0.501996   -3.108209    1.069436
     71          1           0        0.813279   -1.104271   -0.584840
     72          1           0        0.175322   -0.736356    2.341904
     73          1           0        1.353322    0.166887    1.373621
     74          1           0        1.689320   -1.529307    1.554158
     75          1           0       -0.159910   -2.673964   -1.959649
     76          1           0       -1.168121   -3.970240   -1.402850
     77          1           0        0.505229   -5.155629   -0.346052
     78          1           0        1.495072   -3.750278   -0.007080
     79          1           0        0.310163    4.741569   -0.004321
     80          1           0       -0.069427    4.712733   -1.784820
     81          1           0        0.688269    3.263153   -1.014067
     82          1           0       -1.942367    7.915226   -0.797690
     83          1           0       -1.004582    6.838905   -1.759475
     84          1           0       -0.720185    6.740911   -0.078723
     85          1           0       -7.676855    4.023203   -1.465733
     86          1           0       -9.027183    1.964513    0.231081
     87          1           0       -7.168188    4.418940    1.365762
     88          1           0       -8.867007    4.067562    1.013514
     89          1           0       -7.940059    5.314103    0.103767
     90          1           0       -9.162200    0.922435   -2.336057
     91          1           0       -9.132292    2.645477   -2.489743
     92          1           0      -11.309290    2.294955   -2.313638
     93          1           0      -10.993068    2.126450   -0.454010
     94          1           0      -11.277549    0.806861   -1.626524
     95          1           0       -8.887324   -3.431969    0.059137
     96          1           0       -8.835287   -2.610730    1.570086
     97          1           0       -8.317373   -4.317843    1.404084
     98          1           0       -2.954426   -4.905447    0.133089
     99          1           0       -1.711852   -6.310309    3.814020
    100          1           0       -0.133595   -5.896289    2.973678
    101          1           0       -0.828107   -7.432347    2.742182
    102          1           0        4.338055   -3.181508   -2.767834
    103          1           0        4.327920   -5.003489   -2.903067
    104          1           0        5.721010   -4.461719   -0.409305
    105          1           0        7.571571   -1.939232   -3.000130
    106          1           0        6.457579   -3.064149   -3.830228
    107          1           0        8.099223   -3.487537   -3.714856
    108          1           0        9.143757   -3.782650   -1.453854
    109          1           0        8.223855   -4.540677   -0.174834
    110          1           0        7.944670   -2.511510    0.880102
    111          1           0        7.679697   -1.634314   -0.680479
    112          1           0       10.346807   -2.339111   -0.868642
    113          1           0       10.140197   -1.935354    0.789413
    114          1           0        8.763011    0.019012   -0.947045
    115          1           0       11.709965    0.093455   -1.713882
    116          1           0       10.160539    0.798601   -2.392718
    117          1           0       10.364273   -0.886687   -2.470331
    118          1           0       10.758863    1.504964    0.123345
    119          1           0       10.985860    0.223220    1.197324
    120          1           0        9.068698    0.675810    2.421065
    121          1           0        8.057993    0.710755    1.026704
    122          1           0        9.938839    3.104450    1.320975
    123          1           0        8.883064    2.936258    2.656411
    124          1           0        6.968124    3.094652    0.669324
    125          1           0        9.107548    2.913283   -1.058698
    126          1           0        9.157873    4.609499   -0.676041
    127          1           0        7.681974    3.909311   -1.424688
    128          1           0        7.330457    5.502807    0.670746
    129          1           0        8.529390    5.123949    1.952880
    130          1           0        6.661257    5.230849    3.162924
    131          1           0        6.509945    3.557777    2.857358
    132          1           0        5.122073    5.253491    0.748800
    133          1           0        4.874163    5.758770    2.433156
    134          1           0        4.623670    2.833720    1.898029
    135          1           0        3.276083    2.760597    0.104828
    136          1           0        3.028030    4.477239    0.001406
    137          1           0        2.017381    3.532751    0.965081
    138          1           0        3.212990    4.856258    3.618264
    139          1           0        3.804500    3.208271    3.889542
    140          1           0        2.240969    3.492185    3.022786
 ---------------------------------------------------------------------

 SCF Done:  E(RwB97XD) =  -3007.88057109     A.U. after   19 cycles

 Excitation energies and oscillator strengths:

 Excited State   1:      Singlet-A      1.6641 eV  745.07 nm  f=0.3835  <S**2>=0.000
     245 -> 248       -0.18963
     246 -> 247        0.68027
     245 <- 248       -0.11464
 This state for optimization and/or second-order correction.
 Total Energy, E(TD-HF/TD-DFT) =  -3007.81941780
 Copying the excited state density for this state as the 1-particle RhoCI density.

 Excited State   2:      Singlet-A      2.1853 eV  567.35 nm  f=0.0902  <S**2>=0.000
     245 -> 247        0.63024
     246 -> 248        0.30404

 Excited State   3:      Singlet-A      3.4459 eV  359.80 nm  f=0.5328  <S**2>=0.000
     241 -> 247       -0.30085
     245 -> 247       -0.25544
     246 -> 248        0.56965
     245 <- 247        0.10290

 Excited State   4:      Singlet-A      3.5070 eV  353.53 nm  f=0.0065  <S**2>=0.000
     241 -> 247       -0.10567
     242 -> 247        0.36106
     242 -> 248        0.19893
     242 -> 249       -0.20974
     242 -> 250       -0.16431
     242 -> 251        0.16268
     244 -> 247        0.41745
     244 -> 249       -0.10552

 Excited State   5:      Singlet-A      3.5332 eV  350.92 nm  f=0.0512  <S**2>=0.000
     241 -> 247       -0.26596
     241 -> 249       -0.10008
     242 -> 247       -0.38261
     242 -> 248       -0.10066
     242 -> 249        0.11419
     244 -> 247        0.39934
     246 -> 248       -0.17271

 The electronic state is 1-A.
 Alpha  occ. eigenvalues --  -46.95747 -19.30242 -19.29620 -19.25809 -19.24745
 Alpha  occ. eigenvalues --  -19.24623 -19.23083 -14.46856 -14.46783 -14.44716
 Alpha  occ. eigenvalues --  -14.43878 -10.44211 -10.43613 -10.40037 -10.38602
 Alpha  occ. eigenvalues --  -10.36513 -10.35341 -10.35334 -10.35141 -10.34960
 Alpha  occ. eigenvalues --  -10.34214 -10.34202 -10.34193 -10.34177 -10.33674
 Alpha  occ. eigenvalues --  -10.32929 -10.32928 -10.32720 -10.32547 -10.32507
 Alpha  occ. eigenvalues --  -10.32181 -10.31926 -10.31843 -10.31802 -10.31678
 Alpha  occ. eigenvalues --  -10.31667 -10.31115 -10.31076 -10.31030 -10.30788
 Alpha  occ. eigenvalues --  -10.30749 -10.30500 -10.30410 -10.30291 -10.30265
 Alpha  occ. eigenvalues --  -10.30098 -10.29987 -10.29904 -10.29843 -10.29794
 Alpha  occ. eigenvalues --  -10.29628 -10.29524 -10.29492 -10.29422 -10.29240
 Alpha  occ. eigenvalues --  -10.29078 -10.29056 -10.29021 -10.28989 -10.28817
 Alpha  occ. eigenvalues --  -10.28699 -10.28638 -10.28489 -10.28434 -10.28233
 Alpha  occ. eigenvalues --  -10.27998  -3.21734  -1.95292  -1.94848  -1.94715
 Alpha  occ. eigenvalues --   -1.17641  -1.17428  -1.13139  -1.11871  -1.09754
 Alpha  occ. eigenvalues --   -1.08177  -1.07567  -1.06920  -1.05731  -1.03842
 Alpha  occ. eigenvalues --   -0.95033  -0.92527  -0.91999  -0.91622  -0.90983
 Alpha  occ. eigenvalues --   -0.90606  -0.90531  -0.89703  -0.89559  -0.89394
 Alpha  occ. eigenvalues --   -0.88223  -0.87015  -0.86316  -0.85867  -0.85315
 Alpha  occ. eigenvalues --   -0.84351  -0.83689  -0.83122  -0.82456  -0.82019
 Alpha  occ. eigenvalues --   -0.81685  -0.80395  -0.80008  -0.79405  -0.78238
 Alpha  occ. eigenvalues --   -0.77721  -0.77655  -0.77347  -0.77134  -0.76249
 Alpha  occ. eigenvalues --   -0.75348  -0.74765  -0.73901  -0.72433  -0.71064
 Alpha  occ. eigenvalues --   -0.70733  -0.70343  -0.69737  -0.68637  -0.67928
 Alpha  occ. eigenvalues --   -0.67787  -0.67627  -0.67091  -0.66646  -0.65934
 Alpha  occ. eigenvalues --   -0.65559  -0.64694  -0.64562  -0.64165  -0.62288
 Alpha  occ. eigenvalues --   -0.61943  -0.61549  -0.61195  -0.60966  -0.60340
 Alpha  occ. eigenvalues --   -0.59770  -0.58849  -0.58372  -0.58043  -0.57570
 Alpha  occ. eigenvalues --   -0.56955  -0.56710  -0.56492  -0.56194  -0.55954
 Alpha  occ. eigenvalues --   -0.55781  -0.55502  -0.55175  -0.55158  -0.54838
 Alpha  occ. eigenvalues --   -0.54651  -0.54618  -0.54227  -0.54103  -0.53832
 Alpha  occ. eigenvalues --   -0.53600  -0.53492  -0.53286  -0.52996  -0.52522
 Alpha  occ. eigenvalues --   -0.52318  -0.52248  -0.52089  -0.51667  -0.51476
 Alpha  occ. eigenvalues --   -0.51327  -0.51173  -0.51084  -0.50894  -0.50840
 Alpha  occ. eigenvalues --   -0.50635  -0.50542  -0.50462  -0.50108  -0.50026
 Alpha  occ. eigenvalues --   -0.49757  -0.49443  -0.49143  -0.48850  -0.48598
 Alpha  occ. eigenvalues --   -0.48511  -0.48307  -0.48201  -0.47987  -0.47807
 Alpha  occ. eigenvalues --   -0.47700  -0.47574  -0.47333  -0.47083  -0.46945
 Alpha  occ. eigenvalues --   -0.46871  -0.46831  -0.46572  -0.46372  -0.46224
 Alpha  occ. eigenvalues --   -0.45929  -0.45693  -0.45479  -0.45309  -0.45213
 Alpha  occ. eigenvalues --   -0.44790  -0.44757  -0.44499  -0.44131  -0.43821
 Alpha  occ. eigenvalues --   -0.43705  -0.43610  -0.43442  -0.43310  -0.43170
 Alpha  occ. eigenvalues --   -0.43121  -0.43051  -0.42696  -0.42592  -0.42369
 Alpha  occ. eigenvalues --   -0.42013  -0.41737  -0.41687  -0.40945  -0.40880
 Alpha  occ. eigenvalues --   -0.40615  -0.40339  -0.39892  -0.39792  -0.39669
 Alpha  occ. eigenvalues --   -0.39054  -0.38989  -0.38912  -0.38826  -0.38244
 Alpha  occ. eigenvalues --   -0.38049  -0.37993  -0.37612  -0.36722  -0.36314
 Alpha  occ. eigenvalues --   -0.36197  -0.36062  -0.35576  -0.33696  -0.33449
 Alpha  occ. eigenvalues --   -0.32709  -0.32263  -0.32192  -0.31962  -0.26045
 Alpha  occ. eigenvalues --   -0.23088
 Alpha virt. eigenvalues --   -0.07020  -0.00410   0.02482   0.04318   0.04453
 Alpha virt. eigenvalues --    0.06043   0.06243   0.07587   0.07827   0.09890
 Alpha virt. eigenvalues --    0.10243   0.11023   0.11399   0.11529   0.12135

 Mulliken charges:
               1
     1  Mg   0.975565
     2  C   -0.007111
     3  C   -0.099671
     4  C   -0.066308
     5  C   -0.083996
     6  N   -0.396963
     7  C    0.041268
     8  C   -0.079850
     9  C   -0.105323
    10  C    0.066528
    11  C    0.034271
    12  C    0.046675
    13  C   -0.070048
    14  C    0.248370
    15  O   -0.243628
    16  O   -0.419215
    17  N   -0.480299
    18  C    0.188672
    19  C   -0.195959
    20  C   -0.041777
    21  C    0.159260
    22  C    0.081360
    23  C    0.008332
    24  O   -0.245918
    25  C   -0.013255
    26  N   -0.268187
    27  C    0.034600
    28  C   -0.095819
    29  C   -0.073224
    30  C    0.066646
    31  C    0.003873
    32  C   -0.029879
    33  C   -0.042520
    34  N   -0.404072
    35  C    0.130126
    36  C   -0.172114
    37  C   -0.040187
    38  C    0.089233
    39  C    0.062480
    40  C    0.139726
    41  O   -0.188000
    42  C   -0.062366
    43  C    0.275722
    44  O   -0.284103
    45  O   -0.375110
    46  C    0.144727
    47  C    0.245026
    48  C   -0.124272
    49  C   -0.201730
    50  C    0.023126
    51  C    0.039033
    52  C   -0.063516
    53  C    0.012377
    54  C   -0.208832
    55  C    0.009127
    56  C    0.004839
    57  C    0.015953
    58  C   -0.001544
    59  C   -0.185961
    60  C    0.016276
    61  C    0.023515
    62  C   -0.064759
    63  C    0.026073
    64  C   -0.199799
    65  C   -0.039574
    66  C    0.011291
    67  H   -0.017425
    68  H    0.022658
    69  H   -0.000763
    70  H    0.049847
    71  H    0.029372
    72  H    0.061327
    73  H    0.030520
    74  H    0.045204
    75  H    0.045952
    76  H    0.040843
    77  H    0.080947
    78  H    0.054852
    79  H    0.073100
    80  H    0.054451
    81  H    0.042965
    82  H    0.055305
    83  H    0.032605
    84  H    0.046084
    85  H    0.050704
    86  H    0.027759
    87  H    0.047359
    88  H    0.037399
    89  H    0.039353
    90  H    0.027738
    91  H    0.025551
    92  H    0.035439
    93  H    0.040451
    94  H    0.030691
    95  H    0.041133
    96  H    0.046932
    97  H    0.058977
    98  H    0.070262
    99  H    0.067559
   100  H    0.038607
   101  H    0.052328
   102  H    0.053486
   103  H    0.061986
   104  H    0.033388
   105  H    0.052657
   106  H    0.027199
   107  H    0.043455
   108  H    0.012559
   109  H    0.032833
   110  H    0.038607
   111  H    0.021587
   112  H    0.009876
   113  H    0.017750
   114  H    0.014788
   115  H    0.048878
   116  H    0.025773
   117  H    0.011862
   118  H    0.009314
   119  H    0.020590
   120  H    0.019078
   121  H    0.025319
   122  H    0.014953
   123  H    0.016040
   124  H    0.006615
   125  H    0.014680
   126  H    0.025161
   127  H    0.033572
   128  H    0.010792
   129  H    0.008300
   130  H    0.007954
   131  H    0.018852
   132  H    0.019092
   133  H    0.026204
   134  H    0.028305
   135  H    0.022851
   136  H    0.028599
   137  H    0.008073
   138  H    0.031478
   139  H    0.029802
   140  H    0.032433
 Sum of Mulliken charges =  -0.00000

 Dipole moment (field-independent basis, Debye):
    X=              2.9488    Y=              1.4494    Z=             -2.1069  Tot=              3.9032
 Quadrupole moment (field-independent basis, Debye-Ang):
   XX=           -351.9352   YY=           -430.6421   ZZ=           -415.3516
   XY=             -7.1947   XZ=             18.6778   YZ=              0.4480

 Normal termination of Gaussian 16 at Thu May  5 08:05:37 2022.
