 Gaussian 16, Revision A.03,
 Gaussian 16:  ES64L-G16RevA.03 25-Dec-2016

 --------------------
 #p ZINDO=(nstates=5)
 --------------------

 -----------------------------
 step_751_chromophore_12 ZINDO
 -----------------------------
 Symbolic Z-matrix:
 Charge =  0 Multiplicity = 1

                         Standard orientation:
 ---------------------------------------------------------------------
 Center     Atomic      Atomic             Coordinates (Angstroms)
 Number     Number       Type             X           Y           Z
 ---------------------------------------------------------------------
      1         12           0       -4.052556    0.330053   -0.592160
      2          6           0       -3.314233   -2.821467    0.444853
      3          6           0       -0.823570    1.199091   -0.375640
      4          6           0       -4.993260    3.739318   -0.613139
      5          6           0       -7.482087   -0.395783   -0.180138
      6          7           0       -2.322736   -0.676322    0.069621
      7          6           0       -2.208543   -2.001536    0.262216
      8          6           0       -0.741709   -2.510992    0.189237
      9          6           0        0.070796   -1.155989    0.210635
     10          6           0       -1.054511   -0.143522   -0.124478
     11          6           0        0.875895   -0.804305    1.509543
     12          6           0       -0.378347   -3.288529   -1.086160
     13          6           0        0.878902   -4.224427   -0.771280
     14          6           0        1.989476   -4.377800   -1.866542
     15          8           0        1.830762   -4.409131   -3.068691
     16          8           0        3.298481   -4.244024   -1.296664
     17          7           0       -3.122554    2.153379   -0.645746
     18          6           0       -1.737132    2.275376   -0.618354
     19          6           0       -1.327867    3.656087   -0.737473
     20          6           0       -2.545533    4.443785   -0.796082
     21          6           0       -3.646656    3.436543   -0.706341
     22          6           0        0.047574    4.133184   -0.868796
     23          6           0       -2.700927    5.898008   -0.900115
     24          8           0       -3.766461    6.493668   -0.973669
     25          6           0       -1.519167    6.910529   -0.800574
     26          7           0       -6.004978    1.525015   -0.552952
     27          6           0       -6.089480    2.865337   -0.562418
     28          6           0       -7.515502    3.366574   -0.610352
     29          6           0       -8.324784    2.024363   -0.600782
     30          6           0       -7.210680    0.989097   -0.534861
     31          6           0       -7.907331    4.329276    0.568856
     32          6           0       -9.345143    1.843843   -1.782852
     33          6           0      -10.827893    1.789076   -1.477521
     34          7           0       -5.224574   -1.298866    0.057148
     35          6           0       -6.590939   -1.430188    0.136282
     36          6           0       -6.843702   -2.787948    0.603575
     37          6           0       -5.607425   -3.434573    0.672631
     38          6           0       -4.663057   -2.418908    0.433197
     39          6           0       -8.281893   -3.323394    0.958923
     40          6           0       -4.818822   -4.604033    1.107367
     41          8           0       -5.061421   -5.657267    1.662104
     42          6           0       -3.286108   -4.233549    0.923988
     43          6           0       -2.554543   -4.607078    2.132846
     44          8           0       -2.458362   -3.982827    3.230186
     45          8           0       -1.843283   -5.764172    1.854099
     46          6           0       -1.102956   -6.391676    2.913526
     47          6           0        4.418123   -4.136548   -2.248480
     48          6           0        5.797775   -4.203989   -1.465019
     49          6           0        6.998732   -3.734867   -1.866615
     50          6           0        7.309483   -2.986610   -3.154231
     51          6           0        8.198880   -3.738435   -0.913352
     52          6           0        8.276561   -2.375558   -0.148403
     53          6           0        9.739221   -1.726012   -0.202965
     54          6           0        9.765040   -0.248504   -0.609337
     55          6           0       10.636327   -0.024895   -1.859504
     56          6           0       10.215637    0.673809    0.571714
     57          6           0        8.971093    1.138966    1.439855
     58          6           0        8.979157    2.673005    1.603628
     59          6           0        7.988248    3.474947    0.721294
     60          6           0        8.492719    3.746430   -0.715692
     61          6           0        7.655716    4.767965    1.406496
     62          6           0        6.494896    4.522577    2.350264
     63          6           0        5.071818    4.907524    1.780820
     64          6           0        4.055513    3.763262    1.911066
     65          6           0        3.069971    3.645966    0.706007
     66          6           0        3.255175    3.850134    3.200691
     67          1           0        0.237066    1.450459   -0.438415
     68          1           0       -5.269301    4.786876   -0.750996
     69          1           0       -8.538113   -0.652838   -0.080263
     70          1           0       -0.501996   -3.108209    1.069436
     71          1           0        0.813279   -1.104271   -0.584840
     72          1           0        0.175322   -0.736356    2.341904
     73          1           0        1.353322    0.166887    1.373621
     74          1           0        1.689320   -1.529307    1.554158
     75          1           0       -0.159910   -2.673964   -1.959649
     76          1           0       -1.168121   -3.970240   -1.402850
     77          1           0        0.505229   -5.155629   -0.346052
     78          1           0        1.495072   -3.750278   -0.007080
     79          1           0        0.310163    4.741569   -0.004321
     80          1           0       -0.069427    4.712733   -1.784820
     81          1           0        0.688269    3.263153   -1.014067
     82          1           0       -1.942367    7.915226   -0.797690
     83          1           0       -1.004582    6.838905   -1.759475
     84          1           0       -0.720185    6.740911   -0.078723
     85          1           0       -7.676855    4.023203   -1.465733
     86          1           0       -9.027183    1.964513    0.231081
     87          1           0       -7.168188    4.418940    1.365762
     88          1           0       -8.867007    4.067562    1.013514
     89          1           0       -7.940059    5.314103    0.103767
     90          1           0       -9.162200    0.922435   -2.336057
     91          1           0       -9.132292    2.645477   -2.489743
     92          1           0      -11.309290    2.294955   -2.313638
     93          1           0      -10.993068    2.126450   -0.454010
     94          1           0      -11.277549    0.806861   -1.626524
     95          1           0       -8.887324   -3.431969    0.059137
     96          1           0       -8.835287   -2.610730    1.570086
     97          1           0       -8.317373   -4.317843    1.404084
     98          1           0       -2.954426   -4.905447    0.133089
     99          1           0       -1.711852   -6.310309    3.814020
    100          1           0       -0.133595   -5.896289    2.973678
    101          1           0       -0.828107   -7.432347    2.742182
    102          1           0        4.338055   -3.181508   -2.767834
    103          1           0        4.327920   -5.003489   -2.903067
    104          1           0        5.721010   -4.461719   -0.409305
    105          1           0        7.571571   -1.939232   -3.000130
    106          1           0        6.457579   -3.064149   -3.830228
    107          1           0        8.099223   -3.487537   -3.714856
    108          1           0        9.143757   -3.782650   -1.453854
    109          1           0        8.223855   -4.540677   -0.174834
    110          1           0        7.944670   -2.511510    0.880102
    111          1           0        7.679697   -1.634314   -0.680479
    112          1           0       10.346807   -2.339111   -0.868642
    113          1           0       10.140197   -1.935354    0.789413
    114          1           0        8.763011    0.019012   -0.947045
    115          1           0       11.709965    0.093455   -1.713882
    116          1           0       10.160539    0.798601   -2.392718
    117          1           0       10.364273   -0.886687   -2.470331
    118          1           0       10.758863    1.504964    0.123345
    119          1           0       10.985860    0.223220    1.197324
    120          1           0        9.068698    0.675810    2.421065
    121          1           0        8.057993    0.710755    1.026704
    122          1           0        9.938839    3.104450    1.320975
    123          1           0        8.883064    2.936258    2.656411
    124          1           0        6.968124    3.094652    0.669324
    125          1           0        9.107548    2.913283   -1.058698
    126          1           0        9.157873    4.609499   -0.676041
    127          1           0        7.681974    3.909311   -1.424688
    128          1           0        7.330457    5.502807    0.670746
    129          1           0        8.529390    5.123949    1.952880
    130          1           0        6.661257    5.230849    3.162924
    131          1           0        6.509945    3.557777    2.857358
    132          1           0        5.122073    5.253491    0.748800
    133          1           0        4.874163    5.758770    2.433156
    134          1           0        4.623670    2.833720    1.898029
    135          1           0        3.276083    2.760597    0.104828
    136          1           0        3.028030    4.477239    0.001406
    137          1           0        2.017381    3.532751    0.965081
    138          1           0        3.212990    4.856258    3.618264
    139          1           0        3.804500    3.208271    3.889542
    140          1           0        2.240969    3.492185    3.022786
 ---------------------------------------------------------------------

 SCF Done:  E(RZINDO/S) =  -474.210793058     A.U. after   20 cycles

 Excitation energies and oscillator strengths:

 Excited State   1:      Singlet-A      1.2579 eV  985.67 nm  f=0.5854  <S**2>=0.000
     175 ->178        -0.19473
     176 ->177         0.66084
 This state for optimization and/or second-order correction.
 Total Energy, E(CIS/TDA) =  -474.164567407
 Copying the excited state density for this state as the 1-particle RhoCI density.

 Excited State   2:      Singlet-A      1.9298 eV  642.48 nm  f=0.0266  <S**2>=0.000
     175 ->177         0.53367
     176 ->178         0.43875

 Excited State   3:      Singlet-A      2.8485 eV  435.27 nm  f=0.0067  <S**2>=0.000
     170 ->177         0.31931
     170 ->178         0.20820
     170 ->179         0.23403
     170 ->181        -0.17334
     170 ->182         0.28890
     170 ->183        -0.23014
     170 ->186         0.17291
     170 ->187         0.19315
     170 ->188        -0.11358
     170 ->199         0.11154

 Excited State   4:      Singlet-A      2.9429 eV  421.30 nm  f=0.5231  <S**2>=0.000
     168 ->179        -0.11837
     175 ->177        -0.27392
     176 ->178         0.39003
     176 ->179         0.33125
     176 ->180         0.29353

 Excited State   5:      Singlet-A      2.9526 eV  419.91 nm  f=0.1387  <S**2>=0.000
     168 ->177         0.26553
     168 ->179        -0.36899
     168 ->183        -0.17774
     168 ->186        -0.18863
     169 ->177        -0.13036
     169 ->179         0.16143
     171 ->177         0.11737
     175 ->177         0.14701
     176 ->178        -0.18987

 The electronic state is 1-A.
 Alpha  occ. eigenvalues --   -1.86353  -1.80857  -1.79466  -1.72614  -1.71021
 Alpha  occ. eigenvalues --   -1.69173  -1.67415  -1.62011  -1.59896  -1.58856
 Alpha  occ. eigenvalues --   -1.55035  -1.51009  -1.48790  -1.47933  -1.47458
 Alpha  occ. eigenvalues --   -1.44710  -1.42778  -1.41656  -1.39302  -1.38184
 Alpha  occ. eigenvalues --   -1.36487  -1.32249  -1.31593  -1.31004  -1.28729
 Alpha  occ. eigenvalues --   -1.28549  -1.25402  -1.20592  -1.19943  -1.18745
 Alpha  occ. eigenvalues --   -1.17799  -1.16125  -1.15170  -1.14859  -1.13907
 Alpha  occ. eigenvalues --   -1.12591  -1.10682  -1.09411  -1.05165  -1.03796
 Alpha  occ. eigenvalues --   -1.02067  -1.01389  -0.97789  -0.97494  -0.96094
 Alpha  occ. eigenvalues --   -0.95510  -0.95193  -0.94404  -0.93368  -0.92670
 Alpha  occ. eigenvalues --   -0.92062  -0.91580  -0.89478  -0.88851  -0.87186
 Alpha  occ. eigenvalues --   -0.86561  -0.84331  -0.82923  -0.82391  -0.80935
 Alpha  occ. eigenvalues --   -0.79782  -0.79237  -0.77404  -0.76736  -0.76206
 Alpha  occ. eigenvalues --   -0.75715  -0.74767  -0.74514  -0.74153  -0.73438
 Alpha  occ. eigenvalues --   -0.72226  -0.72087  -0.71490  -0.70507  -0.70185
 Alpha  occ. eigenvalues --   -0.69687  -0.69142  -0.68729  -0.68491  -0.68292
 Alpha  occ. eigenvalues --   -0.67764  -0.67338  -0.66716  -0.66550  -0.65852
 Alpha  occ. eigenvalues --   -0.65496  -0.65302  -0.64273  -0.64034  -0.63866
 Alpha  occ. eigenvalues --   -0.63780  -0.63050  -0.62629  -0.62277  -0.61979
 Alpha  occ. eigenvalues --   -0.61419  -0.61226  -0.60583  -0.60466  -0.59694
 Alpha  occ. eigenvalues --   -0.59666  -0.59263  -0.59111  -0.58767  -0.58648
 Alpha  occ. eigenvalues --   -0.58063  -0.57685  -0.57633  -0.57275  -0.56916
 Alpha  occ. eigenvalues --   -0.56612  -0.56183  -0.55670  -0.55360  -0.54868
 Alpha  occ. eigenvalues --   -0.54392  -0.54087  -0.54039  -0.53754  -0.52782
 Alpha  occ. eigenvalues --   -0.52305  -0.51857  -0.51738  -0.51435  -0.51325
 Alpha  occ. eigenvalues --   -0.51075  -0.50826  -0.50758  -0.50348  -0.50010
 Alpha  occ. eigenvalues --   -0.49861  -0.49709  -0.49529  -0.48958  -0.48913
 Alpha  occ. eigenvalues --   -0.48764  -0.48563  -0.48443  -0.48249  -0.47760
 Alpha  occ. eigenvalues --   -0.47570  -0.47553  -0.47153  -0.46872  -0.46705
 Alpha  occ. eigenvalues --   -0.46581  -0.46492  -0.45990  -0.45811  -0.45513
 Alpha  occ. eigenvalues --   -0.45424  -0.45068  -0.45030  -0.44634  -0.44215
 Alpha  occ. eigenvalues --   -0.44157  -0.44018  -0.43180  -0.42994  -0.42964
 Alpha  occ. eigenvalues --   -0.42262  -0.41365  -0.41215  -0.39575  -0.39258
 Alpha  occ. eigenvalues --   -0.38646  -0.37456  -0.35963  -0.35063  -0.34163
 Alpha  occ. eigenvalues --   -0.33945  -0.32776  -0.32582  -0.32023  -0.26707
 Alpha  occ. eigenvalues --   -0.21885
 Alpha virt. eigenvalues --   -0.08464  -0.02445  -0.00635   0.00788   0.01111
 Alpha virt. eigenvalues --    0.01191   0.01709   0.02789   0.04201   0.04472
 Alpha virt. eigenvalues --    0.06233   0.06698   0.07364   0.07982   0.08162

 Mulliken charges:
               1
     1  Mg   0.435725
     2  C   -0.072800
     3  C   -0.077495
     4  C   -0.046424
     5  C   -0.059235
     6  N   -0.283062
     7  C    0.149257
     8  C    0.008980
     9  C   -0.004672
    10  C    0.103804
    11  C   -0.049757
    12  C   -0.014747
    13  C   -0.002719
    14  C    0.454754
    15  O   -0.493085
    16  O   -0.293492
    17  N   -0.320446
    18  C    0.093699
    19  C    0.006671
    20  C   -0.065353
    21  C    0.124596
    22  C   -0.045520
    23  C    0.323897
    24  O   -0.536490
    25  C   -0.038288
    26  N   -0.242075
    27  C    0.119491
    28  C    0.001486
    29  C    0.000158
    30  C    0.133796
    31  C   -0.056077
    32  C   -0.033831
    33  C   -0.060130
    34  N   -0.320587
    35  C    0.096059
    36  C    0.048979
    37  C   -0.051483
    38  C    0.143896
    39  C   -0.044486
    40  C    0.338503
    41  O   -0.502529
    42  C    0.058004
    43  C    0.498377
    44  O   -0.538346
    45  O   -0.272308
    46  C    0.076515
    47  C    0.103766
    48  C   -0.100843
    49  C    0.004159
    50  C   -0.041532
    51  C   -0.026044
    52  C   -0.044435
    53  C   -0.042628
    54  C   -0.009800
    55  C   -0.063366
    56  C   -0.039122
    57  C   -0.036650
    58  C   -0.026236
    59  C   -0.015563
    60  C   -0.058796
    61  C   -0.029090
    62  C   -0.042747
    63  C   -0.034932
    64  C   -0.003566
    65  C   -0.065665
    66  C   -0.054020
    67  H    0.021551
    68  H    0.048682
    69  H    0.025987
    70  H    0.039305
    71  H    0.024596
    72  H    0.037180
    73  H    0.018171
    74  H    0.023791
    75  H    0.039180
    76  H    0.020486
    77  H    0.052659
    78  H    0.030955
    79  H    0.041872
    80  H    0.036277
    81  H    0.030914
    82  H    0.041237
    83  H    0.024088
    84  H    0.033864
    85  H    0.040416
    86  H    0.035217
    87  H    0.026881
    88  H    0.021926
    89  H    0.019948
    90  H    0.015930
    91  H    0.018588
    92  H    0.022651
    93  H    0.030441
    94  H    0.016211
    95  H    0.024743
    96  H    0.030600
    97  H    0.034646
    98  H    0.049648
    99  H    0.054092
   100  H    0.032296
   101  H    0.034467
   102  H    0.050567
   103  H    0.054921
   104  H    0.035562
   105  H    0.037088
   106  H    0.014821
   107  H    0.024732
   108  H    0.021129
   109  H    0.023257
   110  H    0.026290
   111  H    0.022709
   112  H    0.019622
   113  H    0.013989
   114  H    0.023608
   115  H    0.033983
   116  H    0.013998
   117  H    0.011427
   118  H    0.015768
   119  H    0.021095
   120  H    0.013641
   121  H    0.026460
   122  H    0.018895
   123  H    0.016738
   124  H    0.022142
   125  H    0.012862
   126  H    0.018161
   127  H    0.021324
   128  H    0.015988
   129  H    0.016187
   130  H   -0.001869
   131  H    0.025028
   132  H    0.022119
   133  H    0.021733
   134  H    0.021048
   135  H    0.010561
   136  H    0.015296
   137  H    0.015807
   138  H    0.022601
   139  H    0.015678
   140  H    0.021438
 Sum of Mulliken charges =  -0.00000

 Dipole moment (field-independent basis, Debye):
    X=              3.7200    Y=              1.1177    Z=             -3.0355  Tot=              4.9296
 N-N= 4.509106442113D+03 E-N= 0.000000000000D+00  KE=-9.692020807887D+03
 Leave Link  601 at Thu May  5 08:19:57 2022, MaxMem=  6710886400 cpu:               0.8 elap:               0.0
 (Enter /sw/apps/gaussian-16.0/g16/l9999.exe)
 1\1\GINC-BP1-COMPUTE123\SP\RZINDO CIS\STO-3G\C55H74Mg1N4O6\OF15641\05-
 May-2022\0\\#p ZINDO=(nstates=5)\\step_751_chromophore_12 ZINDO\\0,1\M
 g,0,47.457,15.797,28.23\C,0,45.3,15.359,30.82\C,0,49.237,17.99,30.033\
 C,0,48.959,16.986,25.257\C,0,45.229,14.023,26.145\N,0,47.206,16.639,30
 .146\C,0,46.381,16.183,31.104\C,0,46.803,16.613,32.537\C,0,47.91,17.69
 9,32.234\C,0,48.207,17.395,30.743\C,0,47.561,19.201,32.519\C,0,47.42,1
 5.502,33.402\C,0,47.239,15.895,34.941\C,0,48.414,15.592,35.933\O,0,49.

 Normal termination of Gaussian 16 at Thu May  5 08:19:58 2022.
