 Gaussian 16, Revision A.03,
 Gaussian 16:  ES64L-G16RevA.03 25-Dec-2016

 ------------------------------
 #p blyp/Def2SVP td=(nstates=5)
 ------------------------------

 ---------------------------------------------------
 step_1151_chromophore_12 TDDFT with blyp functional
 ---------------------------------------------------
 Symbolic Z-matrix:
 Charge =  0 Multiplicity = 1

                         Standard orientation:
 ---------------------------------------------------------------------
 Center     Atomic      Atomic             Coordinates (Angstroms)
 Number     Number       Type             X           Y           Z
 ---------------------------------------------------------------------
      1         12           0       -4.354651    0.471659   -0.681279
      2          6           0       -3.525409   -2.801077    0.489765
      3          6           0       -1.061085    1.289053   -0.471996
      4          6           0       -5.239063    3.666443   -0.917953
      5          6           0       -7.656429   -0.323335    0.383511
      6          7           0       -2.531769   -0.680002   -0.043731
      7          6           0       -2.387292   -2.009659    0.221507
      8          6           0       -0.935983   -2.466779    0.078988
      9          6           0       -0.196666   -1.096229    0.106814
     10          6           0       -1.307092   -0.069695   -0.188804
     11          6           0        0.430951   -0.745734    1.470249
     12          6           0       -0.572164   -3.223762   -1.290063
     13          6           0        0.553219   -4.258963   -1.296595
     14          6           0        1.798925   -3.910412   -2.189093
     15          8           0        1.763213   -3.553412   -3.373451
     16          8           0        2.985599   -3.912366   -1.422146
     17          7           0       -3.348287    2.204301   -0.748469
     18          6           0       -2.002631    2.331655   -0.744432
     19          6           0       -1.563850    3.776897   -1.068924
     20          6           0       -2.826508    4.499656   -1.162761
     21          6           0       -3.904554    3.477663   -1.022957
     22          6           0       -0.128823    4.244029   -1.197667
     23          6           0       -3.098909    6.094007   -1.391470
     24          8           0       -4.234421    6.619796   -1.588041
     25          6           0       -1.965336    6.956080   -1.453794
     26          7           0       -6.134272    1.534605   -0.181212
     27          6           0       -6.281982    2.835357   -0.455228
     28          6           0       -7.741401    3.344502   -0.318242
     29          6           0       -8.495220    2.074279    0.168927
     30          6           0       -7.390453    1.001297    0.032589
     31          6           0       -7.869526    4.531346    0.621669
     32          6           0       -9.800275    1.801422   -0.650057
     33          6           0       -9.800226    0.980808   -1.884710
     34          7           0       -5.413163   -1.222250    0.101109
     35          6           0       -6.794935   -1.391101    0.311194
     36          6           0       -7.055615   -2.801397    0.677725
     37          6           0       -5.832363   -3.416125    0.790336
     38          6           0       -4.850654   -2.355008    0.419193
     39          6           0       -8.411188   -3.337990    1.018950
     40          6           0       -5.108968   -4.626792    1.222441
     41          8           0       -5.450759   -5.710140    1.632929
     42          6           0       -3.634025   -4.298379    0.824536
     43          6           0       -2.732618   -4.592237    1.995737
     44          8           0       -2.422421   -3.791139    2.915907
     45          8           0       -2.431551   -5.932755    1.992829
     46          6           0       -1.916088   -6.593152    3.132006
     47          6           0        4.153263   -3.725195   -2.186336
     48          6           0        5.376058   -3.971402   -1.326369
     49          6           0        6.651866   -3.692770   -1.654678
     50          6           0        7.027286   -3.198816   -3.035486
     51          6           0        7.941873   -3.911311   -0.758711
     52          6           0        8.390539   -2.657870    0.014950
     53          6           0        9.904133   -2.631284    0.037523
     54          6           0       10.627598   -1.428465   -0.534479
     55          6           0       12.203025   -1.790288   -0.578661
     56          6           0       10.408325   -0.223442    0.431443
     57          6           0       10.083946    1.180458   -0.251297
     58          6           0        8.664083    1.677354    0.180577
     59          6           0        8.377676    3.191147    0.364311
     60          6           0        9.208093    4.114524   -0.583061
     61          6           0        8.375497    3.655527    1.919010
     62          6           0        7.030488    3.633629    2.581933
     63          6           0        6.435628    5.025865    2.848164
     64          6           0        4.970308    5.162701    2.352989
     65          6           0        4.803612    6.015096    1.101636
     66          6           0        3.891764    5.565558    3.378544
     67          1           0       -0.020370    1.620384   -0.489828
     68          1           0       -5.500980    4.669697   -1.263003
     69          1           0       -8.699473   -0.580428    0.579164
     70          1           0       -0.604661   -3.038330    0.946686
     71          1           0        0.548564   -0.951517   -0.675802
     72          1           0        1.503090   -0.937394    1.500223
     73          1           0       -0.130621   -1.264056    2.247898
     74          1           0        0.430793    0.341311    1.548091
     75          1           0       -0.258393   -2.483472   -2.025869
     76          1           0       -1.486193   -3.600049   -1.751480
     77          1           0        0.151692   -5.153937   -1.770140
     78          1           0        0.854458   -4.460985   -0.268134
     79          1           0        0.243548    4.583348   -0.230921
     80          1           0       -0.040175    4.948613   -2.025416
     81          1           0        0.502550    3.433914   -1.561706
     82          1           0       -1.354437    6.804995   -0.563620
     83          1           0       -2.358643    7.967834   -1.554767
     84          1           0       -1.448528    6.672748   -2.370933
     85          1           0       -7.960130    3.763897   -1.300332
     86          1           0       -8.874028    2.097949    1.190132
     87          1           0       -8.948505    4.687521    0.616515
     88          1           0       -7.234444    5.340137    0.259350
     89          1           0       -7.483080    4.308660    1.616149
     90          1           0      -10.189519    2.785427   -0.913398
     91          1           0      -10.545220    1.292532   -0.039403
     92          1           0       -8.837530    0.591730   -2.218850
     93          1           0       -9.992662    1.526003   -2.809067
     94          1           0      -10.584241    0.228596   -1.804029
     95          1           0       -8.585491   -3.078938    2.063503
     96          1           0       -8.505810   -4.423716    0.985244
     97          1           0       -9.202729   -2.867700    0.435889
     98          1           0       -3.428830   -4.943152   -0.029687
     99          1           0       -1.079902   -7.177862    2.749659
    100          1           0       -2.639800   -7.345559    3.443941
    101          1           0       -1.536233   -5.996055    3.960734
    102          1           0        4.239844   -2.679707   -2.482246
    103          1           0        4.200301   -4.436670   -3.010655
    104          1           0        5.173352   -4.409490   -0.349283
    105          1           0        7.506853   -3.954885   -3.658660
    106          1           0        7.700323   -2.344139   -2.974188
    107          1           0        6.165338   -2.881299   -3.621439
    108          1           0        8.695584   -4.271809   -1.458630
    109          1           0        7.759232   -4.588395    0.076448
    110          1           0        7.995713   -2.715472    1.028518
    111          1           0        7.976594   -1.754204   -0.432393
    112          1           0       10.349229   -3.505433   -0.437577
    113          1           0       10.161603   -2.720178    1.092818
    114          1           0       10.213975   -1.177311   -1.511181
    115          1           0       12.805481   -0.982788   -0.162114
    116          1           0       12.501000   -2.056019   -1.593118
    117          1           0       12.410412   -2.592085    0.129761
    118          1           0       11.334387   -0.016569    0.966698
    119          1           0        9.706523   -0.439954    1.237074
    120          1           0       10.069009    1.054046   -1.333914
    121          1           0       10.853353    1.827547    0.168992
    122          1           0        8.257884    1.259697    1.100974
    123          1           0        8.002548    1.331162   -0.614041
    124          1           0        7.377650    3.326333   -0.047449
    125          1           0        9.954739    3.562120   -1.153894
    126          1           0        9.772553    4.774963    0.074774
    127          1           0        8.510484    4.709379   -1.173222
    128          1           0        8.869272    4.627188    1.894648
    129          1           0        9.033679    2.892436    2.335574
    130          1           0        7.240615    3.129228    3.525049
    131          1           0        6.292963    3.048576    2.032975
    132          1           0        6.993036    5.746629    2.249378
    133          1           0        6.546291    5.241870    3.911041
    134          1           0        4.598450    4.194642    2.019882
    135          1           0        3.898573    6.620737    1.149759
    136          1           0        4.872752    5.398984    0.205768
    137          1           0        5.626378    6.723684    1.001659
    138          1           0        4.076924    6.537130    3.835408
    139          1           0        3.933318    4.761796    4.114200
    140          1           0        2.865723    5.653640    3.022691
 ---------------------------------------------------------------------

 SCF Done:  E(RB-LYP) =  -3007.36986008     A.U. after   21 cycles

 Excitation energies and oscillator strengths:

 Excited State   1:      Singlet-A      1.7794 eV  696.78 nm  f=0.3139  <S**2>=0.000
     245 -> 248       -0.16945
     245 -> 249        0.10826
     246 -> 247        0.68725
     246 <- 247       -0.14409
 This state for optimization and/or second-order correction.
 Total Energy, E(TD-HF/TD-DFT) =  -3007.30446890
 Copying the excited state density for this state as the 1-particle RhoCI density.

 Excited State   2:      Singlet-A      2.0128 eV  615.96 nm  f=0.0354  <S**2>=0.000
     245 -> 247        0.63206
     246 -> 248        0.25963
     246 -> 249       -0.14463

 Excited State   3:      Singlet-A      2.3608 eV  525.17 nm  f=0.0004  <S**2>=0.000
     244 -> 247        0.69788

 Excited State   4:      Singlet-A      2.3876 eV  519.28 nm  f=0.0008  <S**2>=0.000
     243 -> 247        0.70084

 Excited State   5:      Singlet-A      2.5140 eV  493.17 nm  f=0.0172  <S**2>=0.000
     246 -> 248        0.50292
     246 -> 249        0.43725
     246 -> 250        0.11510

 The electronic state is 1-A.
 Alpha  occ. eigenvalues --  -46.27485 -18.82614 -18.81767 -18.78099 -18.76553
 Alpha  occ. eigenvalues --  -18.76346 -18.76284 -14.03063 -14.02839 -14.01234
 Alpha  occ. eigenvalues --  -14.00729 -10.05160 -10.03826 -10.01011 -10.00172
 Alpha  occ. eigenvalues --   -9.97755  -9.97091  -9.96372  -9.96312  -9.96149
 Alpha  occ. eigenvalues --   -9.95863  -9.95811  -9.95528  -9.95009  -9.94948
 Alpha  occ. eigenvalues --   -9.94438  -9.94266  -9.94249  -9.94154  -9.93862
 Alpha  occ. eigenvalues --   -9.93807  -9.93693  -9.93593  -9.93467  -9.93369
 Alpha  occ. eigenvalues --   -9.93277  -9.92862  -9.92785  -9.92701  -9.92522
 Alpha  occ. eigenvalues --   -9.92417  -9.92304  -9.92279  -9.92274  -9.92146
 Alpha  occ. eigenvalues --   -9.92118  -9.91806  -9.91797  -9.91665  -9.91606
 Alpha  occ. eigenvalues --   -9.91568  -9.91522  -9.91498  -9.91405  -9.91404
 Alpha  occ. eigenvalues --   -9.91260  -9.91228  -9.91155  -9.91117  -9.91095
 Alpha  occ. eigenvalues --   -9.91033  -9.90988  -9.90882  -9.90787  -9.90668
 Alpha  occ. eigenvalues --   -9.90573  -2.92182  -1.72542  -1.72074  -1.71920
 Alpha  occ. eigenvalues --   -0.98046  -0.97143  -0.92431  -0.90519  -0.90248
 Alpha  occ. eigenvalues --   -0.88407  -0.86318  -0.85627  -0.85057  -0.83959
 Alpha  occ. eigenvalues --   -0.74652  -0.73486  -0.72819  -0.72500  -0.72357
 Alpha  occ. eigenvalues --   -0.71790  -0.71564  -0.70780  -0.70476  -0.70282
 Alpha  occ. eigenvalues --   -0.70007  -0.69060  -0.68240  -0.67837  -0.67386
 Alpha  occ. eigenvalues --   -0.67181  -0.66798  -0.65662  -0.65009  -0.64224
 Alpha  occ. eigenvalues --   -0.63938  -0.62603  -0.62032  -0.61786  -0.60486
 Alpha  occ. eigenvalues --   -0.60151  -0.59907  -0.59600  -0.59406  -0.58947
 Alpha  occ. eigenvalues --   -0.58115  -0.57108  -0.56328  -0.55230  -0.54928
 Alpha  occ. eigenvalues --   -0.53952  -0.53324  -0.52638  -0.51816  -0.51579
 Alpha  occ. eigenvalues --   -0.50928  -0.50662  -0.50160  -0.50050  -0.49912
 Alpha  occ. eigenvalues --   -0.49645  -0.49428  -0.48261  -0.47064  -0.46326
 Alpha  occ. eigenvalues --   -0.46135  -0.45748  -0.45265  -0.45034  -0.44214
 Alpha  occ. eigenvalues --   -0.43862  -0.43824  -0.43292  -0.42726  -0.42331
 Alpha  occ. eigenvalues --   -0.42103  -0.41915  -0.41639  -0.41607  -0.41061
 Alpha  occ. eigenvalues --   -0.40939  -0.40812  -0.40567  -0.40318  -0.40241
 Alpha  occ. eigenvalues --   -0.40143  -0.39801  -0.39753  -0.39475  -0.39312
 Alpha  occ. eigenvalues --   -0.38989  -0.38846  -0.38756  -0.38483  -0.38299
 Alpha  occ. eigenvalues --   -0.38016  -0.37888  -0.37807  -0.37293  -0.37246
 Alpha  occ. eigenvalues --   -0.37116  -0.36986  -0.36822  -0.36647  -0.36551
 Alpha  occ. eigenvalues --   -0.36392  -0.36162  -0.36082  -0.35874  -0.35563
 Alpha  occ. eigenvalues --   -0.35430  -0.35256  -0.35216  -0.35014  -0.34516
 Alpha  occ. eigenvalues --   -0.34404  -0.34287  -0.34174  -0.33859  -0.33756
 Alpha  occ. eigenvalues --   -0.33738  -0.33507  -0.33257  -0.33187  -0.32956
 Alpha  occ. eigenvalues --   -0.32771  -0.32580  -0.32469  -0.32408  -0.32081
 Alpha  occ. eigenvalues --   -0.31865  -0.31810  -0.31752  -0.31519  -0.31431
 Alpha  occ. eigenvalues --   -0.31241  -0.31206  -0.30963  -0.30705  -0.30536
 Alpha  occ. eigenvalues --   -0.30467  -0.30274  -0.30076  -0.29709  -0.29544
 Alpha  occ. eigenvalues --   -0.29520  -0.29036  -0.28975  -0.28814  -0.28804
 Alpha  occ. eigenvalues --   -0.28618  -0.28507  -0.27969  -0.27683  -0.27544
 Alpha  occ. eigenvalues --   -0.27351  -0.27200  -0.26949  -0.26511  -0.26177
 Alpha  occ. eigenvalues --   -0.26075  -0.26044  -0.26001  -0.25722  -0.25236
 Alpha  occ. eigenvalues --   -0.24989  -0.24444  -0.24013  -0.23775  -0.23653
 Alpha  occ. eigenvalues --   -0.23126  -0.22782  -0.21859  -0.21422  -0.21089
 Alpha  occ. eigenvalues --   -0.20674  -0.20166  -0.19432  -0.19305  -0.16922
 Alpha  occ. eigenvalues --   -0.15039
 Alpha virt. eigenvalues --   -0.10766  -0.07029  -0.06342  -0.05100  -0.04346
 Alpha virt. eigenvalues --   -0.04236  -0.02871  -0.01556  -0.01246   0.00054
 Alpha virt. eigenvalues --    0.01395   0.01591   0.01892   0.02223   0.02599

 Mulliken charges:
               1
     1  Mg   0.719601
     2  C    0.049962
     3  C   -0.068613
     4  C   -0.066988
     5  C   -0.051014
     6  N   -0.212407
     7  C   -0.090317
     8  C    0.048170
     9  C   -0.034054
    10  C    0.040706
    11  C    0.144661
    12  C    0.107742
    13  C    0.174831
    14  C    0.074905
    15  O   -0.197367
    16  O   -0.270182
    17  N   -0.328409
    18  C    0.126033
    19  C   -0.170624
    20  C   -0.009301
    21  C    0.094977
    22  C    0.168137
    23  C   -0.037603
    24  O   -0.196182
    25  C    0.160997
    26  N   -0.208016
    27  C    0.030457
    28  C    0.030053
    29  C    0.077512
    30  C    0.021675
    31  C    0.118214
    32  C    0.053978
    33  C    0.069594
    34  N   -0.208601
    35  C    0.110593
    36  C   -0.194241
    37  C    0.067639
    38  C    0.032170
    39  C    0.169608
    40  C   -0.018193
    41  O   -0.104814
    42  C    0.027084
    43  C    0.122724
    44  O   -0.216962
    45  O   -0.249767
    46  C    0.215875
    47  C    0.317575
    48  C   -0.128124
    49  C   -0.130136
    50  C    0.116729
    51  C    0.126821
    52  C    0.094535
    53  C    0.073118
    54  C   -0.065409
    55  C    0.105525
    56  C    0.095227
    57  C    0.078279
    58  C    0.066593
    59  C   -0.112096
    60  C    0.098976
    61  C    0.095685
    62  C    0.091541
    63  C    0.141175
    64  C   -0.097021
    65  C    0.100414
    66  C    0.079710
    67  H   -0.068112
    68  H   -0.043447
    69  H   -0.069581
    70  H   -0.013792
    71  H   -0.031179
    72  H   -0.016841
    73  H    0.020403
    74  H   -0.025732
    75  H   -0.019299
    76  H   -0.029420
    77  H    0.003341
    78  H   -0.008030
    79  H    0.023307
    80  H   -0.005705
    81  H   -0.006748
    82  H    0.016933
    83  H    0.000868
    84  H    0.021302
    85  H   -0.019088
    86  H   -0.019398
    87  H   -0.005218
    88  H    0.004997
    89  H   -0.014521
    90  H   -0.021671
    91  H   -0.026163
    92  H   -0.009160
    93  H   -0.027825
    94  H   -0.008523
    95  H    0.003152
    96  H    0.004490
    97  H   -0.005317
    98  H    0.010486
    99  H   -0.005571
   100  H    0.016494
   101  H    0.021570
   102  H    0.008629
   103  H    0.008228
   104  H   -0.043488
   105  H    0.004028
   106  H   -0.010853
   107  H   -0.019696
   108  H   -0.019113
   109  H   -0.028564
   110  H   -0.027912
   111  H   -0.021567
   112  H   -0.033052
   113  H   -0.039431
   114  H   -0.037427
   115  H   -0.019615
   116  H   -0.003601
   117  H   -0.018783
   118  H   -0.049145
   119  H   -0.031898
   120  H   -0.011105
   121  H   -0.018343
   122  H   -0.035383
   123  H   -0.036617
   124  H   -0.047690
   125  H   -0.009072
   126  H   -0.031268
   127  H   -0.009199
   128  H   -0.029571
   129  H   -0.038264
   130  H   -0.035230
   131  H   -0.021143
   132  H   -0.031729
   133  H   -0.028067
   134  H   -0.036529
   135  H   -0.022241
   136  H   -0.015967
   137  H   -0.027951
   138  H   -0.017046
   139  H   -0.016584
   140  H   -0.018102
 Sum of Mulliken charges =  -0.00000

 Dipole moment (field-independent basis, Debye):
    X=              2.8866    Y=              0.8720    Z=             -1.5179  Tot=              3.3759
 Quadrupole moment (field-independent basis, Debye-Ang):
   XX=           -372.5318   YY=           -421.5427   ZZ=           -414.2757
   XY=             -9.1877   XZ=              9.5556   YZ=              2.9265

 Normal termination of Gaussian 16 at Wed May  4 00:42:37 2022.
