 Gaussian 16, Revision A.03,
 Gaussian 16:  ES64L-G16RevA.03 25-Dec-2016

 -----------------------------------
 #p cam-b3lyp/Def2SVP td=(nstates=5)
 -----------------------------------

 --------------------------------------------------------
 step_1151_chromophore_12 TDDFT with cam-b3lyp functional
 --------------------------------------------------------
 Symbolic Z-matrix:
 Charge =  0 Multiplicity = 1

                         Standard orientation:
 ---------------------------------------------------------------------
 Center     Atomic      Atomic             Coordinates (Angstroms)
 Number     Number       Type             X           Y           Z
 ---------------------------------------------------------------------
      1         12           0       -4.354651    0.471659   -0.681279
      2          6           0       -3.525409   -2.801077    0.489765
      3          6           0       -1.061085    1.289053   -0.471996
      4          6           0       -5.239063    3.666443   -0.917953
      5          6           0       -7.656429   -0.323335    0.383511
      6          7           0       -2.531769   -0.680002   -0.043731
      7          6           0       -2.387292   -2.009659    0.221507
      8          6           0       -0.935983   -2.466779    0.078988
      9          6           0       -0.196666   -1.096229    0.106814
     10          6           0       -1.307092   -0.069695   -0.188804
     11          6           0        0.430951   -0.745734    1.470249
     12          6           0       -0.572164   -3.223762   -1.290063
     13          6           0        0.553219   -4.258963   -1.296595
     14          6           0        1.798925   -3.910412   -2.189093
     15          8           0        1.763213   -3.553412   -3.373451
     16          8           0        2.985599   -3.912366   -1.422146
     17          7           0       -3.348287    2.204301   -0.748469
     18          6           0       -2.002631    2.331655   -0.744432
     19          6           0       -1.563850    3.776897   -1.068924
     20          6           0       -2.826508    4.499656   -1.162761
     21          6           0       -3.904554    3.477663   -1.022957
     22          6           0       -0.128823    4.244029   -1.197667
     23          6           0       -3.098909    6.094007   -1.391470
     24          8           0       -4.234421    6.619796   -1.588041
     25          6           0       -1.965336    6.956080   -1.453794
     26          7           0       -6.134272    1.534605   -0.181212
     27          6           0       -6.281982    2.835357   -0.455228
     28          6           0       -7.741401    3.344502   -0.318242
     29          6           0       -8.495220    2.074279    0.168927
     30          6           0       -7.390453    1.001297    0.032589
     31          6           0       -7.869526    4.531346    0.621669
     32          6           0       -9.800275    1.801422   -0.650057
     33          6           0       -9.800226    0.980808   -1.884710
     34          7           0       -5.413163   -1.222250    0.101109
     35          6           0       -6.794935   -1.391101    0.311194
     36          6           0       -7.055615   -2.801397    0.677725
     37          6           0       -5.832363   -3.416125    0.790336
     38          6           0       -4.850654   -2.355008    0.419193
     39          6           0       -8.411188   -3.337990    1.018950
     40          6           0       -5.108968   -4.626792    1.222441
     41          8           0       -5.450759   -5.710140    1.632929
     42          6           0       -3.634025   -4.298379    0.824536
     43          6           0       -2.732618   -4.592237    1.995737
     44          8           0       -2.422421   -3.791139    2.915907
     45          8           0       -2.431551   -5.932755    1.992829
     46          6           0       -1.916088   -6.593152    3.132006
     47          6           0        4.153263   -3.725195   -2.186336
     48          6           0        5.376058   -3.971402   -1.326369
     49          6           0        6.651866   -3.692770   -1.654678
     50          6           0        7.027286   -3.198816   -3.035486
     51          6           0        7.941873   -3.911311   -0.758711
     52          6           0        8.390539   -2.657870    0.014950
     53          6           0        9.904133   -2.631284    0.037523
     54          6           0       10.627598   -1.428465   -0.534479
     55          6           0       12.203025   -1.790288   -0.578661
     56          6           0       10.408325   -0.223442    0.431443
     57          6           0       10.083946    1.180458   -0.251297
     58          6           0        8.664083    1.677354    0.180577
     59          6           0        8.377676    3.191147    0.364311
     60          6           0        9.208093    4.114524   -0.583061
     61          6           0        8.375497    3.655527    1.919010
     62          6           0        7.030488    3.633629    2.581933
     63          6           0        6.435628    5.025865    2.848164
     64          6           0        4.970308    5.162701    2.352989
     65          6           0        4.803612    6.015096    1.101636
     66          6           0        3.891764    5.565558    3.378544
     67          1           0       -0.020370    1.620384   -0.489828
     68          1           0       -5.500980    4.669697   -1.263003
     69          1           0       -8.699473   -0.580428    0.579164
     70          1           0       -0.604661   -3.038330    0.946686
     71          1           0        0.548564   -0.951517   -0.675802
     72          1           0        1.503090   -0.937394    1.500223
     73          1           0       -0.130621   -1.264056    2.247898
     74          1           0        0.430793    0.341311    1.548091
     75          1           0       -0.258393   -2.483472   -2.025869
     76          1           0       -1.486193   -3.600049   -1.751480
     77          1           0        0.151692   -5.153937   -1.770140
     78          1           0        0.854458   -4.460985   -0.268134
     79          1           0        0.243548    4.583348   -0.230921
     80          1           0       -0.040175    4.948613   -2.025416
     81          1           0        0.502550    3.433914   -1.561706
     82          1           0       -1.354437    6.804995   -0.563620
     83          1           0       -2.358643    7.967834   -1.554767
     84          1           0       -1.448528    6.672748   -2.370933
     85          1           0       -7.960130    3.763897   -1.300332
     86          1           0       -8.874028    2.097949    1.190132
     87          1           0       -8.948505    4.687521    0.616515
     88          1           0       -7.234444    5.340137    0.259350
     89          1           0       -7.483080    4.308660    1.616149
     90          1           0      -10.189519    2.785427   -0.913398
     91          1           0      -10.545220    1.292532   -0.039403
     92          1           0       -8.837530    0.591730   -2.218850
     93          1           0       -9.992662    1.526003   -2.809067
     94          1           0      -10.584241    0.228596   -1.804029
     95          1           0       -8.585491   -3.078938    2.063503
     96          1           0       -8.505810   -4.423716    0.985244
     97          1           0       -9.202729   -2.867700    0.435889
     98          1           0       -3.428830   -4.943152   -0.029687
     99          1           0       -1.079902   -7.177862    2.749659
    100          1           0       -2.639800   -7.345559    3.443941
    101          1           0       -1.536233   -5.996055    3.960734
    102          1           0        4.239844   -2.679707   -2.482246
    103          1           0        4.200301   -4.436670   -3.010655
    104          1           0        5.173352   -4.409490   -0.349283
    105          1           0        7.506853   -3.954885   -3.658660
    106          1           0        7.700323   -2.344139   -2.974188
    107          1           0        6.165338   -2.881299   -3.621439
    108          1           0        8.695584   -4.271809   -1.458630
    109          1           0        7.759232   -4.588395    0.076448
    110          1           0        7.995713   -2.715472    1.028518
    111          1           0        7.976594   -1.754204   -0.432393
    112          1           0       10.349229   -3.505433   -0.437577
    113          1           0       10.161603   -2.720178    1.092818
    114          1           0       10.213975   -1.177311   -1.511181
    115          1           0       12.805481   -0.982788   -0.162114
    116          1           0       12.501000   -2.056019   -1.593118
    117          1           0       12.410412   -2.592085    0.129761
    118          1           0       11.334387   -0.016569    0.966698
    119          1           0        9.706523   -0.439954    1.237074
    120          1           0       10.069009    1.054046   -1.333914
    121          1           0       10.853353    1.827547    0.168992
    122          1           0        8.257884    1.259697    1.100974
    123          1           0        8.002548    1.331162   -0.614041
    124          1           0        7.377650    3.326333   -0.047449
    125          1           0        9.954739    3.562120   -1.153894
    126          1           0        9.772553    4.774963    0.074774
    127          1           0        8.510484    4.709379   -1.173222
    128          1           0        8.869272    4.627188    1.894648
    129          1           0        9.033679    2.892436    2.335574
    130          1           0        7.240615    3.129228    3.525049
    131          1           0        6.292963    3.048576    2.032975
    132          1           0        6.993036    5.746629    2.249378
    133          1           0        6.546291    5.241870    3.911041
    134          1           0        4.598450    4.194642    2.019882
    135          1           0        3.898573    6.620737    1.149759
    136          1           0        4.872752    5.398984    0.205768
    137          1           0        5.626378    6.723684    1.001659
    138          1           0        4.076924    6.537130    3.835408
    139          1           0        3.933318    4.761796    4.114200
    140          1           0        2.865723    5.653640    3.022691
 ---------------------------------------------------------------------

 SCF Done:  E(RCAM-B3LYP) =  -3007.15425262     A.U. after   16 cycles

 Excitation energies and oscillator strengths:

 Excited State   1:      Singlet-A      1.7173 eV  721.96 nm  f=0.3753  <S**2>=0.000
     245 -> 248       -0.18676
     246 -> 247        0.68182
     245 <- 248       -0.10643
 This state for optimization and/or second-order correction.
 Total Energy, E(TD-HF/TD-DFT) =  -3007.09114239
 Copying the excited state density for this state as the 1-particle RhoCI density.

 Excited State   2:      Singlet-A      2.2910 eV  541.17 nm  f=0.0260  <S**2>=0.000
     245 -> 247        0.58487
     246 -> 248        0.38700

 Excited State   3:      Singlet-A      3.3202 eV  373.43 nm  f=0.0306  <S**2>=0.000
     246 -> 248        0.12011
     246 -> 250        0.68258

 Excited State   4:      Singlet-A      3.3613 eV  368.86 nm  f=0.7279  <S**2>=0.000
     245 -> 247       -0.37222
     246 -> 248        0.56894
     246 -> 250       -0.14568
     245 <- 247        0.10445

 Excited State   5:      Singlet-A      3.6826 eV  336.67 nm  f=0.0113  <S**2>=0.000
     246 -> 249        0.67578

 The electronic state is 1-A.
 Alpha  occ. eigenvalues --  -46.89089 -19.25461 -19.24664 -19.21170 -19.19964
 Alpha  occ. eigenvalues --  -19.19439 -19.19381 -14.42063 -14.41489 -14.39862
 Alpha  occ. eigenvalues --  -14.39082 -10.40657 -10.39451 -10.36571 -10.35451
 Alpha  occ. eigenvalues --  -10.31655 -10.31049 -10.30938 -10.30796 -10.30777
 Alpha  occ. eigenvalues --  -10.30285 -10.30025 -10.29986 -10.29850 -10.29201
 Alpha  occ. eigenvalues --  -10.28831 -10.28501 -10.28461 -10.28224 -10.28148
 Alpha  occ. eigenvalues --  -10.28000 -10.27878 -10.27516 -10.27418 -10.27246
 Alpha  occ. eigenvalues --  -10.27242 -10.27006 -10.26772 -10.26644 -10.26523
 Alpha  occ. eigenvalues --  -10.26287 -10.26253 -10.26045 -10.25949 -10.25874
 Alpha  occ. eigenvalues --  -10.25768 -10.25575 -10.25546 -10.25536 -10.25470
 Alpha  occ. eigenvalues --  -10.25348 -10.25281 -10.25220 -10.25192 -10.25140
 Alpha  occ. eigenvalues --  -10.25094 -10.25063 -10.24848 -10.24761 -10.24732
 Alpha  occ. eigenvalues --  -10.24704 -10.24638 -10.24529 -10.24416 -10.24318
 Alpha  occ. eigenvalues --  -10.24230  -3.17682  -1.92518  -1.92131  -1.92007
 Alpha  occ. eigenvalues --   -1.16466  -1.15605  -1.10776  -1.08772  -1.08435
 Alpha  occ. eigenvalues --   -1.06369  -1.03956  -1.03205  -1.02581  -1.01538
 Alpha  occ. eigenvalues --   -0.91666  -0.90345  -0.89632  -0.89125  -0.89100
 Alpha  occ. eigenvalues --   -0.88497  -0.88245  -0.87395  -0.87125  -0.86931
 Alpha  occ. eigenvalues --   -0.86653  -0.85440  -0.84523  -0.83954  -0.83756
 Alpha  occ. eigenvalues --   -0.83448  -0.82905  -0.81451  -0.80813  -0.80087
 Alpha  occ. eigenvalues --   -0.79707  -0.78322  -0.77660  -0.77325  -0.75861
 Alpha  occ. eigenvalues --   -0.75564  -0.75224  -0.74950  -0.74626  -0.74204
 Alpha  occ. eigenvalues --   -0.73131  -0.72050  -0.71209  -0.69993  -0.69524
 Alpha  occ. eigenvalues --   -0.68577  -0.67848  -0.67039  -0.66314  -0.65912
 Alpha  occ. eigenvalues --   -0.65066  -0.64588  -0.64285  -0.63885  -0.63762
 Alpha  occ. eigenvalues --   -0.63630  -0.63441  -0.61901  -0.60826  -0.60028
 Alpha  occ. eigenvalues --   -0.59649  -0.59305  -0.58805  -0.58323  -0.57739
 Alpha  occ. eigenvalues --   -0.57231  -0.57179  -0.56586  -0.55902  -0.55412
 Alpha  occ. eigenvalues --   -0.55156  -0.54858  -0.54705  -0.54546  -0.54032
 Alpha  occ. eigenvalues --   -0.53919  -0.53688  -0.53426  -0.53045  -0.52989
 Alpha  occ. eigenvalues --   -0.52806  -0.52520  -0.52318  -0.52171  -0.51875
 Alpha  occ. eigenvalues --   -0.51446  -0.51390  -0.51186  -0.51016  -0.50702
 Alpha  occ. eigenvalues --   -0.50672  -0.50290  -0.50263  -0.49683  -0.49620
 Alpha  occ. eigenvalues --   -0.49499  -0.49392  -0.49371  -0.49293  -0.48803
 Alpha  occ. eigenvalues --   -0.48658  -0.48555  -0.48306  -0.48076  -0.47786
 Alpha  occ. eigenvalues --   -0.47540  -0.47371  -0.47241  -0.46881  -0.46427
 Alpha  occ. eigenvalues --   -0.46391  -0.46168  -0.45991  -0.45728  -0.45524
 Alpha  occ. eigenvalues --   -0.45472  -0.45196  -0.45027  -0.44922  -0.44820
 Alpha  occ. eigenvalues --   -0.44611  -0.44472  -0.44340  -0.43974  -0.43626
 Alpha  occ. eigenvalues --   -0.43532  -0.43497  -0.43314  -0.43105  -0.42952
 Alpha  occ. eigenvalues --   -0.42788  -0.42565  -0.42432  -0.42062  -0.41885
 Alpha  occ. eigenvalues --   -0.41782  -0.41660  -0.41442  -0.41257  -0.41002
 Alpha  occ. eigenvalues --   -0.40741  -0.40701  -0.40188  -0.40111  -0.39915
 Alpha  occ. eigenvalues --   -0.39697  -0.39520  -0.38859  -0.38546  -0.38507
 Alpha  occ. eigenvalues --   -0.38324  -0.38085  -0.37723  -0.37552  -0.37332
 Alpha  occ. eigenvalues --   -0.36954  -0.36818  -0.36626  -0.36585  -0.36150
 Alpha  occ. eigenvalues --   -0.35573  -0.35400  -0.34958  -0.34853  -0.34244
 Alpha  occ. eigenvalues --   -0.34078  -0.33821  -0.33007  -0.31988  -0.31262
 Alpha  occ. eigenvalues --   -0.30756  -0.30572  -0.29923  -0.29812  -0.23776
 Alpha  occ. eigenvalues --   -0.20115
 Alpha virt. eigenvalues --   -0.07481  -0.01898   0.00065   0.00606   0.01810
 Alpha virt. eigenvalues --    0.03657   0.04689   0.05783   0.06305   0.07342
 Alpha virt. eigenvalues --    0.07523   0.07817   0.08231   0.08742   0.08949

 Mulliken charges:
               1
     1  Mg   0.848307
     2  C    0.012066
     3  C   -0.091089
     4  C   -0.087481
     5  C   -0.051969
     6  N   -0.284316
     7  C   -0.039532
     8  C   -0.007259
     9  C   -0.084203
    10  C    0.061894
    11  C    0.087037
    12  C    0.055404
    13  C    0.103941
    14  C    0.155260
    15  O   -0.237556
    16  O   -0.335040
    17  N   -0.415991
    18  C    0.142873
    19  C   -0.177787
    20  C   -0.066654
    21  C    0.116659
    22  C    0.109838
    23  C    0.048991
    24  O   -0.236113
    25  C    0.069829
    26  N   -0.273025
    27  C    0.050769
    28  C   -0.031576
    29  C    0.021891
    30  C    0.026090
    31  C    0.067293
    32  C    0.003582
    33  C    0.004483
    34  N   -0.294038
    35  C    0.107827
    36  C   -0.186934
    37  C   -0.014805
    38  C    0.070492
    39  C    0.114538
    40  C    0.086420
    41  O   -0.144128
    42  C   -0.043370
    43  C    0.210696
    44  O   -0.254573
    45  O   -0.313754
    46  C    0.176651
    47  C    0.280596
    48  C   -0.141764
    49  C   -0.160477
    50  C    0.057226
    51  C    0.072959
    52  C    0.042281
    53  C    0.016520
    54  C   -0.118024
    55  C    0.047203
    56  C    0.044161
    57  C    0.018148
    58  C    0.020766
    59  C   -0.160077
    60  C    0.042255
    61  C    0.039369
    62  C    0.034408
    63  C    0.082439
    64  C   -0.160052
    65  C    0.043341
    66  C    0.025366
    67  H   -0.034020
    68  H   -0.002555
    69  H   -0.033994
    70  H    0.020480
    71  H    0.003316
    72  H    0.009622
    73  H    0.044082
    74  H    0.000584
    75  H    0.013287
    76  H    0.003295
    77  H    0.036504
    78  H    0.027187
    79  H    0.049658
    80  H    0.021065
    81  H    0.021659
    82  H    0.044340
    83  H    0.037526
    84  H    0.047333
    85  H    0.014495
    86  H    0.016130
    87  H    0.017532
    88  H    0.028277
    89  H    0.010621
    90  H    0.005715
    91  H    0.001548
    92  H    0.015303
    93  H   -0.002378
    94  H    0.014882
    95  H    0.030451
    96  H    0.032334
    97  H    0.018236
    98  H    0.051103
    99  H    0.015938
   100  H    0.038215
   101  H    0.047086
   102  H    0.033646
   103  H    0.035383
   104  H   -0.007215
   105  H    0.028729
   106  H    0.011264
   107  H    0.005257
   108  H    0.009144
   109  H    0.002045
   110  H    0.001600
   111  H    0.003581
   112  H   -0.003315
   113  H   -0.010381
   114  H   -0.008844
   115  H    0.004394
   116  H    0.020332
   117  H    0.005755
   118  H   -0.018887
   119  H   -0.004190
   120  H    0.015176
   121  H    0.008876
   122  H   -0.009649
   123  H   -0.008852
   124  H   -0.016187
   125  H    0.015020
   126  H   -0.007502
   127  H    0.014195
   128  H   -0.001651
   129  H   -0.008595
   130  H   -0.004642
   131  H    0.005446
   132  H   -0.004035
   133  H    0.002569
   134  H   -0.005176
   135  H    0.002503
   136  H    0.006604
   137  H   -0.004232
   138  H    0.006102
   139  H    0.007062
   140  H    0.005523
 Sum of Mulliken charges =  -0.00000

 Dipole moment (field-independent basis, Debye):
    X=              3.2773    Y=              1.4066    Z=             -1.6810  Tot=              3.9428
 Quadrupole moment (field-independent basis, Debye-Ang):
   XX=           -373.0355   YY=           -417.4384   ZZ=           -414.5629
   XY=             -9.9676   XZ=             10.4087   YZ=              1.7823

 Normal termination of Gaussian 16 at Tue May  3 23:35:30 2022.
