 Gaussian 16, Revision A.03,
 Gaussian 16:  ES64L-G16RevA.03 25-Dec-2016

 ---------------------------------
 #p PBE1PBE/Def2SVP td=(nstates=5)
 ---------------------------------

 ------------------------------------------------------
 step_1151_chromophore_12 TDDFT with PBE1PBE functional
 ------------------------------------------------------
 Symbolic Z-matrix:
 Charge =  0 Multiplicity = 1

                         Standard orientation:
 ---------------------------------------------------------------------
 Center     Atomic      Atomic             Coordinates (Angstroms)
 Number     Number       Type             X           Y           Z
 ---------------------------------------------------------------------
      1         12           0       -4.354651    0.471659   -0.681279
      2          6           0       -3.525409   -2.801077    0.489765
      3          6           0       -1.061085    1.289053   -0.471996
      4          6           0       -5.239063    3.666443   -0.917953
      5          6           0       -7.656429   -0.323335    0.383511
      6          7           0       -2.531769   -0.680002   -0.043731
      7          6           0       -2.387292   -2.009659    0.221507
      8          6           0       -0.935983   -2.466779    0.078988
      9          6           0       -0.196666   -1.096229    0.106814
     10          6           0       -1.307092   -0.069695   -0.188804
     11          6           0        0.430951   -0.745734    1.470249
     12          6           0       -0.572164   -3.223762   -1.290063
     13          6           0        0.553219   -4.258963   -1.296595
     14          6           0        1.798925   -3.910412   -2.189093
     15          8           0        1.763213   -3.553412   -3.373451
     16          8           0        2.985599   -3.912366   -1.422146
     17          7           0       -3.348287    2.204301   -0.748469
     18          6           0       -2.002631    2.331655   -0.744432
     19          6           0       -1.563850    3.776897   -1.068924
     20          6           0       -2.826508    4.499656   -1.162761
     21          6           0       -3.904554    3.477663   -1.022957
     22          6           0       -0.128823    4.244029   -1.197667
     23          6           0       -3.098909    6.094007   -1.391470
     24          8           0       -4.234421    6.619796   -1.588041
     25          6           0       -1.965336    6.956080   -1.453794
     26          7           0       -6.134272    1.534605   -0.181212
     27          6           0       -6.281982    2.835357   -0.455228
     28          6           0       -7.741401    3.344502   -0.318242
     29          6           0       -8.495220    2.074279    0.168927
     30          6           0       -7.390453    1.001297    0.032589
     31          6           0       -7.869526    4.531346    0.621669
     32          6           0       -9.800275    1.801422   -0.650057
     33          6           0       -9.800226    0.980808   -1.884710
     34          7           0       -5.413163   -1.222250    0.101109
     35          6           0       -6.794935   -1.391101    0.311194
     36          6           0       -7.055615   -2.801397    0.677725
     37          6           0       -5.832363   -3.416125    0.790336
     38          6           0       -4.850654   -2.355008    0.419193
     39          6           0       -8.411188   -3.337990    1.018950
     40          6           0       -5.108968   -4.626792    1.222441
     41          8           0       -5.450759   -5.710140    1.632929
     42          6           0       -3.634025   -4.298379    0.824536
     43          6           0       -2.732618   -4.592237    1.995737
     44          8           0       -2.422421   -3.791139    2.915907
     45          8           0       -2.431551   -5.932755    1.992829
     46          6           0       -1.916088   -6.593152    3.132006
     47          6           0        4.153263   -3.725195   -2.186336
     48          6           0        5.376058   -3.971402   -1.326369
     49          6           0        6.651866   -3.692770   -1.654678
     50          6           0        7.027286   -3.198816   -3.035486
     51          6           0        7.941873   -3.911311   -0.758711
     52          6           0        8.390539   -2.657870    0.014950
     53          6           0        9.904133   -2.631284    0.037523
     54          6           0       10.627598   -1.428465   -0.534479
     55          6           0       12.203025   -1.790288   -0.578661
     56          6           0       10.408325   -0.223442    0.431443
     57          6           0       10.083946    1.180458   -0.251297
     58          6           0        8.664083    1.677354    0.180577
     59          6           0        8.377676    3.191147    0.364311
     60          6           0        9.208093    4.114524   -0.583061
     61          6           0        8.375497    3.655527    1.919010
     62          6           0        7.030488    3.633629    2.581933
     63          6           0        6.435628    5.025865    2.848164
     64          6           0        4.970308    5.162701    2.352989
     65          6           0        4.803612    6.015096    1.101636
     66          6           0        3.891764    5.565558    3.378544
     67          1           0       -0.020370    1.620384   -0.489828
     68          1           0       -5.500980    4.669697   -1.263003
     69          1           0       -8.699473   -0.580428    0.579164
     70          1           0       -0.604661   -3.038330    0.946686
     71          1           0        0.548564   -0.951517   -0.675802
     72          1           0        1.503090   -0.937394    1.500223
     73          1           0       -0.130621   -1.264056    2.247898
     74          1           0        0.430793    0.341311    1.548091
     75          1           0       -0.258393   -2.483472   -2.025869
     76          1           0       -1.486193   -3.600049   -1.751480
     77          1           0        0.151692   -5.153937   -1.770140
     78          1           0        0.854458   -4.460985   -0.268134
     79          1           0        0.243548    4.583348   -0.230921
     80          1           0       -0.040175    4.948613   -2.025416
     81          1           0        0.502550    3.433914   -1.561706
     82          1           0       -1.354437    6.804995   -0.563620
     83          1           0       -2.358643    7.967834   -1.554767
     84          1           0       -1.448528    6.672748   -2.370933
     85          1           0       -7.960130    3.763897   -1.300332
     86          1           0       -8.874028    2.097949    1.190132
     87          1           0       -8.948505    4.687521    0.616515
     88          1           0       -7.234444    5.340137    0.259350
     89          1           0       -7.483080    4.308660    1.616149
     90          1           0      -10.189519    2.785427   -0.913398
     91          1           0      -10.545220    1.292532   -0.039403
     92          1           0       -8.837530    0.591730   -2.218850
     93          1           0       -9.992662    1.526003   -2.809067
     94          1           0      -10.584241    0.228596   -1.804029
     95          1           0       -8.585491   -3.078938    2.063503
     96          1           0       -8.505810   -4.423716    0.985244
     97          1           0       -9.202729   -2.867700    0.435889
     98          1           0       -3.428830   -4.943152   -0.029687
     99          1           0       -1.079902   -7.177862    2.749659
    100          1           0       -2.639800   -7.345559    3.443941
    101          1           0       -1.536233   -5.996055    3.960734
    102          1           0        4.239844   -2.679707   -2.482246
    103          1           0        4.200301   -4.436670   -3.010655
    104          1           0        5.173352   -4.409490   -0.349283
    105          1           0        7.506853   -3.954885   -3.658660
    106          1           0        7.700323   -2.344139   -2.974188
    107          1           0        6.165338   -2.881299   -3.621439
    108          1           0        8.695584   -4.271809   -1.458630
    109          1           0        7.759232   -4.588395    0.076448
    110          1           0        7.995713   -2.715472    1.028518
    111          1           0        7.976594   -1.754204   -0.432393
    112          1           0       10.349229   -3.505433   -0.437577
    113          1           0       10.161603   -2.720178    1.092818
    114          1           0       10.213975   -1.177311   -1.511181
    115          1           0       12.805481   -0.982788   -0.162114
    116          1           0       12.501000   -2.056019   -1.593118
    117          1           0       12.410412   -2.592085    0.129761
    118          1           0       11.334387   -0.016569    0.966698
    119          1           0        9.706523   -0.439954    1.237074
    120          1           0       10.069009    1.054046   -1.333914
    121          1           0       10.853353    1.827547    0.168992
    122          1           0        8.257884    1.259697    1.100974
    123          1           0        8.002548    1.331162   -0.614041
    124          1           0        7.377650    3.326333   -0.047449
    125          1           0        9.954739    3.562120   -1.153894
    126          1           0        9.772553    4.774963    0.074774
    127          1           0        8.510484    4.709379   -1.173222
    128          1           0        8.869272    4.627188    1.894648
    129          1           0        9.033679    2.892436    2.335574
    130          1           0        7.240615    3.129228    3.525049
    131          1           0        6.292963    3.048576    2.032975
    132          1           0        6.993036    5.746629    2.249378
    133          1           0        6.546291    5.241870    3.911041
    134          1           0        4.598450    4.194642    2.019882
    135          1           0        3.898573    6.620737    1.149759
    136          1           0        4.872752    5.398984    0.205768
    137          1           0        5.626378    6.723684    1.001659
    138          1           0        4.076924    6.537130    3.835408
    139          1           0        3.933318    4.761796    4.114200
    140          1           0        2.865723    5.653640    3.022691
 ---------------------------------------------------------------------

 SCF Done:  E(RPBE1PBE) =  -3005.34381553     A.U. after   15 cycles

 Excitation energies and oscillator strengths:

 Excited State   1:      Singlet-A      1.8523 eV  669.36 nm  f=0.3740  <S**2>=0.000
     245 -> 248       -0.17468
     246 -> 247        0.69013
     246 <- 247       -0.10094
 This state for optimization and/or second-order correction.
 Total Energy, E(TD-HF/TD-DFT) =  -3005.27574537
 Copying the excited state density for this state as the 1-particle RhoCI density.

 Excited State   2:      Singlet-A      2.2733 eV  545.40 nm  f=0.0367  <S**2>=0.000
     245 -> 247        0.61325
     246 -> 248        0.33939

 Excited State   3:      Singlet-A      3.1210 eV  397.26 nm  f=0.2425  <S**2>=0.000
     245 -> 247       -0.23465
     246 -> 248        0.52017
     246 -> 249        0.35498
     246 -> 250        0.11033

 Excited State   4:      Singlet-A      3.2378 eV  382.92 nm  f=0.2205  <S**2>=0.000
     243 -> 247       -0.10419
     245 -> 247        0.19629
     246 -> 248       -0.25046
     246 -> 249        0.59251

 Excited State   5:      Singlet-A      3.3576 eV  369.26 nm  f=0.0391  <S**2>=0.000
     239 -> 247        0.11898
     242 -> 247       -0.36145
     242 -> 249       -0.13785
     242 -> 250        0.10602
     243 -> 247        0.49943
     246 -> 248       -0.12422

 The electronic state is 1-A.
 Alpha  occ. eigenvalues --  -46.92506 -19.26187 -19.25343 -19.21472 -19.20090
 Alpha  occ. eigenvalues --  -19.19738 -19.19654 -14.41486 -14.41131 -14.39434
 Alpha  occ. eigenvalues --  -14.38765 -10.37755 -10.36475 -10.33602 -10.32657
 Alpha  occ. eigenvalues --  -10.29067 -10.28586 -10.28573 -10.28405 -10.28161
 Alpha  occ. eigenvalues --  -10.28013 -10.27853 -10.27652 -10.27570 -10.26803
 Alpha  occ. eigenvalues --  -10.26763 -10.26217 -10.26056 -10.25983 -10.25836
 Alpha  occ. eigenvalues --  -10.25723 -10.25414 -10.25213 -10.25053 -10.25052
 Alpha  occ. eigenvalues --  -10.25027 -10.24737 -10.24703 -10.24397 -10.24013
 Alpha  occ. eigenvalues --  -10.23816 -10.23705 -10.23622 -10.23549 -10.23422
 Alpha  occ. eigenvalues --  -10.23201 -10.23169 -10.23122 -10.23100 -10.23099
 Alpha  occ. eigenvalues --  -10.23062 -10.22953 -10.22753 -10.22682 -10.22677
 Alpha  occ. eigenvalues --  -10.22629 -10.22504 -10.22410 -10.22373 -10.22261
 Alpha  occ. eigenvalues --  -10.22248 -10.22085 -10.21993 -10.21893 -10.21678
 Alpha  occ. eigenvalues --  -10.21623  -3.14673  -1.87446  -1.87040  -1.86920
 Alpha  occ. eigenvalues --   -1.11311  -1.10406  -1.05608  -1.03358  -1.03319
 Alpha  occ. eigenvalues --   -1.01166  -0.98620  -0.97867  -0.97253  -0.96123
 Alpha  occ. eigenvalues --   -0.86073  -0.84458  -0.83712  -0.83430  -0.83298
 Alpha  occ. eigenvalues --   -0.82658  -0.82562  -0.81510  -0.81387  -0.81149
 Alpha  occ. eigenvalues --   -0.80951  -0.79691  -0.78698  -0.78266  -0.77903
 Alpha  occ. eigenvalues --   -0.77704  -0.77087  -0.75797  -0.75072  -0.74413
 Alpha  occ. eigenvalues --   -0.73909  -0.72625  -0.71923  -0.71653  -0.70228
 Alpha  occ. eigenvalues --   -0.69630  -0.69390  -0.69073  -0.69000  -0.68377
 Alpha  occ. eigenvalues --   -0.67468  -0.66507  -0.65669  -0.64291  -0.63899
 Alpha  occ. eigenvalues --   -0.62826  -0.62345  -0.61262  -0.60646  -0.60075
 Alpha  occ. eigenvalues --   -0.59578  -0.59088  -0.58738  -0.58432  -0.58294
 Alpha  occ. eigenvalues --   -0.57772  -0.57596  -0.56499  -0.55052  -0.54509
 Alpha  occ. eigenvalues --   -0.54082  -0.53839  -0.53389  -0.52971  -0.52153
 Alpha  occ. eigenvalues --   -0.51807  -0.51566  -0.51088  -0.50480  -0.49985
 Alpha  occ. eigenvalues --   -0.49683  -0.49438  -0.49055  -0.49031  -0.48610
 Alpha  occ. eigenvalues --   -0.48405  -0.48055  -0.47905  -0.47654  -0.47486
 Alpha  occ. eigenvalues --   -0.47273  -0.47155  -0.46791  -0.46744  -0.46455
 Alpha  occ. eigenvalues --   -0.46010  -0.45852  -0.45711  -0.45601  -0.45357
 Alpha  occ. eigenvalues --   -0.45232  -0.44836  -0.44778  -0.44301  -0.44222
 Alpha  occ. eigenvalues --   -0.44124  -0.43961  -0.43931  -0.43888  -0.43411
 Alpha  occ. eigenvalues --   -0.43203  -0.43107  -0.42935  -0.42648  -0.42425
 Alpha  occ. eigenvalues --   -0.42224  -0.41988  -0.41886  -0.41463  -0.41132
 Alpha  occ. eigenvalues --   -0.41095  -0.40895  -0.40821  -0.40465  -0.40267
 Alpha  occ. eigenvalues --   -0.40065  -0.39810  -0.39750  -0.39593  -0.39565
 Alpha  occ. eigenvalues --   -0.39364  -0.39199  -0.39049  -0.38691  -0.38376
 Alpha  occ. eigenvalues --   -0.38338  -0.38229  -0.38146  -0.37854  -0.37706
 Alpha  occ. eigenvalues --   -0.37648  -0.37362  -0.37325  -0.36921  -0.36694
 Alpha  occ. eigenvalues --   -0.36533  -0.36478  -0.36185  -0.36032  -0.35883
 Alpha  occ. eigenvalues --   -0.35596  -0.35534  -0.35071  -0.34870  -0.34627
 Alpha  occ. eigenvalues --   -0.34621  -0.34328  -0.33841  -0.33445  -0.33393
 Alpha  occ. eigenvalues --   -0.33250  -0.32895  -0.32561  -0.32478  -0.32365
 Alpha  occ. eigenvalues --   -0.31832  -0.31706  -0.31613  -0.31481  -0.31212
 Alpha  occ. eigenvalues --   -0.30486  -0.30361  -0.29882  -0.29762  -0.29281
 Alpha  occ. eigenvalues --   -0.29121  -0.28759  -0.28449  -0.26880  -0.26536
 Alpha  occ. eigenvalues --   -0.26074  -0.26001  -0.25555  -0.25090  -0.20642
 Alpha  occ. eigenvalues --   -0.17835
 Alpha virt. eigenvalues --   -0.10147  -0.05337  -0.04141  -0.02566  -0.02100
 Alpha virt. eigenvalues --   -0.01025   0.00105   0.01281   0.01818   0.03111
 Alpha virt. eigenvalues --    0.04386   0.04468   0.04821   0.05041   0.05465

 Mulliken charges:
               1
     1  Mg   0.987362
     2  C   -0.003193
     3  C   -0.077674
     4  C   -0.094229
     5  C   -0.046992
     6  N   -0.381925
     7  C    0.040500
     8  C   -0.078507
     9  C   -0.159586
    10  C    0.095022
    11  C    0.030403
    12  C    0.012201
    13  C    0.027787
    14  C    0.214471
    15  O   -0.268219
    16  O   -0.367037
    17  N   -0.530042
    18  C    0.162801
    19  C   -0.201430
    20  C   -0.100743
    21  C    0.145176
    22  C    0.045890
    23  C    0.095770
    24  O   -0.272674
    25  C   -0.005800
    26  N   -0.380048
    27  C    0.095080
    28  C   -0.113777
    29  C   -0.050403
    30  C    0.061728
    31  C    0.009992
    32  C   -0.056638
    33  C   -0.063626
    34  N   -0.419810
    35  C    0.127653
    36  C   -0.207265
    37  C   -0.054146
    38  C    0.118288
    39  C    0.061795
    40  C    0.183481
    41  O   -0.189958
    42  C   -0.145070
    43  C    0.295494
    44  O   -0.287819
    45  O   -0.347926
    46  C    0.124695
    47  C    0.239080
    48  C   -0.146531
    49  C   -0.209250
    50  C   -0.004134
    51  C    0.008567
    52  C   -0.015935
    53  C   -0.039928
    54  C   -0.208971
    55  C   -0.012362
    56  C    0.000480
    57  C   -0.053246
    58  C   -0.031363
    59  C   -0.234709
    60  C   -0.017918
    61  C   -0.024338
    62  C   -0.028633
    63  C    0.027455
    64  C   -0.253449
    65  C   -0.014752
    66  C   -0.037303
    67  H   -0.001750
    68  H    0.029419
    69  H   -0.002536
    70  H    0.058836
    71  H    0.039668
    72  H    0.038123
    73  H    0.070374
    74  H    0.030006
    75  H    0.045414
    76  H    0.035668
    77  H    0.069260
    78  H    0.058025
    79  H    0.075782
    80  H    0.048633
    81  H    0.047622
    82  H    0.070749
    83  H    0.064320
    84  H    0.074024
    85  H    0.051682
    86  H    0.052956
    87  H    0.046317
    88  H    0.056649
    89  H    0.039117
    90  H    0.039643
    91  H    0.033143
    92  H    0.043887
    93  H    0.025957
    94  H    0.041783
    95  H    0.059311
    96  H    0.059886
    97  H    0.044578
    98  H    0.087356
    99  H    0.038521
   100  H    0.060264
   101  H    0.067241
   102  H    0.060398
   103  H    0.062724
   104  H    0.023618
   105  H    0.056452
   106  H    0.039752
   107  H    0.032237
   108  H    0.040545
   109  H    0.035013
   110  H    0.033711
   111  H    0.038003
   112  H    0.029437
   113  H    0.023300
   114  H    0.028554
   115  H    0.031694
   116  H    0.047989
   117  H    0.032549
   118  H    0.013932
   119  H    0.026890
   120  H    0.046468
   121  H    0.041764
   122  H    0.022467
   123  H    0.024401
   124  H    0.023897
   125  H    0.042716
   126  H    0.020268
   127  H    0.041258
   128  H    0.029309
   129  H    0.025929
   130  H    0.028700
   131  H    0.035759
   132  H    0.029099
   133  H    0.034330
   134  H    0.033409
   135  H    0.029732
   136  H    0.033758
   137  H    0.022959
   138  H    0.034352
   139  H    0.036019
   140  H    0.032868
 Sum of Mulliken charges =  -0.00000

 Dipole moment (field-independent basis, Debye):
    X=              3.1166    Y=              1.2179    Z=             -1.6258  Tot=              3.7202
 Quadrupole moment (field-independent basis, Debye-Ang):
   XX=           -365.6978   YY=           -415.4645   ZZ=           -412.0060
   XY=             -9.9609   XZ=             10.3768   YZ=              1.7305

 Normal termination of Gaussian 16 at Tue May  3 23:58:18 2022.
