 Gaussian 16, Revision A.03,
 Gaussian 16:  ES64L-G16RevA.03 25-Dec-2016

 --------------------------------
 #p wB97XD/Def2SVP td=(nstates=5)
 --------------------------------

 -----------------------------------------------------
 step_1151_chromophore_12 TDDFT with wB97XD functional
 -----------------------------------------------------
 Symbolic Z-matrix:
 Charge =  0 Multiplicity = 1

                         Standard orientation:
 ---------------------------------------------------------------------
 Center     Atomic      Atomic             Coordinates (Angstroms)
 Number     Number       Type             X           Y           Z
 ---------------------------------------------------------------------
      1         12           0       -4.354651    0.471659   -0.681279
      2          6           0       -3.525409   -2.801077    0.489765
      3          6           0       -1.061085    1.289053   -0.471996
      4          6           0       -5.239063    3.666443   -0.917953
      5          6           0       -7.656429   -0.323335    0.383511
      6          7           0       -2.531769   -0.680002   -0.043731
      7          6           0       -2.387292   -2.009659    0.221507
      8          6           0       -0.935983   -2.466779    0.078988
      9          6           0       -0.196666   -1.096229    0.106814
     10          6           0       -1.307092   -0.069695   -0.188804
     11          6           0        0.430951   -0.745734    1.470249
     12          6           0       -0.572164   -3.223762   -1.290063
     13          6           0        0.553219   -4.258963   -1.296595
     14          6           0        1.798925   -3.910412   -2.189093
     15          8           0        1.763213   -3.553412   -3.373451
     16          8           0        2.985599   -3.912366   -1.422146
     17          7           0       -3.348287    2.204301   -0.748469
     18          6           0       -2.002631    2.331655   -0.744432
     19          6           0       -1.563850    3.776897   -1.068924
     20          6           0       -2.826508    4.499656   -1.162761
     21          6           0       -3.904554    3.477663   -1.022957
     22          6           0       -0.128823    4.244029   -1.197667
     23          6           0       -3.098909    6.094007   -1.391470
     24          8           0       -4.234421    6.619796   -1.588041
     25          6           0       -1.965336    6.956080   -1.453794
     26          7           0       -6.134272    1.534605   -0.181212
     27          6           0       -6.281982    2.835357   -0.455228
     28          6           0       -7.741401    3.344502   -0.318242
     29          6           0       -8.495220    2.074279    0.168927
     30          6           0       -7.390453    1.001297    0.032589
     31          6           0       -7.869526    4.531346    0.621669
     32          6           0       -9.800275    1.801422   -0.650057
     33          6           0       -9.800226    0.980808   -1.884710
     34          7           0       -5.413163   -1.222250    0.101109
     35          6           0       -6.794935   -1.391101    0.311194
     36          6           0       -7.055615   -2.801397    0.677725
     37          6           0       -5.832363   -3.416125    0.790336
     38          6           0       -4.850654   -2.355008    0.419193
     39          6           0       -8.411188   -3.337990    1.018950
     40          6           0       -5.108968   -4.626792    1.222441
     41          8           0       -5.450759   -5.710140    1.632929
     42          6           0       -3.634025   -4.298379    0.824536
     43          6           0       -2.732618   -4.592237    1.995737
     44          8           0       -2.422421   -3.791139    2.915907
     45          8           0       -2.431551   -5.932755    1.992829
     46          6           0       -1.916088   -6.593152    3.132006
     47          6           0        4.153263   -3.725195   -2.186336
     48          6           0        5.376058   -3.971402   -1.326369
     49          6           0        6.651866   -3.692770   -1.654678
     50          6           0        7.027286   -3.198816   -3.035486
     51          6           0        7.941873   -3.911311   -0.758711
     52          6           0        8.390539   -2.657870    0.014950
     53          6           0        9.904133   -2.631284    0.037523
     54          6           0       10.627598   -1.428465   -0.534479
     55          6           0       12.203025   -1.790288   -0.578661
     56          6           0       10.408325   -0.223442    0.431443
     57          6           0       10.083946    1.180458   -0.251297
     58          6           0        8.664083    1.677354    0.180577
     59          6           0        8.377676    3.191147    0.364311
     60          6           0        9.208093    4.114524   -0.583061
     61          6           0        8.375497    3.655527    1.919010
     62          6           0        7.030488    3.633629    2.581933
     63          6           0        6.435628    5.025865    2.848164
     64          6           0        4.970308    5.162701    2.352989
     65          6           0        4.803612    6.015096    1.101636
     66          6           0        3.891764    5.565558    3.378544
     67          1           0       -0.020370    1.620384   -0.489828
     68          1           0       -5.500980    4.669697   -1.263003
     69          1           0       -8.699473   -0.580428    0.579164
     70          1           0       -0.604661   -3.038330    0.946686
     71          1           0        0.548564   -0.951517   -0.675802
     72          1           0        1.503090   -0.937394    1.500223
     73          1           0       -0.130621   -1.264056    2.247898
     74          1           0        0.430793    0.341311    1.548091
     75          1           0       -0.258393   -2.483472   -2.025869
     76          1           0       -1.486193   -3.600049   -1.751480
     77          1           0        0.151692   -5.153937   -1.770140
     78          1           0        0.854458   -4.460985   -0.268134
     79          1           0        0.243548    4.583348   -0.230921
     80          1           0       -0.040175    4.948613   -2.025416
     81          1           0        0.502550    3.433914   -1.561706
     82          1           0       -1.354437    6.804995   -0.563620
     83          1           0       -2.358643    7.967834   -1.554767
     84          1           0       -1.448528    6.672748   -2.370933
     85          1           0       -7.960130    3.763897   -1.300332
     86          1           0       -8.874028    2.097949    1.190132
     87          1           0       -8.948505    4.687521    0.616515
     88          1           0       -7.234444    5.340137    0.259350
     89          1           0       -7.483080    4.308660    1.616149
     90          1           0      -10.189519    2.785427   -0.913398
     91          1           0      -10.545220    1.292532   -0.039403
     92          1           0       -8.837530    0.591730   -2.218850
     93          1           0       -9.992662    1.526003   -2.809067
     94          1           0      -10.584241    0.228596   -1.804029
     95          1           0       -8.585491   -3.078938    2.063503
     96          1           0       -8.505810   -4.423716    0.985244
     97          1           0       -9.202729   -2.867700    0.435889
     98          1           0       -3.428830   -4.943152   -0.029687
     99          1           0       -1.079902   -7.177862    2.749659
    100          1           0       -2.639800   -7.345559    3.443941
    101          1           0       -1.536233   -5.996055    3.960734
    102          1           0        4.239844   -2.679707   -2.482246
    103          1           0        4.200301   -4.436670   -3.010655
    104          1           0        5.173352   -4.409490   -0.349283
    105          1           0        7.506853   -3.954885   -3.658660
    106          1           0        7.700323   -2.344139   -2.974188
    107          1           0        6.165338   -2.881299   -3.621439
    108          1           0        8.695584   -4.271809   -1.458630
    109          1           0        7.759232   -4.588395    0.076448
    110          1           0        7.995713   -2.715472    1.028518
    111          1           0        7.976594   -1.754204   -0.432393
    112          1           0       10.349229   -3.505433   -0.437577
    113          1           0       10.161603   -2.720178    1.092818
    114          1           0       10.213975   -1.177311   -1.511181
    115          1           0       12.805481   -0.982788   -0.162114
    116          1           0       12.501000   -2.056019   -1.593118
    117          1           0       12.410412   -2.592085    0.129761
    118          1           0       11.334387   -0.016569    0.966698
    119          1           0        9.706523   -0.439954    1.237074
    120          1           0       10.069009    1.054046   -1.333914
    121          1           0       10.853353    1.827547    0.168992
    122          1           0        8.257884    1.259697    1.100974
    123          1           0        8.002548    1.331162   -0.614041
    124          1           0        7.377650    3.326333   -0.047449
    125          1           0        9.954739    3.562120   -1.153894
    126          1           0        9.772553    4.774963    0.074774
    127          1           0        8.510484    4.709379   -1.173222
    128          1           0        8.869272    4.627188    1.894648
    129          1           0        9.033679    2.892436    2.335574
    130          1           0        7.240615    3.129228    3.525049
    131          1           0        6.292963    3.048576    2.032975
    132          1           0        6.993036    5.746629    2.249378
    133          1           0        6.546291    5.241870    3.911041
    134          1           0        4.598450    4.194642    2.019882
    135          1           0        3.898573    6.620737    1.149759
    136          1           0        4.872752    5.398984    0.205768
    137          1           0        5.626378    6.723684    1.001659
    138          1           0        4.076924    6.537130    3.835408
    139          1           0        3.933318    4.761796    4.114200
    140          1           0        2.865723    5.653640    3.022691
 ---------------------------------------------------------------------

 SCF Done:  E(RwB97XD) =  -3007.85174305     A.U. after   17 cycles

 Excitation energies and oscillator strengths:

 Excited State   1:      Singlet-A      1.6650 eV  744.67 nm  f=0.3725  <S**2>=0.000
     245 -> 248       -0.19268
     246 -> 247        0.67918
     245 <- 248       -0.11553
 This state for optimization and/or second-order correction.
 Total Energy, E(TD-HF/TD-DFT) =  -3007.79055720
 Copying the excited state density for this state as the 1-particle RhoCI density.

 Excited State   2:      Singlet-A      2.2413 eV  553.17 nm  f=0.0263  <S**2>=0.000
     245 -> 247        0.58509
     246 -> 248        0.38529

 Excited State   3:      Singlet-A      3.3757 eV  367.29 nm  f=0.7764  <S**2>=0.000
     245 -> 247       -0.37807
     246 -> 248        0.58119
     245 <- 247        0.11159

 Excited State   4:      Singlet-A      3.6296 eV  341.59 nm  f=0.0027  <S**2>=0.000
     246 -> 250        0.69106

 Excited State   5:      Singlet-A      3.7831 eV  327.73 nm  f=0.1146  <S**2>=0.000
     243 -> 247        0.41877
     245 -> 248        0.22304
     246 -> 249        0.45331
     246 -> 251       -0.12658

 The electronic state is 1-A.
 Alpha  occ. eigenvalues --  -46.95454 -19.30728 -19.29883 -19.26135 -19.25050
 Alpha  occ. eigenvalues --  -19.24456 -19.24325 -14.46657 -14.46033 -14.44479
 Alpha  occ. eigenvalues --  -14.43636 -10.44514 -10.43296 -10.40594 -10.39442
 Alpha  occ. eigenvalues --  -10.35545 -10.35146 -10.34837 -10.34809 -10.34632
 Alpha  occ. eigenvalues --  -10.34299 -10.34204 -10.34092 -10.33810 -10.33387
 Alpha  occ. eigenvalues --  -10.32791 -10.32421 -10.32405 -10.32296 -10.32167
 Alpha  occ. eigenvalues --  -10.32088 -10.31843 -10.31544 -10.31388 -10.31276
 Alpha  occ. eigenvalues --  -10.31260 -10.31036 -10.30848 -10.30690 -10.30402
 Alpha  occ. eigenvalues --  -10.30285 -10.30255 -10.30003 -10.29801 -10.29777
 Alpha  occ. eigenvalues --  -10.29611 -10.29535 -10.29512 -10.29499 -10.29476
 Alpha  occ. eigenvalues --  -10.29330 -10.29215 -10.29136 -10.29068 -10.29062
 Alpha  occ. eigenvalues --  -10.29008 -10.28921 -10.28774 -10.28720 -10.28630
 Alpha  occ. eigenvalues --  -10.28628 -10.28425 -10.28356 -10.28353 -10.28130
 Alpha  occ. eigenvalues --  -10.28059  -3.21494  -1.95014  -1.94610  -1.94482
 Alpha  occ. eigenvalues --   -1.18671  -1.17781  -1.12995  -1.11023  -1.10655
 Alpha  occ. eigenvalues --   -1.08529  -1.05930  -1.05188  -1.04581  -1.03585
 Alpha  occ. eigenvalues --   -0.93608  -0.92133  -0.91390  -0.90960  -0.90932
 Alpha  occ. eigenvalues --   -0.90313  -0.90169  -0.89176  -0.89066  -0.88845
 Alpha  occ. eigenvalues --   -0.88589  -0.87323  -0.86362  -0.85835  -0.85697
 Alpha  occ. eigenvalues --   -0.85368  -0.84745  -0.83376  -0.82707  -0.82017
 Alpha  occ. eigenvalues --   -0.81567  -0.80291  -0.79567  -0.79237  -0.77789
 Alpha  occ. eigenvalues --   -0.77353  -0.77070  -0.76769  -0.76555  -0.76046
 Alpha  occ. eigenvalues --   -0.75062  -0.74018  -0.73179  -0.71903  -0.71414
 Alpha  occ. eigenvalues --   -0.70464  -0.69841  -0.68910  -0.68313  -0.67750
 Alpha  occ. eigenvalues --   -0.67030  -0.66543  -0.66247  -0.65863  -0.65738
 Alpha  occ. eigenvalues --   -0.65449  -0.65262  -0.63863  -0.62677  -0.62038
 Alpha  occ. eigenvalues --   -0.61574  -0.61250  -0.60790  -0.60299  -0.59661
 Alpha  occ. eigenvalues --   -0.59224  -0.59049  -0.58521  -0.57890  -0.57324
 Alpha  occ. eigenvalues --   -0.57103  -0.56817  -0.56542  -0.56422  -0.55933
 Alpha  occ. eigenvalues --   -0.55829  -0.55634  -0.55360  -0.54957  -0.54887
 Alpha  occ. eigenvalues --   -0.54679  -0.54447  -0.54183  -0.54094  -0.53779
 Alpha  occ. eigenvalues --   -0.53400  -0.53334  -0.53061  -0.52909  -0.52644
 Alpha  occ. eigenvalues --   -0.52581  -0.52240  -0.52158  -0.51607  -0.51571
 Alpha  occ. eigenvalues --   -0.51430  -0.51267  -0.51253  -0.51197  -0.50689
 Alpha  occ. eigenvalues --   -0.50559  -0.50475  -0.50197  -0.49952  -0.49725
 Alpha  occ. eigenvalues --   -0.49483  -0.49266  -0.49143  -0.48751  -0.48357
 Alpha  occ. eigenvalues --   -0.48325  -0.48098  -0.47888  -0.47655  -0.47416
 Alpha  occ. eigenvalues --   -0.47334  -0.47055  -0.46946  -0.46807  -0.46730
 Alpha  occ. eigenvalues --   -0.46538  -0.46397  -0.46277  -0.45850  -0.45542
 Alpha  occ. eigenvalues --   -0.45476  -0.45373  -0.45232  -0.45016  -0.44838
 Alpha  occ. eigenvalues --   -0.44703  -0.44443  -0.44325  -0.43973  -0.43759
 Alpha  occ. eigenvalues --   -0.43724  -0.43587  -0.43344  -0.43245  -0.42969
 Alpha  occ. eigenvalues --   -0.42624  -0.42613  -0.42066  -0.41962  -0.41762
 Alpha  occ. eigenvalues --   -0.41556  -0.41388  -0.40745  -0.40415  -0.40382
 Alpha  occ. eigenvalues --   -0.40233  -0.39919  -0.39569  -0.39540  -0.39250
 Alpha  occ. eigenvalues --   -0.38843  -0.38756  -0.38651  -0.38441  -0.38052
 Alpha  occ. eigenvalues --   -0.37434  -0.37393  -0.36873  -0.36716  -0.36098
 Alpha  occ. eigenvalues --   -0.36061  -0.35737  -0.35230  -0.33977  -0.33348
 Alpha  occ. eigenvalues --   -0.32859  -0.32730  -0.32096  -0.31849  -0.25705
 Alpha  occ. eigenvalues --   -0.21916
 Alpha virt. eigenvalues --   -0.05800   0.00025   0.02108   0.03858   0.03929
 Alpha virt. eigenvalues --    0.05887   0.06884   0.08079   0.08548   0.09831
 Alpha virt. eigenvalues --    0.11023   0.11209   0.11623   0.11751   0.12117

 Mulliken charges:
               1
     1  Mg   0.979424
     2  C   -0.003059
     3  C   -0.102675
     4  C   -0.100485
     5  C   -0.056730
     6  N   -0.351415
     7  C    0.003649
     8  C   -0.052771
     9  C   -0.133237
    10  C    0.087134
    11  C    0.040397
    12  C    0.021476
    13  C    0.041445
    14  C    0.207141
    15  O   -0.266400
    16  O   -0.366159
    17  N   -0.498958
    18  C    0.160126
    19  C   -0.194657
    20  C   -0.100406
    21  C    0.137436
    22  C    0.060414
    23  C    0.096463
    24  O   -0.265871
    25  C    0.003465
    26  N   -0.342905
    27  C    0.077421
    28  C   -0.087228
    29  C   -0.029410
    30  C    0.045410
    31  C    0.020168
    32  C   -0.042239
    33  C   -0.048963
    34  N   -0.379842
    35  C    0.115816
    36  C   -0.199280
    37  C   -0.057291
    38  C    0.104088
    39  C    0.070273
    40  C    0.164666
    41  O   -0.181727
    42  C   -0.110691
    43  C    0.275419
    44  O   -0.282341
    45  O   -0.346366
    46  C    0.139033
    47  C    0.252339
    48  C   -0.156832
    49  C   -0.195616
    50  C    0.009916
    51  C    0.029855
    52  C   -0.005150
    53  C   -0.019041
    54  C   -0.179558
    55  C    0.000330
    56  C    0.012183
    57  C   -0.035406
    58  C   -0.014708
    59  C   -0.212333
    60  C   -0.002934
    61  C   -0.001923
    62  C   -0.012409
    63  C    0.040724
    64  C   -0.223169
    65  C   -0.003028
    66  C   -0.024093
    67  H   -0.009482
    68  H    0.022137
    69  H   -0.009154
    70  H    0.044403
    71  H    0.029509
    72  H    0.033303
    73  H    0.066021
    74  H    0.021699
    75  H    0.035610
    76  H    0.028875
    77  H    0.064405
    78  H    0.053856
    79  H    0.072772
    80  H    0.043092
    81  H    0.043738
    82  H    0.066384
    83  H    0.064009
    84  H    0.068467
    85  H    0.041673
    86  H    0.043819
    87  H    0.039770
    88  H    0.050616
    89  H    0.033347
    90  H    0.030335
    91  H    0.026149
    92  H    0.034626
    93  H    0.020101
    94  H    0.036890
    95  H    0.053864
    96  H    0.056764
    97  H    0.038931
    98  H    0.081218
    99  H    0.033569
   100  H    0.056380
   101  H    0.064201
   102  H    0.053644
   103  H    0.057216
   104  H    0.021428
   105  H    0.051181
   106  H    0.032680
   107  H    0.026464
   108  H    0.031093
   109  H    0.028530
   110  H    0.027818
   111  H    0.025083
   112  H    0.018307
   113  H    0.013158
   114  H    0.015917
   115  H    0.025180
   116  H    0.043243
   117  H    0.026049
   118  H    0.004960
   119  H    0.016190
   120  H    0.038160
   121  H    0.032744
   122  H    0.010110
   123  H    0.016159
   124  H    0.009999
   125  H    0.035385
   126  H    0.012841
   127  H    0.036417
   128  H    0.018967
   129  H    0.015725
   130  H    0.022298
   131  H    0.024681
   132  H    0.016085
   133  H    0.028675
   134  H    0.020399
   135  H    0.023941
   136  H    0.028179
   137  H    0.015938
   138  H    0.027909
   139  H    0.029449
   140  H    0.026999
 Sum of Mulliken charges =  -0.00000

 Dipole moment (field-independent basis, Debye):
    X=              3.3606    Y=              1.5355    Z=             -1.7281  Tot=              4.0790
 Quadrupole moment (field-independent basis, Debye-Ang):
   XX=           -368.1414   YY=           -413.0905   ZZ=           -411.6614
   XY=            -10.3607   XZ=             10.6581   YZ=              1.2876

 Normal termination of Gaussian 16 at Wed May  4 00:30:25 2022.
