 Gaussian 16, Revision A.03,
 Gaussian 16:  ES64L-G16RevA.03 25-Dec-2016

 --------------------
 #p ZINDO=(nstates=5)
 --------------------

 ------------------------------
 step_1151_chromophore_12 ZINDO
 ------------------------------
 Symbolic Z-matrix:
 Charge =  0 Multiplicity = 1

                         Standard orientation:
 ---------------------------------------------------------------------
 Center     Atomic      Atomic             Coordinates (Angstroms)
 Number     Number       Type             X           Y           Z
 ---------------------------------------------------------------------
      1         12           0       -4.354651    0.471659   -0.681279
      2          6           0       -3.525409   -2.801077    0.489765
      3          6           0       -1.061085    1.289053   -0.471996
      4          6           0       -5.239063    3.666443   -0.917953
      5          6           0       -7.656429   -0.323335    0.383511
      6          7           0       -2.531769   -0.680002   -0.043731
      7          6           0       -2.387292   -2.009659    0.221507
      8          6           0       -0.935983   -2.466779    0.078988
      9          6           0       -0.196666   -1.096229    0.106814
     10          6           0       -1.307092   -0.069695   -0.188804
     11          6           0        0.430951   -0.745734    1.470249
     12          6           0       -0.572164   -3.223762   -1.290063
     13          6           0        0.553219   -4.258963   -1.296595
     14          6           0        1.798925   -3.910412   -2.189093
     15          8           0        1.763213   -3.553412   -3.373451
     16          8           0        2.985599   -3.912366   -1.422146
     17          7           0       -3.348287    2.204301   -0.748469
     18          6           0       -2.002631    2.331655   -0.744432
     19          6           0       -1.563850    3.776897   -1.068924
     20          6           0       -2.826508    4.499656   -1.162761
     21          6           0       -3.904554    3.477663   -1.022957
     22          6           0       -0.128823    4.244029   -1.197667
     23          6           0       -3.098909    6.094007   -1.391470
     24          8           0       -4.234421    6.619796   -1.588041
     25          6           0       -1.965336    6.956080   -1.453794
     26          7           0       -6.134272    1.534605   -0.181212
     27          6           0       -6.281982    2.835357   -0.455228
     28          6           0       -7.741401    3.344502   -0.318242
     29          6           0       -8.495220    2.074279    0.168927
     30          6           0       -7.390453    1.001297    0.032589
     31          6           0       -7.869526    4.531346    0.621669
     32          6           0       -9.800275    1.801422   -0.650057
     33          6           0       -9.800226    0.980808   -1.884710
     34          7           0       -5.413163   -1.222250    0.101109
     35          6           0       -6.794935   -1.391101    0.311194
     36          6           0       -7.055615   -2.801397    0.677725
     37          6           0       -5.832363   -3.416125    0.790336
     38          6           0       -4.850654   -2.355008    0.419193
     39          6           0       -8.411188   -3.337990    1.018950
     40          6           0       -5.108968   -4.626792    1.222441
     41          8           0       -5.450759   -5.710140    1.632929
     42          6           0       -3.634025   -4.298379    0.824536
     43          6           0       -2.732618   -4.592237    1.995737
     44          8           0       -2.422421   -3.791139    2.915907
     45          8           0       -2.431551   -5.932755    1.992829
     46          6           0       -1.916088   -6.593152    3.132006
     47          6           0        4.153263   -3.725195   -2.186336
     48          6           0        5.376058   -3.971402   -1.326369
     49          6           0        6.651866   -3.692770   -1.654678
     50          6           0        7.027286   -3.198816   -3.035486
     51          6           0        7.941873   -3.911311   -0.758711
     52          6           0        8.390539   -2.657870    0.014950
     53          6           0        9.904133   -2.631284    0.037523
     54          6           0       10.627598   -1.428465   -0.534479
     55          6           0       12.203025   -1.790288   -0.578661
     56          6           0       10.408325   -0.223442    0.431443
     57          6           0       10.083946    1.180458   -0.251297
     58          6           0        8.664083    1.677354    0.180577
     59          6           0        8.377676    3.191147    0.364311
     60          6           0        9.208093    4.114524   -0.583061
     61          6           0        8.375497    3.655527    1.919010
     62          6           0        7.030488    3.633629    2.581933
     63          6           0        6.435628    5.025865    2.848164
     64          6           0        4.970308    5.162701    2.352989
     65          6           0        4.803612    6.015096    1.101636
     66          6           0        3.891764    5.565558    3.378544
     67          1           0       -0.020370    1.620384   -0.489828
     68          1           0       -5.500980    4.669697   -1.263003
     69          1           0       -8.699473   -0.580428    0.579164
     70          1           0       -0.604661   -3.038330    0.946686
     71          1           0        0.548564   -0.951517   -0.675802
     72          1           0        1.503090   -0.937394    1.500223
     73          1           0       -0.130621   -1.264056    2.247898
     74          1           0        0.430793    0.341311    1.548091
     75          1           0       -0.258393   -2.483472   -2.025869
     76          1           0       -1.486193   -3.600049   -1.751480
     77          1           0        0.151692   -5.153937   -1.770140
     78          1           0        0.854458   -4.460985   -0.268134
     79          1           0        0.243548    4.583348   -0.230921
     80          1           0       -0.040175    4.948613   -2.025416
     81          1           0        0.502550    3.433914   -1.561706
     82          1           0       -1.354437    6.804995   -0.563620
     83          1           0       -2.358643    7.967834   -1.554767
     84          1           0       -1.448528    6.672748   -2.370933
     85          1           0       -7.960130    3.763897   -1.300332
     86          1           0       -8.874028    2.097949    1.190132
     87          1           0       -8.948505    4.687521    0.616515
     88          1           0       -7.234444    5.340137    0.259350
     89          1           0       -7.483080    4.308660    1.616149
     90          1           0      -10.189519    2.785427   -0.913398
     91          1           0      -10.545220    1.292532   -0.039403
     92          1           0       -8.837530    0.591730   -2.218850
     93          1           0       -9.992662    1.526003   -2.809067
     94          1           0      -10.584241    0.228596   -1.804029
     95          1           0       -8.585491   -3.078938    2.063503
     96          1           0       -8.505810   -4.423716    0.985244
     97          1           0       -9.202729   -2.867700    0.435889
     98          1           0       -3.428830   -4.943152   -0.029687
     99          1           0       -1.079902   -7.177862    2.749659
    100          1           0       -2.639800   -7.345559    3.443941
    101          1           0       -1.536233   -5.996055    3.960734
    102          1           0        4.239844   -2.679707   -2.482246
    103          1           0        4.200301   -4.436670   -3.010655
    104          1           0        5.173352   -4.409490   -0.349283
    105          1           0        7.506853   -3.954885   -3.658660
    106          1           0        7.700323   -2.344139   -2.974188
    107          1           0        6.165338   -2.881299   -3.621439
    108          1           0        8.695584   -4.271809   -1.458630
    109          1           0        7.759232   -4.588395    0.076448
    110          1           0        7.995713   -2.715472    1.028518
    111          1           0        7.976594   -1.754204   -0.432393
    112          1           0       10.349229   -3.505433   -0.437577
    113          1           0       10.161603   -2.720178    1.092818
    114          1           0       10.213975   -1.177311   -1.511181
    115          1           0       12.805481   -0.982788   -0.162114
    116          1           0       12.501000   -2.056019   -1.593118
    117          1           0       12.410412   -2.592085    0.129761
    118          1           0       11.334387   -0.016569    0.966698
    119          1           0        9.706523   -0.439954    1.237074
    120          1           0       10.069009    1.054046   -1.333914
    121          1           0       10.853353    1.827547    0.168992
    122          1           0        8.257884    1.259697    1.100974
    123          1           0        8.002548    1.331162   -0.614041
    124          1           0        7.377650    3.326333   -0.047449
    125          1           0        9.954739    3.562120   -1.153894
    126          1           0        9.772553    4.774963    0.074774
    127          1           0        8.510484    4.709379   -1.173222
    128          1           0        8.869272    4.627188    1.894648
    129          1           0        9.033679    2.892436    2.335574
    130          1           0        7.240615    3.129228    3.525049
    131          1           0        6.292963    3.048576    2.032975
    132          1           0        6.993036    5.746629    2.249378
    133          1           0        6.546291    5.241870    3.911041
    134          1           0        4.598450    4.194642    2.019882
    135          1           0        3.898573    6.620737    1.149759
    136          1           0        4.872752    5.398984    0.205768
    137          1           0        5.626378    6.723684    1.001659
    138          1           0        4.076924    6.537130    3.835408
    139          1           0        3.933318    4.761796    4.114200
    140          1           0        2.865723    5.653640    3.022691
 ---------------------------------------------------------------------

 SCF Done:  E(RZINDO/S) =  -474.104205470     A.U. after   20 cycles

 Excitation energies and oscillator strengths:

 Excited State   1:      Singlet-A      1.2657 eV  979.54 nm  f=0.5554  <S**2>=0.000
     175 ->178         0.19254
     176 ->177         0.66145
 This state for optimization and/or second-order correction.
 Total Energy, E(CIS/TDA) =  -474.057690631
 Copying the excited state density for this state as the 1-particle RhoCI density.

 Excited State   2:      Singlet-A      1.9331 eV  641.39 nm  f=0.0076  <S**2>=0.000
     175 ->177        -0.45488
     176 ->178         0.51928

 Excited State   3:      Singlet-A      2.5835 eV  479.90 nm  f=0.0027  <S**2>=0.000
     176 ->180         0.69871

 Excited State   4:      Singlet-A      2.8280 eV  438.42 nm  f=0.0590  <S**2>=0.000
     176 ->179         0.62142
     176 ->182        -0.16787
     176 ->183         0.14802

 Excited State   5:      Singlet-A      2.9793 eV  416.16 nm  f=1.1226  <S**2>=0.000
     175 ->177         0.47507
     176 ->178         0.43157
     176 ->179        -0.16696
     176 ->182        -0.11204

 The electronic state is 1-A.
 Alpha  occ. eigenvalues --   -1.82824  -1.79944  -1.78316  -1.72947  -1.71550
 Alpha  occ. eigenvalues --   -1.69081  -1.64514  -1.61608  -1.58013  -1.57780
 Alpha  occ. eigenvalues --   -1.54575  -1.51454  -1.48950  -1.48294  -1.47601
 Alpha  occ. eigenvalues --   -1.43532  -1.41814  -1.40011  -1.39058  -1.38579
 Alpha  occ. eigenvalues --   -1.36382  -1.34382  -1.33799  -1.32132  -1.28716
 Alpha  occ. eigenvalues --   -1.27750  -1.25054  -1.22983  -1.19841  -1.17791
 Alpha  occ. eigenvalues --   -1.17534  -1.15540  -1.15132  -1.14282  -1.13135
 Alpha  occ. eigenvalues --   -1.12788  -1.10825  -1.10491  -1.04298  -1.03630
 Alpha  occ. eigenvalues --   -1.01888  -1.00567  -0.98235  -0.97662  -0.97455
 Alpha  occ. eigenvalues --   -0.96253  -0.94340  -0.93811  -0.92488  -0.92021
 Alpha  occ. eigenvalues --   -0.91379  -0.89635  -0.89426  -0.87647  -0.85239
 Alpha  occ. eigenvalues --   -0.85008  -0.83722  -0.83433  -0.81427  -0.80525
 Alpha  occ. eigenvalues --   -0.79374  -0.79007  -0.77869  -0.76686  -0.76324
 Alpha  occ. eigenvalues --   -0.75574  -0.74368  -0.74264  -0.73787  -0.73277
 Alpha  occ. eigenvalues --   -0.72792  -0.72270  -0.72047  -0.71367  -0.70903
 Alpha  occ. eigenvalues --   -0.70732  -0.70032  -0.68965  -0.68894  -0.68493
 Alpha  occ. eigenvalues --   -0.67855  -0.67790  -0.66740  -0.66241  -0.66041
 Alpha  occ. eigenvalues --   -0.65712  -0.65251  -0.64206  -0.63867  -0.63696
 Alpha  occ. eigenvalues --   -0.63110  -0.62917  -0.62582  -0.62373  -0.62021
 Alpha  occ. eigenvalues --   -0.61856  -0.61480  -0.61319  -0.61000  -0.60349
 Alpha  occ. eigenvalues --   -0.59680  -0.59273  -0.59080  -0.58612  -0.57910
 Alpha  occ. eigenvalues --   -0.57840  -0.57579  -0.57565  -0.56957  -0.56914
 Alpha  occ. eigenvalues --   -0.56158  -0.55727  -0.55586  -0.55253  -0.54620
 Alpha  occ. eigenvalues --   -0.54071  -0.53746  -0.53283  -0.53174  -0.52882
 Alpha  occ. eigenvalues --   -0.52607  -0.52098  -0.51676  -0.51346  -0.51076
 Alpha  occ. eigenvalues --   -0.50841  -0.50698  -0.50622  -0.50388  -0.50363
 Alpha  occ. eigenvalues --   -0.49714  -0.49285  -0.49268  -0.49135  -0.48841
 Alpha  occ. eigenvalues --   -0.48375  -0.48263  -0.48157  -0.47881  -0.47498
 Alpha  occ. eigenvalues --   -0.47300  -0.47196  -0.46922  -0.46577  -0.46260
 Alpha  occ. eigenvalues --   -0.45943  -0.45844  -0.45758  -0.45441  -0.45313
 Alpha  occ. eigenvalues --   -0.44669  -0.44584  -0.44504  -0.44256  -0.43990
 Alpha  occ. eigenvalues --   -0.43420  -0.43252  -0.42875  -0.42340  -0.42217
 Alpha  occ. eigenvalues --   -0.41894  -0.41720  -0.40588  -0.39817  -0.38752
 Alpha  occ. eigenvalues --   -0.38520  -0.37162  -0.36164  -0.35158  -0.34876
 Alpha  occ. eigenvalues --   -0.33392  -0.32819  -0.32356  -0.31987  -0.26544
 Alpha  occ. eigenvalues --   -0.20853
 Alpha virt. eigenvalues --   -0.07274  -0.02127  -0.00574   0.00237   0.00748
 Alpha virt. eigenvalues --    0.00853   0.02225   0.02807   0.04504   0.05014
 Alpha virt. eigenvalues --    0.05530   0.06390   0.07633   0.07851   0.08226

 Mulliken charges:
               1
     1  Mg   0.440687
     2  C   -0.065320
     3  C   -0.111314
     4  C   -0.044319
     5  C   -0.037164
     6  N   -0.300525
     7  C    0.132532
     8  C    0.008299
     9  C    0.003348
    10  C    0.157607
    11  C   -0.052069
    12  C   -0.025800
    13  C    0.012842
    14  C    0.456939
    15  O   -0.509681
    16  O   -0.269885
    17  N   -0.319175
    18  C    0.143268
    19  C   -0.007310
    20  C   -0.047413
    21  C    0.113549
    22  C   -0.034703
    23  C    0.336688
    24  O   -0.531909
    25  C   -0.020183
    26  N   -0.242284
    27  C    0.138675
    28  C    0.005375
    29  C    0.004400
    30  C    0.063699
    31  C   -0.052076
    32  C   -0.027546
    33  C   -0.055699
    34  N   -0.303614
    35  C    0.044923
    36  C    0.047877
    37  C   -0.082041
    38  C    0.128411
    39  C   -0.038384
    40  C    0.344425
    41  O   -0.511366
    42  C    0.057172
    43  C    0.480936
    44  O   -0.542293
    45  O   -0.264128
    46  C    0.081755
    47  C    0.113559
    48  C   -0.085292
    49  C   -0.026681
    50  C   -0.045479
    51  C   -0.026641
    52  C   -0.026570
    53  C   -0.028155
    54  C   -0.011320
    55  C   -0.064808
    56  C   -0.048765
    57  C   -0.038859
    58  C   -0.037402
    59  C   -0.032217
    60  C   -0.064286
    61  C   -0.035716
    62  C   -0.028195
    63  C   -0.027485
    64  C   -0.012380
    65  C   -0.056810
    66  C   -0.055118
    67  H    0.024039
    68  H    0.037980
    69  H    0.023746
    70  H    0.041281
    71  H    0.028898
    72  H    0.017368
    73  H    0.040340
    74  H    0.019042
    75  H    0.027939
    76  H    0.023825
    77  H    0.044352
    78  H    0.039871
    79  H    0.042661
    80  H    0.028776
    81  H    0.024801
    82  H    0.040586
    83  H    0.043112
    84  H    0.048208
    85  H    0.039389
    86  H    0.036723
    87  H    0.023944
    88  H    0.028839
    89  H    0.021209
    90  H    0.014009
    91  H    0.015028
    92  H    0.022984
    93  H    0.008772
    94  H    0.020666
    95  H    0.031957
    96  H    0.032404
    97  H    0.023503
    98  H    0.059313
    99  H    0.019723
   100  H    0.041653
   101  H    0.054775
   102  H    0.051804
   103  H    0.054972
   104  H    0.029691
   105  H    0.028601
   106  H    0.021718
   107  H    0.015761
   108  H    0.030364
   109  H    0.022940
   110  H    0.019923
   111  H    0.020503
   112  H    0.012664
   113  H    0.011262
   114  H    0.028943
   115  H    0.019892
   116  H    0.023137
   117  H    0.020240
   118  H    0.010811
   119  H    0.022452
   120  H    0.031706
   121  H    0.027217
   122  H    0.018926
   123  H    0.007698
   124  H    0.009406
   125  H    0.025628
   126  H    0.013396
   127  H    0.022920
   128  H    0.026070
   129  H    0.017964
   130  H    0.013676
   131  H    0.026343
   132  H    0.022501
   133  H    0.023968
   134  H    0.012351
   135  H    0.019516
   136  H    0.016556
   137  H    0.011409
   138  H    0.016799
   139  H    0.010986
   140  H    0.018990
 Sum of Mulliken charges =  -0.00000

 Dipole moment (field-independent basis, Debye):
    X=              6.3075    Y=              2.5384    Z=             -2.6841  Tot=              7.3097
 N-N= 4.421731283153D+03 E-N= 0.000000000000D+00  KE=-9.517714515636D+03
 Leave Link  601 at Wed May  4 00:42:44 2022, MaxMem=  6710886400 cpu:               0.8 elap:               0.1
 (Enter /sw/apps/gaussian-16.0/g16/l9999.exe)
 1\1\GINC-BP1-COMPUTE100\SP\RZINDO CIS\STO-3G\C55H74Mg1N4O6\OF15641\04-
 May-2022\0\\#p ZINDO=(nstates=5)\\step_1151_chromophore_12 ZINDO\\0,1\
 Mg,0,47.341,15.541,27.72\C,0,45.252,15.366,30.614\C,0,49.331,17.732,29
 .393\C,0,48.73,16.342,24.809\C,0,44.499,14.295,25.977\N,0,47.244,16.42
 3,29.786\C,0,46.438,16.099,30.837\C,0,47.042,16.527,32.174\C,0,48.128,
 17.534,31.692\C,0,48.296,17.21,30.195\C,0,47.717,19.014,31.82\C,0,47.7
 54,15.365,33.024\C,0,47.793,15.47,34.549\C,0,49.222,15.6,35.19\O,0,50.

 Normal termination of Gaussian 16 at Wed May  4 00:42:44 2022.
