 Gaussian 16, Revision A.03,
 Gaussian 16:  ES64L-G16RevA.03 25-Dec-2016

 ------------------------------
 #p blyp/Def2SVP td=(nstates=5)
 ------------------------------

 --------------------------------------------------
 step_1351_chromophore_6 TDDFT with blyp functional
 --------------------------------------------------
 Symbolic Z-matrix:
 Charge =  0 Multiplicity = 1

                         Standard orientation:
 ---------------------------------------------------------------------
 Center     Atomic      Atomic             Coordinates (Angstroms)
 Number     Number       Type             X           Y           Z
 ---------------------------------------------------------------------
      1         12           0        4.859903    1.202515    0.151153
      2          6           0        4.533629   -2.145493   -0.316295
      3          6           0        1.414370    1.607982   -0.106967
      4          6           0        5.271767    4.672732    0.034816
      5          6           0        8.353393    0.874456   -0.000584
      6          7           0        3.156659   -0.175525   -0.287465
      7          6           0        3.325665   -1.549902   -0.346885
      8          6           0        1.965049   -2.172417   -0.052887
      9          6           0        0.982672   -1.009600   -0.420829
     10          6           0        1.897601    0.262283   -0.402048
     11          6           0        0.361551   -0.991504   -1.810620
     12          6           0        1.730404   -2.821134    1.354311
     13          6           0        1.238724   -4.308352    1.389117
     14          6           0        0.097633   -4.653674    0.479128
     15          8           0        0.179291   -4.887859   -0.720405
     16          8           0       -1.036006   -4.810061    1.280997
     17          7           0        3.606346    2.854044    0.212688
     18          6           0        2.215086    2.778640    0.148326
     19          6           0        1.656419    4.135058    0.277345
     20          6           0        2.758772    5.000607    0.281049
     21          6           0        3.978559    4.191124    0.134035
     22          6           0        0.167571    4.319929    0.489436
     23          6           0        2.725929    6.484514    0.384817
     24          8           0        3.715713    7.187126    0.658169
     25          6           0        1.416671    7.226466    0.088097
     26          7           0        6.517077    2.566673   -0.037864
     27          6           0        6.416829    3.904462   -0.081742
     28          6           0        7.851219    4.590825   -0.306121
     29          6           0        8.664654    3.372200   -0.180527
     30          6           0        7.754687    2.153360   -0.037482
     31          6           0        8.077403    5.302329   -1.683665
     32          6           0        9.883937    3.406336    0.849141
     33          6           0        9.497923    2.786957    2.225928
     34          7           0        6.242019   -0.308535   -0.018245
     35          6           0        7.645170   -0.316503    0.018033
     36          6           0        8.113561   -1.680758    0.102796
     37          6           0        6.954849   -2.457731   -0.064878
     38          6           0        5.830320   -1.562260   -0.122902
     39          6           0        9.493493   -2.198909    0.076116
     40          6           0        6.340067   -3.833410   -0.072485
     41          8           0        6.951348   -4.893725   -0.010967
     42          6           0        4.811228   -3.656068   -0.175763
     43          6           0        4.326090   -4.491689   -1.285638
     44          8           0        4.262704   -4.162645   -2.455198
     45          8           0        3.974134   -5.741970   -0.858770
     46          6           0        3.168723   -6.535641   -1.782916
     47          6           0       -2.292416   -5.130373    0.512818
     48          6           0       -3.403861   -4.220767    0.737203
     49          6           0       -3.801635   -3.146346    0.008894
     50          6           0       -2.948464   -2.664416   -1.135392
     51          6           0       -5.043785   -2.359636    0.384678
     52          6           0       -6.345775   -3.130920    0.227646
     53          6           0       -7.148183   -3.060505    1.539057
     54          6           0       -7.919476   -1.755687    1.649760
     55          6           0       -8.061205   -1.177332    3.114480
     56          6           0       -9.439471   -1.944902    1.054339
     57          6           0      -10.210200   -0.612018    0.982010
     58          6           0      -10.943479   -0.493577   -0.360947
     59          6           0      -12.511065   -0.361684   -0.158059
     60          6           0      -13.365596   -1.156461   -1.247453
     61          6           0      -13.016336    1.143326   -0.004412
     62          6           0      -13.069070    1.886030   -1.274101
     63          6           0      -12.450394    3.319295   -1.147880
     64          6           0      -13.464424    4.397788   -0.804673
     65          6           0      -13.116622    5.005348    0.640724
     66          6           0      -13.676535    5.606061   -1.757692
     67          1           0        0.326161    1.532420   -0.060416
     68          1           0        5.385764    5.740062   -0.160521
     69          1           0        9.438958    0.771554    0.070956
     70          1           0        1.916199   -2.974408   -0.789619
     71          1           0        0.122745   -1.053921    0.246468
     72          1           0        0.812645   -1.711235   -2.493732
     73          1           0        0.561859   -0.033207   -2.290619
     74          1           0       -0.725961   -1.054288   -1.765565
     75          1           0        1.009501   -2.165029    1.840412
     76          1           0        2.610119   -2.843527    1.997314
     77          1           0        0.958836   -4.448974    2.432801
     78          1           0        2.010993   -5.050573    1.189211
     79          1           0        0.014294    5.228048    1.071395
     80          1           0       -0.142004    3.488576    1.123759
     81          1           0       -0.273167    4.376822   -0.505950
     82          1           0        0.731176    7.132001    0.929583
     83          1           0        1.013857    6.795535   -0.828425
     84          1           0        1.608538    8.292359   -0.032506
     85          1           0        7.916986    5.343300    0.480087
     86          1           0        9.202600    3.171683   -1.107520
     87          1           0        8.864225    4.816762   -2.260610
     88          1           0        8.304932    6.352980   -1.501578
     89          1           0        7.151483    5.213508   -2.252012
     90          1           0       10.209662    4.445022    0.896606
     91          1           0       10.723723    2.871741    0.405417
     92          1           0        8.412222    2.709730    2.281476
     93          1           0        9.890683    3.397721    3.039489
     94          1           0        9.968637    1.806729    2.293764
     95          1           0       10.163974   -1.643108    0.732072
     96          1           0        9.940758   -1.964866   -0.889884
     97          1           0        9.679018   -3.259813    0.243182
     98          1           0        4.291980   -3.957241    0.734182
     99          1           0        2.241468   -6.718530   -1.240881
    100          1           0        3.631204   -7.482665   -2.058772
    101          1           0        2.926857   -5.923277   -2.651212
    102          1           0       -2.610926   -6.034224    1.033839
    103          1           0       -2.189973   -5.305119   -0.557793
    104          1           0       -4.019221   -4.535198    1.580114
    105          1           0       -1.918964   -2.945946   -0.915229
    106          1           0       -2.855922   -1.579365   -1.179416
    107          1           0       -3.382698   -3.119910   -2.025696
    108          1           0       -5.068364   -1.533760   -0.327589
    109          1           0       -4.968169   -1.860550    1.350656
    110          1           0       -6.046946   -4.146397   -0.034610
    111          1           0       -6.994815   -2.734392   -0.552780
    112          1           0       -6.504882   -3.210546    2.405390
    113          1           0       -7.760815   -3.961542    1.503668
    114          1           0       -7.408157   -0.964176    1.102557
    115          1           0       -7.724849   -0.147767    3.229987
    116          1           0       -7.644165   -1.817052    3.891542
    117          1           0       -9.091486   -1.282838    3.454128
    118          1           0       -9.960626   -2.621687    1.731226
    119          1           0       -9.459111   -2.453059    0.090422
    120          1           0       -9.485384    0.188878    1.129990
    121          1           0      -10.871997   -0.737878    1.838424
    122          1           0      -10.810456   -1.370240   -0.995796
    123          1           0      -10.618480    0.488496   -0.702235
    124          1           0      -12.654473   -0.927475    0.762214
    125          1           0      -13.509203   -2.217314   -1.041331
    126          1           0      -12.656490   -1.168501   -2.075220
    127          1           0      -14.228838   -0.556626   -1.536397
    128          1           0      -12.500039    1.685483    0.788027
    129          1           0      -14.044539    1.007516    0.332715
    130          1           0      -14.147337    1.965136   -1.413770
    131          1           0      -12.485085    1.360382   -2.028351
    132          1           0      -12.007424    3.653912   -2.086396
    133          1           0      -11.639461    3.241698   -0.423565
    134          1           0      -14.453170    3.940054   -0.777556
    135          1           0      -12.679473    6.000411    0.556690
    136          1           0      -12.603959    4.250825    1.237167
    137          1           0      -14.101935    5.145646    1.085366
    138          1           0      -13.632107    5.255524   -2.787986
    139          1           0      -12.981935    6.392581   -1.464566
    140          1           0      -14.691815    5.968803   -1.597980
 ---------------------------------------------------------------------

 SCF Done:  E(RB-LYP) =  -3007.36098673     A.U. after   21 cycles

 Excitation energies and oscillator strengths:

 Excited State   1:      Singlet-A      1.7781 eV  697.27 nm  f=0.2715  <S**2>=0.000
     245 -> 248       -0.18080
     246 -> 247        0.68465
     246 <- 247       -0.14841
 This state for optimization and/or second-order correction.
 Total Energy, E(TD-HF/TD-DFT) =  -3007.29564099
 Copying the excited state density for this state as the 1-particle RhoCI density.

 Excited State   2:      Singlet-A      1.9480 eV  636.47 nm  f=0.0159  <S**2>=0.000
     244 -> 247        0.60616
     245 -> 247        0.33597
     246 -> 248        0.10189

 Excited State   3:      Singlet-A      2.0470 eV  605.68 nm  f=0.0032  <S**2>=0.000
     243 -> 247        0.68256
     244 -> 247       -0.12567
     245 -> 247        0.11594

 Excited State   4:      Singlet-A      2.1037 eV  589.37 nm  f=0.0343  <S**2>=0.000
     243 -> 247       -0.17161
     244 -> 247       -0.32025
     245 -> 247        0.51185
     246 -> 248        0.30063

 Excited State   5:      Singlet-A      2.6142 eV  474.27 nm  f=0.0045  <S**2>=0.000
     239 -> 247       -0.11231
     242 -> 247        0.66320
     246 -> 248       -0.13172

 The electronic state is 1-A.
 Alpha  occ. eigenvalues --  -46.26859 -18.82522 -18.80934 -18.78207 -18.75803
 Alpha  occ. eigenvalues --  -18.75751 -18.75487 -14.03075 -14.02969 -14.01496
 Alpha  occ. eigenvalues --  -14.00673 -10.04752 -10.03090 -10.00043  -9.99797
 Alpha  occ. eigenvalues --   -9.97440  -9.97042  -9.96454  -9.96109  -9.96051
 Alpha  occ. eigenvalues --   -9.96026  -9.96000  -9.95873  -9.95299  -9.94562
 Alpha  occ. eigenvalues --   -9.94558  -9.94132  -9.93989  -9.93986  -9.93971
 Alpha  occ. eigenvalues --   -9.93961  -9.93808  -9.93792  -9.93560  -9.93505
 Alpha  occ. eigenvalues --   -9.93471  -9.93148  -9.93104  -9.92750  -9.92707
 Alpha  occ. eigenvalues --   -9.92694  -9.92470  -9.92234  -9.92190  -9.92139
 Alpha  occ. eigenvalues --   -9.92131  -9.92009  -9.91978  -9.91923  -9.91851
 Alpha  occ. eigenvalues --   -9.91835  -9.91639  -9.91636  -9.91618  -9.91492
 Alpha  occ. eigenvalues --   -9.91428  -9.91407  -9.91387  -9.91228  -9.91148
 Alpha  occ. eigenvalues --   -9.91133  -9.91124  -9.90984  -9.90972  -9.90968
 Alpha  occ. eigenvalues --   -9.90889  -2.91508  -1.71938  -1.71376  -1.71230
 Alpha  occ. eigenvalues --   -0.97263  -0.97204  -0.91092  -0.90425  -0.90367
 Alpha  occ. eigenvalues --   -0.88977  -0.87640  -0.86133  -0.85405  -0.84382
 Alpha  occ. eigenvalues --   -0.75369  -0.74559  -0.73238  -0.72737  -0.72276
 Alpha  occ. eigenvalues --   -0.72190  -0.71776  -0.70830  -0.70704  -0.70614
 Alpha  occ. eigenvalues --   -0.70084  -0.69467  -0.68709  -0.67797  -0.67111
 Alpha  occ. eigenvalues --   -0.66761  -0.65841  -0.65591  -0.64899  -0.64370
 Alpha  occ. eigenvalues --   -0.64240  -0.62851  -0.62640  -0.61293  -0.60985
 Alpha  occ. eigenvalues --   -0.60582  -0.59874  -0.59798  -0.59400  -0.59102
 Alpha  occ. eigenvalues --   -0.58456  -0.57886  -0.56539  -0.55937  -0.54861
 Alpha  occ. eigenvalues --   -0.54206  -0.53588  -0.53060  -0.52728  -0.51529
 Alpha  occ. eigenvalues --   -0.51392  -0.51337  -0.50774  -0.50170  -0.50037
 Alpha  occ. eigenvalues --   -0.49396  -0.49145  -0.47491  -0.47486  -0.46801
 Alpha  occ. eigenvalues --   -0.46470  -0.46231  -0.46004  -0.45125  -0.44688
 Alpha  occ. eigenvalues --   -0.43876  -0.43709  -0.43203  -0.43036  -0.42861
 Alpha  occ. eigenvalues --   -0.42374  -0.41987  -0.41909  -0.41383  -0.41309
 Alpha  occ. eigenvalues --   -0.41189  -0.40804  -0.40568  -0.40343  -0.40093
 Alpha  occ. eigenvalues --   -0.39945  -0.39832  -0.39597  -0.39495  -0.39372
 Alpha  occ. eigenvalues --   -0.39127  -0.39053  -0.38572  -0.38472  -0.38275
 Alpha  occ. eigenvalues --   -0.38049  -0.37962  -0.37895  -0.37782  -0.37429
 Alpha  occ. eigenvalues --   -0.37220  -0.37049  -0.36905  -0.36828  -0.36731
 Alpha  occ. eigenvalues --   -0.36372  -0.36282  -0.36132  -0.35747  -0.35576
 Alpha  occ. eigenvalues --   -0.35532  -0.35142  -0.35017  -0.34939  -0.34778
 Alpha  occ. eigenvalues --   -0.34719  -0.34557  -0.34233  -0.34158  -0.33778
 Alpha  occ. eigenvalues --   -0.33695  -0.33606  -0.33514  -0.33316  -0.33097
 Alpha  occ. eigenvalues --   -0.32975  -0.32862  -0.32693  -0.32568  -0.32485
 Alpha  occ. eigenvalues --   -0.32278  -0.32019  -0.31858  -0.31766  -0.31735
 Alpha  occ. eigenvalues --   -0.31636  -0.31368  -0.31064  -0.30998  -0.30634
 Alpha  occ. eigenvalues --   -0.30348  -0.30313  -0.30048  -0.29912  -0.29843
 Alpha  occ. eigenvalues --   -0.29628  -0.29374  -0.29221  -0.29162  -0.29047
 Alpha  occ. eigenvalues --   -0.28860  -0.28560  -0.28431  -0.28101  -0.27830
 Alpha  occ. eigenvalues --   -0.27628  -0.27202  -0.27090  -0.27001  -0.26403
 Alpha  occ. eigenvalues --   -0.26020  -0.25739  -0.25663  -0.25408  -0.25319
 Alpha  occ. eigenvalues --   -0.24503  -0.24439  -0.23937  -0.23768  -0.23747
 Alpha  occ. eigenvalues --   -0.23259  -0.23012  -0.21994  -0.21315  -0.21141
 Alpha  occ. eigenvalues --   -0.20915  -0.20384  -0.18724  -0.18456  -0.17578
 Alpha  occ. eigenvalues --   -0.15509
 Alpha virt. eigenvalues --   -0.11303  -0.07222  -0.06272  -0.04765  -0.04382
 Alpha virt. eigenvalues --   -0.03739  -0.02248  -0.01793  -0.01336   0.00170
 Alpha virt. eigenvalues --    0.01119   0.01673   0.02322   0.02474   0.02564

 Mulliken charges:
               1
     1  Mg   0.690475
     2  C    0.104102
     3  C   -0.064038
     4  C   -0.042571
     5  C   -0.109188
     6  N   -0.228095
     7  C   -0.129859
     8  C    0.073294
     9  C   -0.074328
    10  C    0.025767
    11  C    0.138042
    12  C    0.117940
    13  C    0.124158
    14  C    0.105956
    15  O   -0.198137
    16  O   -0.293551
    17  N   -0.309904
    18  C    0.170728
    19  C   -0.180944
    20  C    0.062982
    21  C    0.121135
    22  C    0.205952
    23  C   -0.098292
    24  O   -0.187200
    25  C    0.124351
    26  N   -0.150968
    27  C   -0.020834
    28  C    0.029409
    29  C    0.022049
    30  C    0.046925
    31  C    0.128568
    32  C    0.049575
    33  C    0.081908
    34  N   -0.276385
    35  C    0.121538
    36  C   -0.159199
    37  C    0.069085
    38  C    0.023483
    39  C    0.169216
    40  C   -0.025691
    41  O   -0.124909
    42  C    0.076900
    43  C    0.097317
    44  O   -0.174505
    45  O   -0.273162
    46  C    0.204349
    47  C    0.354391
    48  C   -0.130057
    49  C   -0.196688
    50  C    0.135446
    51  C    0.169331
    52  C    0.068208
    53  C    0.132245
    54  C   -0.083259
    55  C    0.104939
    56  C    0.028640
    57  C    0.080907
    58  C    0.140200
    59  C   -0.119334
    60  C    0.104904
    61  C    0.082940
    62  C    0.075402
    63  C    0.127145
    64  C   -0.117372
    65  C    0.085350
    66  C    0.107451
    67  H   -0.053545
    68  H   -0.039334
    69  H   -0.062865
    70  H   -0.014588
    71  H   -0.032669
    72  H    0.006643
    73  H   -0.019959
    74  H   -0.019786
    75  H   -0.019367
    76  H   -0.008195
    77  H   -0.010316
    78  H    0.016285
    79  H   -0.016474
    80  H    0.006921
    81  H    0.014993
    82  H    0.013840
    83  H    0.004917
    84  H   -0.007426
    85  H   -0.018508
    86  H   -0.034013
    87  H   -0.007569
    88  H   -0.001249
    89  H   -0.006492
    90  H   -0.024440
    91  H   -0.027522
    92  H    0.012911
    93  H   -0.010144
    94  H   -0.008220
    95  H   -0.023135
    96  H   -0.003786
    97  H    0.012539
    98  H   -0.004549
    99  H    0.008592
   100  H    0.019387
   101  H    0.023586
   102  H   -0.027073
   103  H    0.009299
   104  H   -0.043266
   105  H    0.009450
   106  H    0.004348
   107  H    0.019549
   108  H   -0.055703
   109  H   -0.006866
   110  H   -0.028555
   111  H   -0.025809
   112  H   -0.038446
   113  H   -0.042449
   114  H   -0.030265
   115  H   -0.002292
   116  H   -0.028244
   117  H   -0.028546
   118  H   -0.031853
   119  H   -0.032677
   120  H   -0.025692
   121  H   -0.018884
   122  H   -0.024872
   123  H   -0.032881
   124  H   -0.045797
   125  H   -0.008567
   126  H   -0.026126
   127  H   -0.007248
   128  H   -0.030464
   129  H   -0.038236
   130  H   -0.019736
   131  H   -0.016938
   132  H   -0.053306
   133  H   -0.034895
   134  H   -0.035594
   135  H   -0.006801
   136  H   -0.008247
   137  H   -0.026228
   138  H   -0.013598
   139  H   -0.009390
   140  H   -0.017794
 Sum of Mulliken charges =  -0.00000

 Dipole moment (field-independent basis, Debye):
    X=             -5.2550    Y=              1.7301    Z=              2.0173  Tot=              5.8888
 Quadrupole moment (field-independent basis, Debye-Ang):
   XX=           -384.3728   YY=           -435.3480   ZZ=           -411.8739
   XY=             26.0727   XZ=              5.6442   YZ=            -12.6260

 Normal termination of Gaussian 16 at Wed May  4 05:14:49 2022.
