 Gaussian 16, Revision A.03,
 Gaussian 16:  ES64L-G16RevA.03 25-Dec-2016

 -----------------------------------
 #p cam-b3lyp/Def2SVP td=(nstates=5)
 -----------------------------------

 -------------------------------------------------------
 step_1351_chromophore_6 TDDFT with cam-b3lyp functional
 -------------------------------------------------------
 Symbolic Z-matrix:
 Charge =  0 Multiplicity = 1

                         Standard orientation:
 ---------------------------------------------------------------------
 Center     Atomic      Atomic             Coordinates (Angstroms)
 Number     Number       Type             X           Y           Z
 ---------------------------------------------------------------------
      1         12           0        4.859903    1.202515    0.151153
      2          6           0        4.533629   -2.145493   -0.316295
      3          6           0        1.414370    1.607982   -0.106967
      4          6           0        5.271767    4.672732    0.034816
      5          6           0        8.353393    0.874456   -0.000584
      6          7           0        3.156659   -0.175525   -0.287465
      7          6           0        3.325665   -1.549902   -0.346885
      8          6           0        1.965049   -2.172417   -0.052887
      9          6           0        0.982672   -1.009600   -0.420829
     10          6           0        1.897601    0.262283   -0.402048
     11          6           0        0.361551   -0.991504   -1.810620
     12          6           0        1.730404   -2.821134    1.354311
     13          6           0        1.238724   -4.308352    1.389117
     14          6           0        0.097633   -4.653674    0.479128
     15          8           0        0.179291   -4.887859   -0.720405
     16          8           0       -1.036006   -4.810061    1.280997
     17          7           0        3.606346    2.854044    0.212688
     18          6           0        2.215086    2.778640    0.148326
     19          6           0        1.656419    4.135058    0.277345
     20          6           0        2.758772    5.000607    0.281049
     21          6           0        3.978559    4.191124    0.134035
     22          6           0        0.167571    4.319929    0.489436
     23          6           0        2.725929    6.484514    0.384817
     24          8           0        3.715713    7.187126    0.658169
     25          6           0        1.416671    7.226466    0.088097
     26          7           0        6.517077    2.566673   -0.037864
     27          6           0        6.416829    3.904462   -0.081742
     28          6           0        7.851219    4.590825   -0.306121
     29          6           0        8.664654    3.372200   -0.180527
     30          6           0        7.754687    2.153360   -0.037482
     31          6           0        8.077403    5.302329   -1.683665
     32          6           0        9.883937    3.406336    0.849141
     33          6           0        9.497923    2.786957    2.225928
     34          7           0        6.242019   -0.308535   -0.018245
     35          6           0        7.645170   -0.316503    0.018033
     36          6           0        8.113561   -1.680758    0.102796
     37          6           0        6.954849   -2.457731   -0.064878
     38          6           0        5.830320   -1.562260   -0.122902
     39          6           0        9.493493   -2.198909    0.076116
     40          6           0        6.340067   -3.833410   -0.072485
     41          8           0        6.951348   -4.893725   -0.010967
     42          6           0        4.811228   -3.656068   -0.175763
     43          6           0        4.326090   -4.491689   -1.285638
     44          8           0        4.262704   -4.162645   -2.455198
     45          8           0        3.974134   -5.741970   -0.858770
     46          6           0        3.168723   -6.535641   -1.782916
     47          6           0       -2.292416   -5.130373    0.512818
     48          6           0       -3.403861   -4.220767    0.737203
     49          6           0       -3.801635   -3.146346    0.008894
     50          6           0       -2.948464   -2.664416   -1.135392
     51          6           0       -5.043785   -2.359636    0.384678
     52          6           0       -6.345775   -3.130920    0.227646
     53          6           0       -7.148183   -3.060505    1.539057
     54          6           0       -7.919476   -1.755687    1.649760
     55          6           0       -8.061205   -1.177332    3.114480
     56          6           0       -9.439471   -1.944902    1.054339
     57          6           0      -10.210200   -0.612018    0.982010
     58          6           0      -10.943479   -0.493577   -0.360947
     59          6           0      -12.511065   -0.361684   -0.158059
     60          6           0      -13.365596   -1.156461   -1.247453
     61          6           0      -13.016336    1.143326   -0.004412
     62          6           0      -13.069070    1.886030   -1.274101
     63          6           0      -12.450394    3.319295   -1.147880
     64          6           0      -13.464424    4.397788   -0.804673
     65          6           0      -13.116622    5.005348    0.640724
     66          6           0      -13.676535    5.606061   -1.757692
     67          1           0        0.326161    1.532420   -0.060416
     68          1           0        5.385764    5.740062   -0.160521
     69          1           0        9.438958    0.771554    0.070956
     70          1           0        1.916199   -2.974408   -0.789619
     71          1           0        0.122745   -1.053921    0.246468
     72          1           0        0.812645   -1.711235   -2.493732
     73          1           0        0.561859   -0.033207   -2.290619
     74          1           0       -0.725961   -1.054288   -1.765565
     75          1           0        1.009501   -2.165029    1.840412
     76          1           0        2.610119   -2.843527    1.997314
     77          1           0        0.958836   -4.448974    2.432801
     78          1           0        2.010993   -5.050573    1.189211
     79          1           0        0.014294    5.228048    1.071395
     80          1           0       -0.142004    3.488576    1.123759
     81          1           0       -0.273167    4.376822   -0.505950
     82          1           0        0.731176    7.132001    0.929583
     83          1           0        1.013857    6.795535   -0.828425
     84          1           0        1.608538    8.292359   -0.032506
     85          1           0        7.916986    5.343300    0.480087
     86          1           0        9.202600    3.171683   -1.107520
     87          1           0        8.864225    4.816762   -2.260610
     88          1           0        8.304932    6.352980   -1.501578
     89          1           0        7.151483    5.213508   -2.252012
     90          1           0       10.209662    4.445022    0.896606
     91          1           0       10.723723    2.871741    0.405417
     92          1           0        8.412222    2.709730    2.281476
     93          1           0        9.890683    3.397721    3.039489
     94          1           0        9.968637    1.806729    2.293764
     95          1           0       10.163974   -1.643108    0.732072
     96          1           0        9.940758   -1.964866   -0.889884
     97          1           0        9.679018   -3.259813    0.243182
     98          1           0        4.291980   -3.957241    0.734182
     99          1           0        2.241468   -6.718530   -1.240881
    100          1           0        3.631204   -7.482665   -2.058772
    101          1           0        2.926857   -5.923277   -2.651212
    102          1           0       -2.610926   -6.034224    1.033839
    103          1           0       -2.189973   -5.305119   -0.557793
    104          1           0       -4.019221   -4.535198    1.580114
    105          1           0       -1.918964   -2.945946   -0.915229
    106          1           0       -2.855922   -1.579365   -1.179416
    107          1           0       -3.382698   -3.119910   -2.025696
    108          1           0       -5.068364   -1.533760   -0.327589
    109          1           0       -4.968169   -1.860550    1.350656
    110          1           0       -6.046946   -4.146397   -0.034610
    111          1           0       -6.994815   -2.734392   -0.552780
    112          1           0       -6.504882   -3.210546    2.405390
    113          1           0       -7.760815   -3.961542    1.503668
    114          1           0       -7.408157   -0.964176    1.102557
    115          1           0       -7.724849   -0.147767    3.229987
    116          1           0       -7.644165   -1.817052    3.891542
    117          1           0       -9.091486   -1.282838    3.454128
    118          1           0       -9.960626   -2.621687    1.731226
    119          1           0       -9.459111   -2.453059    0.090422
    120          1           0       -9.485384    0.188878    1.129990
    121          1           0      -10.871997   -0.737878    1.838424
    122          1           0      -10.810456   -1.370240   -0.995796
    123          1           0      -10.618480    0.488496   -0.702235
    124          1           0      -12.654473   -0.927475    0.762214
    125          1           0      -13.509203   -2.217314   -1.041331
    126          1           0      -12.656490   -1.168501   -2.075220
    127          1           0      -14.228838   -0.556626   -1.536397
    128          1           0      -12.500039    1.685483    0.788027
    129          1           0      -14.044539    1.007516    0.332715
    130          1           0      -14.147337    1.965136   -1.413770
    131          1           0      -12.485085    1.360382   -2.028351
    132          1           0      -12.007424    3.653912   -2.086396
    133          1           0      -11.639461    3.241698   -0.423565
    134          1           0      -14.453170    3.940054   -0.777556
    135          1           0      -12.679473    6.000411    0.556690
    136          1           0      -12.603959    4.250825    1.237167
    137          1           0      -14.101935    5.145646    1.085366
    138          1           0      -13.632107    5.255524   -2.787986
    139          1           0      -12.981935    6.392581   -1.464566
    140          1           0      -14.691815    5.968803   -1.597980
 ---------------------------------------------------------------------

 SCF Done:  E(RCAM-B3LYP) =  -3007.15693598     A.U. after   19 cycles

 Excitation energies and oscillator strengths:

 Excited State   1:      Singlet-A      1.7073 eV  726.20 nm  f=0.3673  <S**2>=0.000
     245 -> 248       -0.17978
     246 -> 247        0.68526
     245 <- 248       -0.10691
 This state for optimization and/or second-order correction.
 Total Energy, E(TD-HF/TD-DFT) =  -3007.09419420
 Copying the excited state density for this state as the 1-particle RhoCI density.

 Excited State   2:      Singlet-A      2.3175 eV  534.99 nm  f=0.0420  <S**2>=0.000
     245 -> 247        0.58811
     246 -> 248        0.38144

 Excited State   3:      Singlet-A      3.3808 eV  366.73 nm  f=0.6742  <S**2>=0.000
     243 -> 247       -0.22448
     245 -> 247       -0.34265
     246 -> 248        0.55961
     245 <- 247        0.10369

 Excited State   4:      Singlet-A      3.5280 eV  351.42 nm  f=0.0159  <S**2>=0.000
     240 -> 247       -0.13030
     240 -> 249        0.14286
     243 -> 247       -0.25635
     244 -> 247        0.56753

 Excited State   5:      Singlet-A      3.5825 eV  346.08 nm  f=0.0184  <S**2>=0.000
     239 -> 247        0.12676
     239 -> 249       -0.13094
     240 -> 247        0.45045
     240 -> 248       -0.13141
     240 -> 249       -0.27591
     240 -> 250       -0.11637
     243 -> 249       -0.10268
     244 -> 247        0.26076

 The electronic state is 1-A.
 Alpha  occ. eigenvalues --  -46.88389 -19.25419 -19.23764 -19.21215 -19.18967
 Alpha  occ. eigenvalues --  -19.18841 -19.18823 -14.41855 -14.41823 -14.40110
 Alpha  occ. eigenvalues --  -14.38966 -10.40151 -10.38453 -10.35259 -10.35256
 Alpha  occ. eigenvalues --  -10.31848 -10.31597 -10.31259 -10.30591 -10.30554
 Alpha  occ. eigenvalues --  -10.30331 -10.30090 -10.30008 -10.29165 -10.28962
 Alpha  occ. eigenvalues --  -10.28620 -10.28499 -10.28402 -10.28202 -10.28080
 Alpha  occ. eigenvalues --  -10.28026 -10.27900 -10.27820 -10.27672 -10.27667
 Alpha  occ. eigenvalues --  -10.27660 -10.27386 -10.27069 -10.26960 -10.26737
 Alpha  occ. eigenvalues --  -10.26427 -10.26282 -10.26129 -10.26052 -10.25961
 Alpha  occ. eigenvalues --  -10.25960 -10.25849 -10.25685 -10.25669 -10.25603
 Alpha  occ. eigenvalues --  -10.25512 -10.25491 -10.25422 -10.25386 -10.25127
 Alpha  occ. eigenvalues --  -10.25114 -10.25059 -10.25053 -10.24984 -10.24898
 Alpha  occ. eigenvalues --  -10.24822 -10.24761 -10.24663 -10.24649 -10.24613
 Alpha  occ. eigenvalues --  -10.24570  -3.16942  -1.91851  -1.91378  -1.91262
 Alpha  occ. eigenvalues --   -1.15736  -1.15698  -1.09359  -1.09035  -1.08205
 Alpha  occ. eigenvalues --   -1.06839  -1.05329  -1.03782  -1.02894  -1.02097
 Alpha  occ. eigenvalues --   -0.92422  -0.91509  -0.90090  -0.89496  -0.89016
 Alpha  occ. eigenvalues --   -0.88924  -0.88472  -0.87504  -0.87419  -0.87157
 Alpha  occ. eigenvalues --   -0.86533  -0.85875  -0.85053  -0.83990  -0.83223
 Alpha  occ. eigenvalues --   -0.82848  -0.81987  -0.81599  -0.80615  -0.80480
 Alpha  occ. eigenvalues --   -0.80080  -0.78689  -0.78332  -0.76687  -0.76408
 Alpha  occ. eigenvalues --   -0.75884  -0.75129  -0.75115  -0.74711  -0.74364
 Alpha  occ. eigenvalues --   -0.73517  -0.72874  -0.71422  -0.70768  -0.69435
 Alpha  occ. eigenvalues --   -0.68832  -0.68290  -0.67595  -0.67254  -0.65677
 Alpha  occ. eigenvalues --   -0.65604  -0.65408  -0.64865  -0.64124  -0.63951
 Alpha  occ. eigenvalues --   -0.63192  -0.63124  -0.61262  -0.61104  -0.60453
 Alpha  occ. eigenvalues --   -0.60006  -0.59920  -0.59528  -0.58455  -0.58327
 Alpha  occ. eigenvalues --   -0.57148  -0.57124  -0.56323  -0.56229  -0.56022
 Alpha  occ. eigenvalues --   -0.55309  -0.55118  -0.54922  -0.54457  -0.54133
 Alpha  occ. eigenvalues --   -0.54005  -0.53687  -0.53623  -0.53279  -0.52912
 Alpha  occ. eigenvalues --   -0.52600  -0.52472  -0.52415  -0.52223  -0.52004
 Alpha  occ. eigenvalues --   -0.51821  -0.51564  -0.51156  -0.50868  -0.50622
 Alpha  occ. eigenvalues --   -0.50523  -0.50422  -0.50252  -0.50085  -0.49784
 Alpha  occ. eigenvalues --   -0.49571  -0.49301  -0.49108  -0.49094  -0.48947
 Alpha  occ. eigenvalues --   -0.48843  -0.48584  -0.48388  -0.48274  -0.47913
 Alpha  occ. eigenvalues --   -0.47774  -0.47462  -0.47096  -0.46904  -0.46744
 Alpha  occ. eigenvalues --   -0.46692  -0.46556  -0.46049  -0.45893  -0.45548
 Alpha  occ. eigenvalues --   -0.45457  -0.45288  -0.45270  -0.45023  -0.44980
 Alpha  occ. eigenvalues --   -0.44679  -0.44600  -0.44507  -0.44169  -0.44075
 Alpha  occ. eigenvalues --   -0.44019  -0.43786  -0.43647  -0.43326  -0.43220
 Alpha  occ. eigenvalues --   -0.43168  -0.42820  -0.42640  -0.42371  -0.42036
 Alpha  occ. eigenvalues --   -0.41852  -0.41630  -0.41366  -0.41145  -0.41096
 Alpha  occ. eigenvalues --   -0.41031  -0.40667  -0.40458  -0.40295  -0.40261
 Alpha  occ. eigenvalues --   -0.40154  -0.39935  -0.39739  -0.39000  -0.38656
 Alpha  occ. eigenvalues --   -0.38464  -0.38145  -0.37906  -0.37810  -0.37648
 Alpha  occ. eigenvalues --   -0.36864  -0.36656  -0.36307  -0.36303  -0.35942
 Alpha  occ. eigenvalues --   -0.35602  -0.35314  -0.35020  -0.34964  -0.34068
 Alpha  occ. eigenvalues --   -0.33872  -0.33694  -0.33156  -0.31488  -0.31007
 Alpha  occ. eigenvalues --   -0.30818  -0.30621  -0.30440  -0.29516  -0.24556
 Alpha  occ. eigenvalues --   -0.20646
 Alpha virt. eigenvalues --   -0.08254  -0.02187   0.00207   0.02106   0.02917
 Alpha virt. eigenvalues --    0.03037   0.03948   0.05562   0.06164   0.06483
 Alpha virt. eigenvalues --    0.07832   0.08403   0.08585   0.08805   0.09311

 Mulliken charges:
               1
     1  Mg   0.824487
     2  C    0.077677
     3  C   -0.082720
     4  C   -0.056597
     5  C   -0.104270
     6  N   -0.297762
     7  C   -0.074542
     8  C    0.013073
     9  C   -0.125864
    10  C    0.046433
    11  C    0.082963
    12  C    0.064931
    13  C    0.056176
    14  C    0.183681
    15  O   -0.239749
    16  O   -0.358534
    17  N   -0.398136
    18  C    0.182277
    19  C   -0.180592
    20  C   -0.007893
    21  C    0.146988
    22  C    0.144793
    23  C   -0.018500
    24  O   -0.225483
    25  C    0.043900
    26  N   -0.226208
    27  C   -0.000427
    28  C   -0.024180
    29  C   -0.036888
    30  C    0.055356
    31  C    0.071880
    32  C   -0.001150
    33  C    0.019497
    34  N   -0.366918
    35  C    0.119726
    36  C   -0.157344
    37  C    0.001874
    38  C    0.056383
    39  C    0.111187
    40  C    0.071324
    41  O   -0.163676
    42  C   -0.008415
    43  C    0.185024
    44  O   -0.212527
    45  O   -0.336155
    46  C    0.169164
    47  C    0.311974
    48  C   -0.147570
    49  C   -0.213702
    50  C    0.075840
    51  C    0.110909
    52  C    0.012803
    53  C    0.073686
    54  C   -0.139077
    55  C    0.043168
    56  C   -0.010873
    57  C    0.026320
    58  C    0.079687
    59  C   -0.164429
    60  C    0.043925
    61  C    0.033133
    62  C    0.012985
    63  C    0.069290
    64  C   -0.172561
    65  C    0.028779
    66  C    0.049836
    67  H   -0.018350
    68  H    0.000063
    69  H   -0.026506
    70  H    0.020196
    71  H    0.001542
    72  H    0.033494
    73  H    0.008850
    74  H   -0.000383
    75  H    0.011830
    76  H    0.022176
    77  H    0.027282
    78  H    0.044721
    79  H    0.010402
    80  H    0.034931
    81  H    0.043375
    82  H    0.041065
    83  H    0.032523
    84  H    0.028743
    85  H    0.016313
    86  H    0.003058
    87  H    0.017410
    88  H    0.022437
    89  H    0.018304
    90  H    0.003281
    91  H    0.000234
    92  H    0.033695
    93  H    0.014550
    94  H    0.013828
    95  H    0.000724
    96  H    0.022134
    97  H    0.040225
    98  H    0.036446
    99  H    0.028208
   100  H    0.040643
   101  H    0.050270
   102  H    0.005200
   103  H    0.042688
   104  H   -0.011524
   105  H    0.026471
   106  H    0.026057
   107  H    0.044024
   108  H   -0.022929
   109  H    0.022372
   110  H    0.003175
   111  H    0.002394
   112  H   -0.010181
   113  H   -0.011318
   114  H   -0.000821
   115  H    0.021387
   116  H   -0.001739
   117  H   -0.003960
   118  H   -0.004400
   119  H   -0.007708
   120  H    0.001981
   121  H    0.007656
   122  H    0.004111
   123  H   -0.005377
   124  H   -0.013518
   125  H    0.016968
   126  H   -0.004011
   127  H    0.016870
   128  H   -0.004904
   129  H   -0.007960
   130  H    0.007685
   131  H    0.011372
   132  H   -0.021206
   133  H   -0.007041
   134  H   -0.005331
   135  H    0.015793
   136  H    0.013086
   137  H   -0.001166
   138  H    0.010532
   139  H    0.012356
   140  H    0.006819
 Sum of Mulliken charges =  -0.00000

 Dipole moment (field-independent basis, Debye):
    X=             -6.0469    Y=              2.4533    Z=              2.0971  Tot=              6.8544
 Quadrupole moment (field-independent basis, Debye-Ang):
   XX=           -388.1965   YY=           -430.8327   ZZ=           -412.3133
   XY=             28.0398   XZ=              5.5954   YZ=            -13.2570

 Normal termination of Gaussian 16 at Wed May  4 04:09:51 2022.
