 Gaussian 16, Revision A.03,
 Gaussian 16:  ES64L-G16RevA.03 25-Dec-2016

 ---------------------------------
 #p PBE1PBE/Def2SVP td=(nstates=5)
 ---------------------------------

 -----------------------------------------------------
 step_1351_chromophore_6 TDDFT with PBE1PBE functional
 -----------------------------------------------------
 Symbolic Z-matrix:
 Charge =  0 Multiplicity = 1

                         Standard orientation:
 ---------------------------------------------------------------------
 Center     Atomic      Atomic             Coordinates (Angstroms)
 Number     Number       Type             X           Y           Z
 ---------------------------------------------------------------------
      1         12           0        4.859903    1.202515    0.151153
      2          6           0        4.533629   -2.145493   -0.316295
      3          6           0        1.414370    1.607982   -0.106967
      4          6           0        5.271767    4.672732    0.034816
      5          6           0        8.353393    0.874456   -0.000584
      6          7           0        3.156659   -0.175525   -0.287465
      7          6           0        3.325665   -1.549902   -0.346885
      8          6           0        1.965049   -2.172417   -0.052887
      9          6           0        0.982672   -1.009600   -0.420829
     10          6           0        1.897601    0.262283   -0.402048
     11          6           0        0.361551   -0.991504   -1.810620
     12          6           0        1.730404   -2.821134    1.354311
     13          6           0        1.238724   -4.308352    1.389117
     14          6           0        0.097633   -4.653674    0.479128
     15          8           0        0.179291   -4.887859   -0.720405
     16          8           0       -1.036006   -4.810061    1.280997
     17          7           0        3.606346    2.854044    0.212688
     18          6           0        2.215086    2.778640    0.148326
     19          6           0        1.656419    4.135058    0.277345
     20          6           0        2.758772    5.000607    0.281049
     21          6           0        3.978559    4.191124    0.134035
     22          6           0        0.167571    4.319929    0.489436
     23          6           0        2.725929    6.484514    0.384817
     24          8           0        3.715713    7.187126    0.658169
     25          6           0        1.416671    7.226466    0.088097
     26          7           0        6.517077    2.566673   -0.037864
     27          6           0        6.416829    3.904462   -0.081742
     28          6           0        7.851219    4.590825   -0.306121
     29          6           0        8.664654    3.372200   -0.180527
     30          6           0        7.754687    2.153360   -0.037482
     31          6           0        8.077403    5.302329   -1.683665
     32          6           0        9.883937    3.406336    0.849141
     33          6           0        9.497923    2.786957    2.225928
     34          7           0        6.242019   -0.308535   -0.018245
     35          6           0        7.645170   -0.316503    0.018033
     36          6           0        8.113561   -1.680758    0.102796
     37          6           0        6.954849   -2.457731   -0.064878
     38          6           0        5.830320   -1.562260   -0.122902
     39          6           0        9.493493   -2.198909    0.076116
     40          6           0        6.340067   -3.833410   -0.072485
     41          8           0        6.951348   -4.893725   -0.010967
     42          6           0        4.811228   -3.656068   -0.175763
     43          6           0        4.326090   -4.491689   -1.285638
     44          8           0        4.262704   -4.162645   -2.455198
     45          8           0        3.974134   -5.741970   -0.858770
     46          6           0        3.168723   -6.535641   -1.782916
     47          6           0       -2.292416   -5.130373    0.512818
     48          6           0       -3.403861   -4.220767    0.737203
     49          6           0       -3.801635   -3.146346    0.008894
     50          6           0       -2.948464   -2.664416   -1.135392
     51          6           0       -5.043785   -2.359636    0.384678
     52          6           0       -6.345775   -3.130920    0.227646
     53          6           0       -7.148183   -3.060505    1.539057
     54          6           0       -7.919476   -1.755687    1.649760
     55          6           0       -8.061205   -1.177332    3.114480
     56          6           0       -9.439471   -1.944902    1.054339
     57          6           0      -10.210200   -0.612018    0.982010
     58          6           0      -10.943479   -0.493577   -0.360947
     59          6           0      -12.511065   -0.361684   -0.158059
     60          6           0      -13.365596   -1.156461   -1.247453
     61          6           0      -13.016336    1.143326   -0.004412
     62          6           0      -13.069070    1.886030   -1.274101
     63          6           0      -12.450394    3.319295   -1.147880
     64          6           0      -13.464424    4.397788   -0.804673
     65          6           0      -13.116622    5.005348    0.640724
     66          6           0      -13.676535    5.606061   -1.757692
     67          1           0        0.326161    1.532420   -0.060416
     68          1           0        5.385764    5.740062   -0.160521
     69          1           0        9.438958    0.771554    0.070956
     70          1           0        1.916199   -2.974408   -0.789619
     71          1           0        0.122745   -1.053921    0.246468
     72          1           0        0.812645   -1.711235   -2.493732
     73          1           0        0.561859   -0.033207   -2.290619
     74          1           0       -0.725961   -1.054288   -1.765565
     75          1           0        1.009501   -2.165029    1.840412
     76          1           0        2.610119   -2.843527    1.997314
     77          1           0        0.958836   -4.448974    2.432801
     78          1           0        2.010993   -5.050573    1.189211
     79          1           0        0.014294    5.228048    1.071395
     80          1           0       -0.142004    3.488576    1.123759
     81          1           0       -0.273167    4.376822   -0.505950
     82          1           0        0.731176    7.132001    0.929583
     83          1           0        1.013857    6.795535   -0.828425
     84          1           0        1.608538    8.292359   -0.032506
     85          1           0        7.916986    5.343300    0.480087
     86          1           0        9.202600    3.171683   -1.107520
     87          1           0        8.864225    4.816762   -2.260610
     88          1           0        8.304932    6.352980   -1.501578
     89          1           0        7.151483    5.213508   -2.252012
     90          1           0       10.209662    4.445022    0.896606
     91          1           0       10.723723    2.871741    0.405417
     92          1           0        8.412222    2.709730    2.281476
     93          1           0        9.890683    3.397721    3.039489
     94          1           0        9.968637    1.806729    2.293764
     95          1           0       10.163974   -1.643108    0.732072
     96          1           0        9.940758   -1.964866   -0.889884
     97          1           0        9.679018   -3.259813    0.243182
     98          1           0        4.291980   -3.957241    0.734182
     99          1           0        2.241468   -6.718530   -1.240881
    100          1           0        3.631204   -7.482665   -2.058772
    101          1           0        2.926857   -5.923277   -2.651212
    102          1           0       -2.610926   -6.034224    1.033839
    103          1           0       -2.189973   -5.305119   -0.557793
    104          1           0       -4.019221   -4.535198    1.580114
    105          1           0       -1.918964   -2.945946   -0.915229
    106          1           0       -2.855922   -1.579365   -1.179416
    107          1           0       -3.382698   -3.119910   -2.025696
    108          1           0       -5.068364   -1.533760   -0.327589
    109          1           0       -4.968169   -1.860550    1.350656
    110          1           0       -6.046946   -4.146397   -0.034610
    111          1           0       -6.994815   -2.734392   -0.552780
    112          1           0       -6.504882   -3.210546    2.405390
    113          1           0       -7.760815   -3.961542    1.503668
    114          1           0       -7.408157   -0.964176    1.102557
    115          1           0       -7.724849   -0.147767    3.229987
    116          1           0       -7.644165   -1.817052    3.891542
    117          1           0       -9.091486   -1.282838    3.454128
    118          1           0       -9.960626   -2.621687    1.731226
    119          1           0       -9.459111   -2.453059    0.090422
    120          1           0       -9.485384    0.188878    1.129990
    121          1           0      -10.871997   -0.737878    1.838424
    122          1           0      -10.810456   -1.370240   -0.995796
    123          1           0      -10.618480    0.488496   -0.702235
    124          1           0      -12.654473   -0.927475    0.762214
    125          1           0      -13.509203   -2.217314   -1.041331
    126          1           0      -12.656490   -1.168501   -2.075220
    127          1           0      -14.228838   -0.556626   -1.536397
    128          1           0      -12.500039    1.685483    0.788027
    129          1           0      -14.044539    1.007516    0.332715
    130          1           0      -14.147337    1.965136   -1.413770
    131          1           0      -12.485085    1.360382   -2.028351
    132          1           0      -12.007424    3.653912   -2.086396
    133          1           0      -11.639461    3.241698   -0.423565
    134          1           0      -14.453170    3.940054   -0.777556
    135          1           0      -12.679473    6.000411    0.556690
    136          1           0      -12.603959    4.250825    1.237167
    137          1           0      -14.101935    5.145646    1.085366
    138          1           0      -13.632107    5.255524   -2.787986
    139          1           0      -12.981935    6.392581   -1.464566
    140          1           0      -14.691815    5.968803   -1.597980
 ---------------------------------------------------------------------

 SCF Done:  E(RPBE1PBE) =  -3005.34529807     A.U. after   16 cycles

 Excitation energies and oscillator strengths:

 Excited State   1:      Singlet-A      1.8463 eV  671.53 nm  f=0.3510  <S**2>=0.000
     245 -> 248       -0.17276
     246 -> 247        0.69238
     246 <- 247       -0.10806
 This state for optimization and/or second-order correction.
 Total Energy, E(TD-HF/TD-DFT) =  -3005.27744822
 Copying the excited state density for this state as the 1-particle RhoCI density.

 Excited State   2:      Singlet-A      2.3158 eV  535.38 nm  f=0.0492  <S**2>=0.000
     245 -> 247        0.60876
     246 -> 248        0.34840

 Excited State   3:      Singlet-A      3.0787 eV  402.72 nm  f=0.0063  <S**2>=0.000
     242 -> 247        0.26365
     243 -> 247       -0.35606
     243 -> 249        0.16230
     244 -> 247        0.49028

 Excited State   4:      Singlet-A      3.1034 eV  399.51 nm  f=0.0193  <S**2>=0.000
     242 -> 247        0.34893
     242 -> 249        0.12921
     243 -> 247        0.49303
     244 -> 247        0.23200
     246 -> 248       -0.15590

 Excited State   5:      Singlet-A      3.1909 eV  388.56 nm  f=0.0814  <S**2>=0.000
     242 -> 247        0.46503
     244 -> 247       -0.38421
     245 -> 247       -0.13347
     246 -> 248        0.29734

 The electronic state is 1-A.
 Alpha  occ. eigenvalues --  -46.91779 -19.26127 -19.24462 -19.21469 -19.19170
 Alpha  occ. eigenvalues --  -19.19119 -19.19039 -14.41350 -14.41334 -14.39716
 Alpha  occ. eigenvalues --  -14.38708 -10.37159 -10.35486 -10.32545 -10.32247
 Alpha  occ. eigenvalues --  -10.29424 -10.28956 -10.28724 -10.28233 -10.28155
 Alpha  occ. eigenvalues --  -10.28062 -10.28023 -10.27278 -10.27145 -10.26501
 Alpha  occ. eigenvalues --  -10.26401 -10.26156 -10.26086 -10.25872 -10.25827
 Alpha  occ. eigenvalues --  -10.25686 -10.25651 -10.25556 -10.25511 -10.25418
 Alpha  occ. eigenvalues --  -10.24931 -10.24861 -10.24856 -10.24697 -10.24442
 Alpha  occ. eigenvalues --  -10.23845 -10.23802 -10.23796 -10.23763 -10.23525
 Alpha  occ. eigenvalues --  -10.23492 -10.23430 -10.23360 -10.23173 -10.23154
 Alpha  occ. eigenvalues --  -10.23062 -10.23042 -10.23030 -10.23018 -10.22815
 Alpha  occ. eigenvalues --  -10.22707 -10.22676 -10.22481 -10.22465 -10.22373
 Alpha  occ. eigenvalues --  -10.22318 -10.22200 -10.22145 -10.22140 -10.22126
 Alpha  occ. eigenvalues --  -10.22068  -3.13913  -1.86762  -1.86267  -1.86156
 Alpha  occ. eigenvalues --   -1.10524  -1.10480  -1.04221  -1.03598  -1.03059
 Alpha  occ. eigenvalues --   -1.01709  -1.00005  -0.98434  -0.97630  -0.96624
 Alpha  occ. eigenvalues --   -0.86829  -0.85641  -0.84165  -0.83687  -0.83293
 Alpha  occ. eigenvalues --   -0.83045  -0.82763  -0.81703  -0.81565  -0.81477
 Alpha  occ. eigenvalues --   -0.80943  -0.80105  -0.79232  -0.78322  -0.77481
 Alpha  occ. eigenvalues --   -0.77091  -0.76144  -0.75764  -0.74997  -0.74664
 Alpha  occ. eigenvalues --   -0.74227  -0.72916  -0.72610  -0.71050  -0.70554
 Alpha  occ. eigenvalues --   -0.70279  -0.69460  -0.69247  -0.68823  -0.68524
 Alpha  occ. eigenvalues --   -0.67874  -0.67299  -0.65881  -0.65063  -0.63779
 Alpha  occ. eigenvalues --   -0.63043  -0.62718  -0.61763  -0.61699  -0.60080
 Alpha  occ. eigenvalues --   -0.59916  -0.59838  -0.59408  -0.58538  -0.58369
 Alpha  occ. eigenvalues --   -0.57633  -0.57287  -0.55740  -0.55476  -0.54819
 Alpha  occ. eigenvalues --   -0.54622  -0.54405  -0.54016  -0.53187  -0.52743
 Alpha  occ. eigenvalues --   -0.51703  -0.51538  -0.50923  -0.50792  -0.50578
 Alpha  occ. eigenvalues --   -0.49739  -0.49536  -0.49476  -0.48989  -0.48606
 Alpha  occ. eigenvalues --   -0.48424  -0.48289  -0.48127  -0.47504  -0.47484
 Alpha  occ. eigenvalues --   -0.47206  -0.46939  -0.46883  -0.46762  -0.46593
 Alpha  occ. eigenvalues --   -0.46295  -0.46118  -0.45685  -0.45406  -0.45210
 Alpha  occ. eigenvalues --   -0.45040  -0.44980  -0.44877  -0.44627  -0.44449
 Alpha  occ. eigenvalues --   -0.44136  -0.43901  -0.43721  -0.43695  -0.43590
 Alpha  occ. eigenvalues --   -0.43494  -0.43189  -0.42909  -0.42846  -0.42439
 Alpha  occ. eigenvalues --   -0.42393  -0.42137  -0.41689  -0.41586  -0.41432
 Alpha  occ. eigenvalues --   -0.41377  -0.41222  -0.40754  -0.40536  -0.40276
 Alpha  occ. eigenvalues --   -0.40242  -0.40052  -0.39897  -0.39799  -0.39746
 Alpha  occ. eigenvalues --   -0.39429  -0.39348  -0.39244  -0.38954  -0.38825
 Alpha  occ. eigenvalues --   -0.38655  -0.38504  -0.38366  -0.38165  -0.38090
 Alpha  occ. eigenvalues --   -0.37902  -0.37701  -0.37545  -0.37110  -0.36843
 Alpha  occ. eigenvalues --   -0.36608  -0.36351  -0.36101  -0.35970  -0.35858
 Alpha  occ. eigenvalues --   -0.35831  -0.35489  -0.35300  -0.35176  -0.35070
 Alpha  occ. eigenvalues --   -0.34989  -0.34789  -0.34622  -0.33808  -0.33648
 Alpha  occ. eigenvalues --   -0.33303  -0.33158  -0.32731  -0.32668  -0.32619
 Alpha  occ. eigenvalues --   -0.31808  -0.31512  -0.31414  -0.31181  -0.30798
 Alpha  occ. eigenvalues --   -0.30577  -0.30297  -0.29935  -0.29852  -0.29074
 Alpha  occ. eigenvalues --   -0.29062  -0.28896  -0.28373  -0.27019  -0.26160
 Alpha  occ. eigenvalues --   -0.26057  -0.25633  -0.25567  -0.25226  -0.21391
 Alpha  occ. eigenvalues --   -0.18367
 Alpha virt. eigenvalues --   -0.10814  -0.05644  -0.03986  -0.02176  -0.01479
 Alpha virt. eigenvalues --   -0.00641   0.00121   0.01139   0.01536   0.03141
 Alpha virt. eigenvalues --    0.03709   0.04644   0.05155   0.05436   0.05537

 Mulliken charges:
               1
     1  Mg   0.971492
     2  C    0.056112
     3  C   -0.069144
     4  C   -0.040710
     5  C   -0.082838
     6  N   -0.399479
     7  C    0.012321
     8  C   -0.055596
     9  C   -0.211350
    10  C    0.082113
    11  C    0.028476
    12  C    0.014657
    13  C   -0.023911
    14  C    0.249455
    15  O   -0.273172
    16  O   -0.386596
    17  N   -0.509784
    18  C    0.196286
    19  C   -0.201911
    20  C   -0.059392
    21  C    0.173257
    22  C    0.076350
    23  C    0.034987
    24  O   -0.261885
    25  C   -0.031164
    26  N   -0.344157
    27  C    0.032931
    28  C   -0.098401
    29  C   -0.106043
    30  C    0.089432
    31  C    0.014933
    32  C   -0.062838
    33  C   -0.057604
    34  N   -0.496018
    35  C    0.137328
    36  C   -0.180002
    37  C   -0.037015
    38  C    0.111772
    39  C    0.057620
    40  C    0.165475
    41  O   -0.208404
    42  C   -0.122884
    43  C    0.276870
    44  O   -0.248054
    45  O   -0.369430
    46  C    0.115464
    47  C    0.258926
    48  C   -0.149797
    49  C   -0.254886
    50  C    0.000075
    51  C    0.055085
    52  C   -0.053793
    53  C    0.016073
    54  C   -0.225230
    55  C   -0.013673
    56  C   -0.060341
    57  C   -0.034350
    58  C    0.018806
    59  C   -0.242984
    60  C   -0.020119
    61  C   -0.021546
    62  C   -0.056412
    63  C    0.012433
    64  C   -0.254259
    65  C   -0.035859
    66  C   -0.014338
    67  H    0.012955
    68  H    0.029933
    69  H    0.004690
    70  H    0.064777
    71  H    0.036363
    72  H    0.059576
    73  H    0.038259
    74  H    0.031862
    75  H    0.044798
    76  H    0.053967
    77  H    0.059976
    78  H    0.077009
    79  H    0.039726
    80  H    0.061151
    81  H    0.070742
    82  H    0.066664
    83  H    0.059679
    84  H    0.055815
    85  H    0.052471
    86  H    0.043092
    87  H    0.043621
    88  H    0.049390
    89  H    0.046778
    90  H    0.036990
    91  H    0.031973
    92  H    0.065644
    93  H    0.043935
    94  H    0.041472
    95  H    0.029250
    96  H    0.051499
    97  H    0.067082
    98  H    0.077071
    99  H    0.051923
   100  H    0.062378
   101  H    0.070677
   102  H    0.033792
   103  H    0.068807
   104  H    0.018829
   105  H    0.061220
   106  H    0.052607
   107  H    0.072008
   108  H    0.010979
   109  H    0.053962
   110  H    0.036681
   111  H    0.035818
   112  H    0.022127
   113  H    0.021600
   114  H    0.037032
   115  H    0.047743
   116  H    0.025440
   117  H    0.023785
   118  H    0.028812
   119  H    0.023469
   120  H    0.034304
   121  H    0.037987
   122  H    0.035455
   123  H    0.030326
   124  H    0.026289
   125  H    0.044851
   126  H    0.023668
   127  H    0.045123
   128  H    0.027529
   129  H    0.026364
   130  H    0.039325
   131  H    0.043780
   132  H    0.012793
   133  H    0.024750
   134  H    0.031979
   135  H    0.042520
   136  H    0.040855
   137  H    0.027839
   138  H    0.038388
   139  H    0.039277
   140  H    0.035333
 Sum of Mulliken charges =  -0.00000

 Dipole moment (field-independent basis, Debye):
    X=             -5.7326    Y=              2.1622    Z=              2.1051  Tot=              6.4784
 Quadrupole moment (field-independent basis, Debye-Ang):
   XX=           -379.2095   YY=           -428.8320   ZZ=           -409.8632
   XY=             27.9998   XZ=              5.4361   YZ=            -13.5518

 Normal termination of Gaussian 16 at Wed May  4 04:31:17 2022.
