 Gaussian 16, Revision A.03,
 Gaussian 16:  ES64L-G16RevA.03 25-Dec-2016

 --------------------------------
 #p wB97XD/Def2SVP td=(nstates=5)
 --------------------------------

 ----------------------------------------------------
 step_1351_chromophore_6 TDDFT with wB97XD functional
 ----------------------------------------------------
 Symbolic Z-matrix:
 Charge =  0 Multiplicity = 1

                         Standard orientation:
 ---------------------------------------------------------------------
 Center     Atomic      Atomic             Coordinates (Angstroms)
 Number     Number       Type             X           Y           Z
 ---------------------------------------------------------------------
      1         12           0        4.859903    1.202515    0.151153
      2          6           0        4.533629   -2.145493   -0.316295
      3          6           0        1.414370    1.607982   -0.106967
      4          6           0        5.271767    4.672732    0.034816
      5          6           0        8.353393    0.874456   -0.000584
      6          7           0        3.156659   -0.175525   -0.287465
      7          6           0        3.325665   -1.549902   -0.346885
      8          6           0        1.965049   -2.172417   -0.052887
      9          6           0        0.982672   -1.009600   -0.420829
     10          6           0        1.897601    0.262283   -0.402048
     11          6           0        0.361551   -0.991504   -1.810620
     12          6           0        1.730404   -2.821134    1.354311
     13          6           0        1.238724   -4.308352    1.389117
     14          6           0        0.097633   -4.653674    0.479128
     15          8           0        0.179291   -4.887859   -0.720405
     16          8           0       -1.036006   -4.810061    1.280997
     17          7           0        3.606346    2.854044    0.212688
     18          6           0        2.215086    2.778640    0.148326
     19          6           0        1.656419    4.135058    0.277345
     20          6           0        2.758772    5.000607    0.281049
     21          6           0        3.978559    4.191124    0.134035
     22          6           0        0.167571    4.319929    0.489436
     23          6           0        2.725929    6.484514    0.384817
     24          8           0        3.715713    7.187126    0.658169
     25          6           0        1.416671    7.226466    0.088097
     26          7           0        6.517077    2.566673   -0.037864
     27          6           0        6.416829    3.904462   -0.081742
     28          6           0        7.851219    4.590825   -0.306121
     29          6           0        8.664654    3.372200   -0.180527
     30          6           0        7.754687    2.153360   -0.037482
     31          6           0        8.077403    5.302329   -1.683665
     32          6           0        9.883937    3.406336    0.849141
     33          6           0        9.497923    2.786957    2.225928
     34          7           0        6.242019   -0.308535   -0.018245
     35          6           0        7.645170   -0.316503    0.018033
     36          6           0        8.113561   -1.680758    0.102796
     37          6           0        6.954849   -2.457731   -0.064878
     38          6           0        5.830320   -1.562260   -0.122902
     39          6           0        9.493493   -2.198909    0.076116
     40          6           0        6.340067   -3.833410   -0.072485
     41          8           0        6.951348   -4.893725   -0.010967
     42          6           0        4.811228   -3.656068   -0.175763
     43          6           0        4.326090   -4.491689   -1.285638
     44          8           0        4.262704   -4.162645   -2.455198
     45          8           0        3.974134   -5.741970   -0.858770
     46          6           0        3.168723   -6.535641   -1.782916
     47          6           0       -2.292416   -5.130373    0.512818
     48          6           0       -3.403861   -4.220767    0.737203
     49          6           0       -3.801635   -3.146346    0.008894
     50          6           0       -2.948464   -2.664416   -1.135392
     51          6           0       -5.043785   -2.359636    0.384678
     52          6           0       -6.345775   -3.130920    0.227646
     53          6           0       -7.148183   -3.060505    1.539057
     54          6           0       -7.919476   -1.755687    1.649760
     55          6           0       -8.061205   -1.177332    3.114480
     56          6           0       -9.439471   -1.944902    1.054339
     57          6           0      -10.210200   -0.612018    0.982010
     58          6           0      -10.943479   -0.493577   -0.360947
     59          6           0      -12.511065   -0.361684   -0.158059
     60          6           0      -13.365596   -1.156461   -1.247453
     61          6           0      -13.016336    1.143326   -0.004412
     62          6           0      -13.069070    1.886030   -1.274101
     63          6           0      -12.450394    3.319295   -1.147880
     64          6           0      -13.464424    4.397788   -0.804673
     65          6           0      -13.116622    5.005348    0.640724
     66          6           0      -13.676535    5.606061   -1.757692
     67          1           0        0.326161    1.532420   -0.060416
     68          1           0        5.385764    5.740062   -0.160521
     69          1           0        9.438958    0.771554    0.070956
     70          1           0        1.916199   -2.974408   -0.789619
     71          1           0        0.122745   -1.053921    0.246468
     72          1           0        0.812645   -1.711235   -2.493732
     73          1           0        0.561859   -0.033207   -2.290619
     74          1           0       -0.725961   -1.054288   -1.765565
     75          1           0        1.009501   -2.165029    1.840412
     76          1           0        2.610119   -2.843527    1.997314
     77          1           0        0.958836   -4.448974    2.432801
     78          1           0        2.010993   -5.050573    1.189211
     79          1           0        0.014294    5.228048    1.071395
     80          1           0       -0.142004    3.488576    1.123759
     81          1           0       -0.273167    4.376822   -0.505950
     82          1           0        0.731176    7.132001    0.929583
     83          1           0        1.013857    6.795535   -0.828425
     84          1           0        1.608538    8.292359   -0.032506
     85          1           0        7.916986    5.343300    0.480087
     86          1           0        9.202600    3.171683   -1.107520
     87          1           0        8.864225    4.816762   -2.260610
     88          1           0        8.304932    6.352980   -1.501578
     89          1           0        7.151483    5.213508   -2.252012
     90          1           0       10.209662    4.445022    0.896606
     91          1           0       10.723723    2.871741    0.405417
     92          1           0        8.412222    2.709730    2.281476
     93          1           0        9.890683    3.397721    3.039489
     94          1           0        9.968637    1.806729    2.293764
     95          1           0       10.163974   -1.643108    0.732072
     96          1           0        9.940758   -1.964866   -0.889884
     97          1           0        9.679018   -3.259813    0.243182
     98          1           0        4.291980   -3.957241    0.734182
     99          1           0        2.241468   -6.718530   -1.240881
    100          1           0        3.631204   -7.482665   -2.058772
    101          1           0        2.926857   -5.923277   -2.651212
    102          1           0       -2.610926   -6.034224    1.033839
    103          1           0       -2.189973   -5.305119   -0.557793
    104          1           0       -4.019221   -4.535198    1.580114
    105          1           0       -1.918964   -2.945946   -0.915229
    106          1           0       -2.855922   -1.579365   -1.179416
    107          1           0       -3.382698   -3.119910   -2.025696
    108          1           0       -5.068364   -1.533760   -0.327589
    109          1           0       -4.968169   -1.860550    1.350656
    110          1           0       -6.046946   -4.146397   -0.034610
    111          1           0       -6.994815   -2.734392   -0.552780
    112          1           0       -6.504882   -3.210546    2.405390
    113          1           0       -7.760815   -3.961542    1.503668
    114          1           0       -7.408157   -0.964176    1.102557
    115          1           0       -7.724849   -0.147767    3.229987
    116          1           0       -7.644165   -1.817052    3.891542
    117          1           0       -9.091486   -1.282838    3.454128
    118          1           0       -9.960626   -2.621687    1.731226
    119          1           0       -9.459111   -2.453059    0.090422
    120          1           0       -9.485384    0.188878    1.129990
    121          1           0      -10.871997   -0.737878    1.838424
    122          1           0      -10.810456   -1.370240   -0.995796
    123          1           0      -10.618480    0.488496   -0.702235
    124          1           0      -12.654473   -0.927475    0.762214
    125          1           0      -13.509203   -2.217314   -1.041331
    126          1           0      -12.656490   -1.168501   -2.075220
    127          1           0      -14.228838   -0.556626   -1.536397
    128          1           0      -12.500039    1.685483    0.788027
    129          1           0      -14.044539    1.007516    0.332715
    130          1           0      -14.147337    1.965136   -1.413770
    131          1           0      -12.485085    1.360382   -2.028351
    132          1           0      -12.007424    3.653912   -2.086396
    133          1           0      -11.639461    3.241698   -0.423565
    134          1           0      -14.453170    3.940054   -0.777556
    135          1           0      -12.679473    6.000411    0.556690
    136          1           0      -12.603959    4.250825    1.237167
    137          1           0      -14.101935    5.145646    1.085366
    138          1           0      -13.632107    5.255524   -2.787986
    139          1           0      -12.981935    6.392581   -1.464566
    140          1           0      -14.691815    5.968803   -1.597980
 ---------------------------------------------------------------------

 SCF Done:  E(RwB97XD) =  -3007.85833779     A.U. after   19 cycles

 Excitation energies and oscillator strengths:

 Excited State   1:      Singlet-A      1.6565 eV  748.47 nm  f=0.3658  <S**2>=0.000
     245 -> 248       -0.18496
     246 -> 247        0.68321
     245 <- 248       -0.11560
 This state for optimization and/or second-order correction.
 Total Energy, E(TD-HF/TD-DFT) =  -3007.79746256
 Copying the excited state density for this state as the 1-particle RhoCI density.

 Excited State   2:      Singlet-A      2.2642 eV  547.58 nm  f=0.0425  <S**2>=0.000
     245 -> 247        0.58878
     246 -> 248        0.37957

 Excited State   3:      Singlet-A      3.3864 eV  366.13 nm  f=0.6656  <S**2>=0.000
     242 -> 247       -0.22857
     243 -> 247        0.10329
     245 -> 247       -0.33281
     246 -> 248        0.55520
     245 <- 247        0.10713

 Excited State   4:      Singlet-A      3.5456 eV  349.68 nm  f=0.0294  <S**2>=0.000
     240 -> 247       -0.18429
     240 -> 249        0.19832
     240 -> 250        0.11346
     242 -> 247       -0.23461
     242 -> 249        0.16082
     243 -> 247        0.17543
     244 -> 247        0.47341
     246 -> 248       -0.11298

 Excited State   5:      Singlet-A      3.5898 eV  345.38 nm  f=0.0028  <S**2>=0.000
     240 -> 247        0.43491
     240 -> 248       -0.10726
     240 -> 249       -0.24930
     240 -> 250       -0.10751
     242 -> 250       -0.11353
     244 -> 247        0.37654

 The electronic state is 1-A.
 Alpha  occ. eigenvalues --  -46.94733 -19.30663 -19.28981 -19.26131 -19.24041
 Alpha  occ. eigenvalues --  -19.23841 -19.23769 -14.46424 -14.46416 -14.44767
 Alpha  occ. eigenvalues --  -14.43529 -10.43953 -10.42279 -10.39264 -10.39260
 Alpha  occ. eigenvalues --  -10.35936 -10.35482 -10.35411 -10.34661 -10.34652
 Alpha  occ. eigenvalues --  -10.34335 -10.34028 -10.33736 -10.33171 -10.33124
 Alpha  occ. eigenvalues --  -10.32566 -10.32488 -10.32433 -10.32325 -10.32137
 Alpha  occ. eigenvalues --  -10.32035 -10.31894 -10.31810 -10.31773 -10.31722
 Alpha  occ. eigenvalues --  -10.31655 -10.31525 -10.31095 -10.30981 -10.30748
 Alpha  occ. eigenvalues --  -10.30289 -10.30175 -10.30061 -10.30048 -10.30005
 Alpha  occ. eigenvalues --  -10.29893 -10.29850 -10.29641 -10.29526 -10.29441
 Alpha  occ. eigenvalues --  -10.29432 -10.29414 -10.29384 -10.29262 -10.29077
 Alpha  occ. eigenvalues --  -10.29075 -10.29049 -10.28911 -10.28787 -10.28758
 Alpha  occ. eigenvalues --  -10.28753 -10.28585 -10.28583 -10.28530 -10.28497
 Alpha  occ. eigenvalues --  -10.28493  -3.20717  -1.94317  -1.93821  -1.93710
 Alpha  occ. eigenvalues --   -1.17883  -1.17852  -1.11569  -1.11282  -1.10398
 Alpha  occ. eigenvalues --   -1.09026  -1.07318  -1.05776  -1.04908  -1.04183
 Alpha  occ. eigenvalues --   -0.94367  -0.93323  -0.91851  -0.91330  -0.90932
 Alpha  occ. eigenvalues --   -0.90722  -0.90358  -0.89488  -0.89218  -0.89071
 Alpha  occ. eigenvalues --   -0.88463  -0.87750  -0.86896  -0.85921  -0.85107
 Alpha  occ. eigenvalues --   -0.84716  -0.83904  -0.83463  -0.82549  -0.82442
 Alpha  occ. eigenvalues --   -0.81910  -0.80676  -0.80240  -0.78594  -0.78248
 Alpha  occ. eigenvalues --   -0.77821  -0.77029  -0.76946  -0.76530  -0.76211
 Alpha  occ. eigenvalues --   -0.75460  -0.74837  -0.73416  -0.72684  -0.71312
 Alpha  occ. eigenvalues --   -0.70708  -0.70304  -0.69445  -0.69271  -0.67566
 Alpha  occ. eigenvalues --   -0.67533  -0.67371  -0.66855  -0.66008  -0.65905
 Alpha  occ. eigenvalues --   -0.65150  -0.64955  -0.63116  -0.63084  -0.62350
 Alpha  occ. eigenvalues --   -0.61989  -0.61956  -0.61479  -0.60456  -0.60242
 Alpha  occ. eigenvalues --   -0.59141  -0.59028  -0.58255  -0.58188  -0.57945
 Alpha  occ. eigenvalues --   -0.57192  -0.57007  -0.56875  -0.56430  -0.56032
 Alpha  occ. eigenvalues --   -0.55887  -0.55596  -0.55537  -0.55237  -0.54845
 Alpha  occ. eigenvalues --   -0.54537  -0.54438  -0.54300  -0.54112  -0.53897
 Alpha  occ. eigenvalues --   -0.53693  -0.53455  -0.53094  -0.52772  -0.52531
 Alpha  occ. eigenvalues --   -0.52484  -0.52312  -0.52138  -0.51967  -0.51728
 Alpha  occ. eigenvalues --   -0.51474  -0.51246  -0.51016  -0.50993  -0.50855
 Alpha  occ. eigenvalues --   -0.50772  -0.50505  -0.50245  -0.50189  -0.49860
 Alpha  occ. eigenvalues --   -0.49688  -0.49357  -0.49086  -0.48795  -0.48667
 Alpha  occ. eigenvalues --   -0.48601  -0.48454  -0.47951  -0.47765  -0.47454
 Alpha  occ. eigenvalues --   -0.47341  -0.47180  -0.47132  -0.46948  -0.46896
 Alpha  occ. eigenvalues --   -0.46582  -0.46490  -0.46428  -0.46070  -0.45974
 Alpha  occ. eigenvalues --   -0.45922  -0.45724  -0.45590  -0.45241  -0.45119
 Alpha  occ. eigenvalues --   -0.45053  -0.44756  -0.44595  -0.44251  -0.44041
 Alpha  occ. eigenvalues --   -0.43790  -0.43490  -0.43227  -0.43068  -0.42994
 Alpha  occ. eigenvalues --   -0.42903  -0.42610  -0.42352  -0.42183  -0.42119
 Alpha  occ. eigenvalues --   -0.42050  -0.41804  -0.41623  -0.40855  -0.40651
 Alpha  occ. eigenvalues --   -0.40329  -0.40067  -0.39776  -0.39663  -0.39573
 Alpha  occ. eigenvalues --   -0.38827  -0.38522  -0.38370  -0.38165  -0.37787
 Alpha  occ. eigenvalues --   -0.37532  -0.37298  -0.36922  -0.36840  -0.35931
 Alpha  occ. eigenvalues --   -0.35890  -0.35689  -0.35319  -0.33663  -0.33036
 Alpha  occ. eigenvalues --   -0.32868  -0.32649  -0.32532  -0.31639  -0.26492
 Alpha  occ. eigenvalues --   -0.22460
 Alpha virt. eigenvalues --   -0.06605  -0.00283   0.02259   0.04324   0.05178
 Alpha virt. eigenvalues --    0.05853   0.06353   0.07852   0.08354   0.09460
 Alpha virt. eigenvalues --    0.10208   0.11453   0.11929   0.12183   0.12320

 Mulliken charges:
               1
     1  Mg   0.962523
     2  C    0.060009
     3  C   -0.094223
     4  C   -0.062110
     5  C   -0.105701
     6  N   -0.365523
     7  C   -0.028034
     8  C   -0.025087
     9  C   -0.181806
    10  C    0.073241
    11  C    0.040824
    12  C    0.021691
    13  C   -0.002092
    14  C    0.234118
    15  O   -0.267995
    16  O   -0.386818
    17  N   -0.481291
    18  C    0.195992
    19  C   -0.193501
    20  C   -0.051179
    21  C    0.170190
    22  C    0.092549
    23  C    0.027806
    24  O   -0.255260
    25  C   -0.017865
    26  N   -0.302632
    27  C    0.019810
    28  C   -0.077803
    29  C   -0.080614
    30  C    0.079154
    31  C    0.025688
    32  C   -0.049597
    33  C   -0.035434
    34  N   -0.457648
    35  C    0.127286
    36  C   -0.173434
    37  C   -0.036446
    38  C    0.092261
    39  C    0.066592
    40  C    0.145535
    41  O   -0.199753
    42  C   -0.077282
    43  C    0.251915
    44  O   -0.242772
    45  O   -0.367365
    46  C    0.132500
    47  C    0.276640
    48  C   -0.165341
    49  C   -0.236867
    50  C    0.026869
    51  C    0.064514
    52  C   -0.032877
    53  C    0.032333
    54  C   -0.197242
    55  C   -0.003270
    56  C   -0.042047
    57  C   -0.018967
    58  C    0.036109
    59  C   -0.213366
    60  C   -0.006019
    61  C   -0.005841
    62  C   -0.037012
    63  C    0.029316
    64  C   -0.231116
    65  C   -0.018732
    66  C    0.000284
    67  H    0.008027
    68  H    0.026752
    69  H   -0.001776
    70  H    0.043399
    71  H    0.026756
    72  H    0.056410
    73  H    0.030822
    74  H    0.019467
    75  H    0.036928
    76  H    0.047263
    77  H    0.055512
    78  H    0.068994
    79  H    0.033150
    80  H    0.056926
    81  H    0.067824
    82  H    0.062218
    83  H    0.054010
    84  H    0.055301
    85  H    0.043607
    86  H    0.028877
    87  H    0.038584
    88  H    0.044611
    89  H    0.039740
    90  H    0.028553
    91  H    0.024697
    92  H    0.053422
    93  H    0.038582
    94  H    0.034599
    95  H    0.022290
    96  H    0.044893
    97  H    0.064479
    98  H    0.063582
    99  H    0.045944
   100  H    0.058862
   101  H    0.066956
   102  H    0.030323
   103  H    0.063769
   104  H    0.015109
   105  H    0.043196
   106  H    0.046044
   107  H    0.067281
   108  H    0.002801
   109  H    0.045718
   110  H    0.027196
   111  H    0.026712
   112  H    0.011703
   113  H    0.014376
   114  H    0.023387
   115  H    0.043477
   116  H    0.020079
   117  H    0.015641
   118  H    0.018940
   119  H    0.012165
   120  H    0.025576
   121  H    0.027587
   122  H    0.025210
   123  H    0.019450
   124  H    0.012601
   125  H    0.040855
   126  H    0.014855
   127  H    0.038537
   128  H    0.015963
   129  H    0.017474
   130  H    0.029618
   131  H    0.033943
   132  H    0.005160
   133  H    0.013536
   134  H    0.019369
   135  H    0.036058
   136  H    0.033148
   137  H    0.021251
   138  H    0.032550
   139  H    0.031953
   140  H    0.029342
 Sum of Mulliken charges =  -0.00000

 Dipole moment (field-independent basis, Debye):
    X=             -6.2132    Y=              2.5873    Z=              2.1379  Tot=              7.0617
 Quadrupole moment (field-independent basis, Debye-Ang):
   XX=           -383.8686   YY=           -426.2116   ZZ=           -409.5981
   XY=             28.4057   XZ=              5.6895   YZ=            -13.4910

 Normal termination of Gaussian 16 at Wed May  4 05:02:52 2022.
