 Gaussian 16, Revision A.03,
 Gaussian 16:  ES64L-G16RevA.03 25-Dec-2016

 --------------------
 #p ZINDO=(nstates=5)
 --------------------

 -----------------------------
 step_1351_chromophore_6 ZINDO
 -----------------------------
 Symbolic Z-matrix:
 Charge =  0 Multiplicity = 1

                         Standard orientation:
 ---------------------------------------------------------------------
 Center     Atomic      Atomic             Coordinates (Angstroms)
 Number     Number       Type             X           Y           Z
 ---------------------------------------------------------------------
      1         12           0        4.859903    1.202515    0.151153
      2          6           0        4.533629   -2.145493   -0.316295
      3          6           0        1.414370    1.607982   -0.106967
      4          6           0        5.271767    4.672732    0.034816
      5          6           0        8.353393    0.874456   -0.000584
      6          7           0        3.156659   -0.175525   -0.287465
      7          6           0        3.325665   -1.549902   -0.346885
      8          6           0        1.965049   -2.172417   -0.052887
      9          6           0        0.982672   -1.009600   -0.420829
     10          6           0        1.897601    0.262283   -0.402048
     11          6           0        0.361551   -0.991504   -1.810620
     12          6           0        1.730404   -2.821134    1.354311
     13          6           0        1.238724   -4.308352    1.389117
     14          6           0        0.097633   -4.653674    0.479128
     15          8           0        0.179291   -4.887859   -0.720405
     16          8           0       -1.036006   -4.810061    1.280997
     17          7           0        3.606346    2.854044    0.212688
     18          6           0        2.215086    2.778640    0.148326
     19          6           0        1.656419    4.135058    0.277345
     20          6           0        2.758772    5.000607    0.281049
     21          6           0        3.978559    4.191124    0.134035
     22          6           0        0.167571    4.319929    0.489436
     23          6           0        2.725929    6.484514    0.384817
     24          8           0        3.715713    7.187126    0.658169
     25          6           0        1.416671    7.226466    0.088097
     26          7           0        6.517077    2.566673   -0.037864
     27          6           0        6.416829    3.904462   -0.081742
     28          6           0        7.851219    4.590825   -0.306121
     29          6           0        8.664654    3.372200   -0.180527
     30          6           0        7.754687    2.153360   -0.037482
     31          6           0        8.077403    5.302329   -1.683665
     32          6           0        9.883937    3.406336    0.849141
     33          6           0        9.497923    2.786957    2.225928
     34          7           0        6.242019   -0.308535   -0.018245
     35          6           0        7.645170   -0.316503    0.018033
     36          6           0        8.113561   -1.680758    0.102796
     37          6           0        6.954849   -2.457731   -0.064878
     38          6           0        5.830320   -1.562260   -0.122902
     39          6           0        9.493493   -2.198909    0.076116
     40          6           0        6.340067   -3.833410   -0.072485
     41          8           0        6.951348   -4.893725   -0.010967
     42          6           0        4.811228   -3.656068   -0.175763
     43          6           0        4.326090   -4.491689   -1.285638
     44          8           0        4.262704   -4.162645   -2.455198
     45          8           0        3.974134   -5.741970   -0.858770
     46          6           0        3.168723   -6.535641   -1.782916
     47          6           0       -2.292416   -5.130373    0.512818
     48          6           0       -3.403861   -4.220767    0.737203
     49          6           0       -3.801635   -3.146346    0.008894
     50          6           0       -2.948464   -2.664416   -1.135392
     51          6           0       -5.043785   -2.359636    0.384678
     52          6           0       -6.345775   -3.130920    0.227646
     53          6           0       -7.148183   -3.060505    1.539057
     54          6           0       -7.919476   -1.755687    1.649760
     55          6           0       -8.061205   -1.177332    3.114480
     56          6           0       -9.439471   -1.944902    1.054339
     57          6           0      -10.210200   -0.612018    0.982010
     58          6           0      -10.943479   -0.493577   -0.360947
     59          6           0      -12.511065   -0.361684   -0.158059
     60          6           0      -13.365596   -1.156461   -1.247453
     61          6           0      -13.016336    1.143326   -0.004412
     62          6           0      -13.069070    1.886030   -1.274101
     63          6           0      -12.450394    3.319295   -1.147880
     64          6           0      -13.464424    4.397788   -0.804673
     65          6           0      -13.116622    5.005348    0.640724
     66          6           0      -13.676535    5.606061   -1.757692
     67          1           0        0.326161    1.532420   -0.060416
     68          1           0        5.385764    5.740062   -0.160521
     69          1           0        9.438958    0.771554    0.070956
     70          1           0        1.916199   -2.974408   -0.789619
     71          1           0        0.122745   -1.053921    0.246468
     72          1           0        0.812645   -1.711235   -2.493732
     73          1           0        0.561859   -0.033207   -2.290619
     74          1           0       -0.725961   -1.054288   -1.765565
     75          1           0        1.009501   -2.165029    1.840412
     76          1           0        2.610119   -2.843527    1.997314
     77          1           0        0.958836   -4.448974    2.432801
     78          1           0        2.010993   -5.050573    1.189211
     79          1           0        0.014294    5.228048    1.071395
     80          1           0       -0.142004    3.488576    1.123759
     81          1           0       -0.273167    4.376822   -0.505950
     82          1           0        0.731176    7.132001    0.929583
     83          1           0        1.013857    6.795535   -0.828425
     84          1           0        1.608538    8.292359   -0.032506
     85          1           0        7.916986    5.343300    0.480087
     86          1           0        9.202600    3.171683   -1.107520
     87          1           0        8.864225    4.816762   -2.260610
     88          1           0        8.304932    6.352980   -1.501578
     89          1           0        7.151483    5.213508   -2.252012
     90          1           0       10.209662    4.445022    0.896606
     91          1           0       10.723723    2.871741    0.405417
     92          1           0        8.412222    2.709730    2.281476
     93          1           0        9.890683    3.397721    3.039489
     94          1           0        9.968637    1.806729    2.293764
     95          1           0       10.163974   -1.643108    0.732072
     96          1           0        9.940758   -1.964866   -0.889884
     97          1           0        9.679018   -3.259813    0.243182
     98          1           0        4.291980   -3.957241    0.734182
     99          1           0        2.241468   -6.718530   -1.240881
    100          1           0        3.631204   -7.482665   -2.058772
    101          1           0        2.926857   -5.923277   -2.651212
    102          1           0       -2.610926   -6.034224    1.033839
    103          1           0       -2.189973   -5.305119   -0.557793
    104          1           0       -4.019221   -4.535198    1.580114
    105          1           0       -1.918964   -2.945946   -0.915229
    106          1           0       -2.855922   -1.579365   -1.179416
    107          1           0       -3.382698   -3.119910   -2.025696
    108          1           0       -5.068364   -1.533760   -0.327589
    109          1           0       -4.968169   -1.860550    1.350656
    110          1           0       -6.046946   -4.146397   -0.034610
    111          1           0       -6.994815   -2.734392   -0.552780
    112          1           0       -6.504882   -3.210546    2.405390
    113          1           0       -7.760815   -3.961542    1.503668
    114          1           0       -7.408157   -0.964176    1.102557
    115          1           0       -7.724849   -0.147767    3.229987
    116          1           0       -7.644165   -1.817052    3.891542
    117          1           0       -9.091486   -1.282838    3.454128
    118          1           0       -9.960626   -2.621687    1.731226
    119          1           0       -9.459111   -2.453059    0.090422
    120          1           0       -9.485384    0.188878    1.129990
    121          1           0      -10.871997   -0.737878    1.838424
    122          1           0      -10.810456   -1.370240   -0.995796
    123          1           0      -10.618480    0.488496   -0.702235
    124          1           0      -12.654473   -0.927475    0.762214
    125          1           0      -13.509203   -2.217314   -1.041331
    126          1           0      -12.656490   -1.168501   -2.075220
    127          1           0      -14.228838   -0.556626   -1.536397
    128          1           0      -12.500039    1.685483    0.788027
    129          1           0      -14.044539    1.007516    0.332715
    130          1           0      -14.147337    1.965136   -1.413770
    131          1           0      -12.485085    1.360382   -2.028351
    132          1           0      -12.007424    3.653912   -2.086396
    133          1           0      -11.639461    3.241698   -0.423565
    134          1           0      -14.453170    3.940054   -0.777556
    135          1           0      -12.679473    6.000411    0.556690
    136          1           0      -12.603959    4.250825    1.237167
    137          1           0      -14.101935    5.145646    1.085366
    138          1           0      -13.632107    5.255524   -2.787986
    139          1           0      -12.981935    6.392581   -1.464566
    140          1           0      -14.691815    5.968803   -1.597980
 ---------------------------------------------------------------------

 SCF Done:  E(RZINDO/S) =  -474.299353971     A.U. after   19 cycles

 Excitation energies and oscillator strengths:

 Excited State   1:      Singlet-A      1.2786 eV  969.67 nm  f=0.5787  <S**2>=0.000
     175 ->178        -0.19167
     176 ->177         0.66372
 This state for optimization and/or second-order correction.
 Total Energy, E(CIS/TDA) =  -474.252365305
 Copying the excited state density for this state as the 1-particle RhoCI density.

 Excited State   2:      Singlet-A      1.9466 eV  636.93 nm  f=0.0004  <S**2>=0.000
     175 ->177         0.45776
     176 ->178         0.51909

 Excited State   3:      Singlet-A      2.9059 eV  426.66 nm  f=0.0267  <S**2>=0.000
     168 ->179         0.13072
     170 ->180        -0.10093
     176 ->179         0.61027
     176 ->180         0.14351

 Excited State   4:      Singlet-A      2.9468 eV  420.74 nm  f=0.1559  <S**2>=0.000
     167 ->179        -0.11550
     168 ->177         0.24950
     168 ->178        -0.10975
     168 ->179        -0.36916
     168 ->180         0.22487
     168 ->184         0.11925
     168 ->186        -0.16436
     175 ->177         0.18598
     176 ->178        -0.17146
     176 ->179         0.15453
     176 ->180         0.10698

 Excited State   5:      Singlet-A      2.9894 eV  414.74 nm  f=1.0932  <S**2>=0.000
     168 ->179         0.13891
     171 ->177        -0.15147
     175 ->177         0.44660
     176 ->178        -0.41321
     176 ->179        -0.14430

 The electronic state is 1-A.
 Alpha  occ. eigenvalues --   -1.84480  -1.82454  -1.79566  -1.73045  -1.72217
 Alpha  occ. eigenvalues --   -1.70405  -1.65698  -1.62278  -1.57871  -1.57560
 Alpha  occ. eigenvalues --   -1.55644  -1.51369  -1.48365  -1.47995  -1.47066
 Alpha  occ. eigenvalues --   -1.43331  -1.42953  -1.40799  -1.40757  -1.39457
 Alpha  occ. eigenvalues --   -1.36285  -1.33530  -1.33321  -1.31860  -1.28643
 Alpha  occ. eigenvalues --   -1.26716  -1.25677  -1.23604  -1.21826  -1.17870
 Alpha  occ. eigenvalues --   -1.17327  -1.15330  -1.14882  -1.13925  -1.12235
 Alpha  occ. eigenvalues --   -1.11956  -1.11246  -1.10612  -1.05589  -1.03297
 Alpha  occ. eigenvalues --   -1.02673  -1.02013  -0.97956  -0.97379  -0.97232
 Alpha  occ. eigenvalues --   -0.97063  -0.96124  -0.94217  -0.93188  -0.91843
 Alpha  occ. eigenvalues --   -0.90905  -0.89933  -0.89475  -0.88516  -0.85679
 Alpha  occ. eigenvalues --   -0.84588  -0.83585  -0.83084  -0.82110  -0.80348
 Alpha  occ. eigenvalues --   -0.79817  -0.79239  -0.78157  -0.77679  -0.76566
 Alpha  occ. eigenvalues --   -0.75980  -0.75401  -0.74997  -0.74733  -0.74221
 Alpha  occ. eigenvalues --   -0.73090  -0.72053  -0.71323  -0.70946  -0.70598
 Alpha  occ. eigenvalues --   -0.70174  -0.69853  -0.69384  -0.68486  -0.68233
 Alpha  occ. eigenvalues --   -0.67966  -0.67432  -0.66828  -0.66222  -0.65994
 Alpha  occ. eigenvalues --   -0.65555  -0.64970  -0.64677  -0.63801  -0.63684
 Alpha  occ. eigenvalues --   -0.63390  -0.63342  -0.62798  -0.62148  -0.61931
 Alpha  occ. eigenvalues --   -0.61321  -0.61269  -0.60596  -0.60503  -0.59579
 Alpha  occ. eigenvalues --   -0.59265  -0.58937  -0.58530  -0.58094  -0.58002
 Alpha  occ. eigenvalues --   -0.57649  -0.57577  -0.57117  -0.56931  -0.56292
 Alpha  occ. eigenvalues --   -0.55998  -0.55677  -0.55619  -0.55307  -0.55059
 Alpha  occ. eigenvalues --   -0.54986  -0.54191  -0.53895  -0.53491  -0.52887
 Alpha  occ. eigenvalues --   -0.52733  -0.52339  -0.52136  -0.51774  -0.51432
 Alpha  occ. eigenvalues --   -0.51324  -0.50869  -0.50335  -0.50229  -0.50186
 Alpha  occ. eigenvalues --   -0.49920  -0.49806  -0.49664  -0.49630  -0.49176
 Alpha  occ. eigenvalues --   -0.48841  -0.48565  -0.48240  -0.47905  -0.47712
 Alpha  occ. eigenvalues --   -0.47257  -0.47097  -0.46984  -0.46839  -0.46471
 Alpha  occ. eigenvalues --   -0.46163  -0.45859  -0.45809  -0.45347  -0.45220
 Alpha  occ. eigenvalues --   -0.44983  -0.44686  -0.44509  -0.44504  -0.44109
 Alpha  occ. eigenvalues --   -0.43554  -0.42740  -0.42592  -0.42288  -0.42011
 Alpha  occ. eigenvalues --   -0.41812  -0.40896  -0.40504  -0.39454  -0.38595
 Alpha  occ. eigenvalues --   -0.37515  -0.36668  -0.35912  -0.34982  -0.34557
 Alpha  occ. eigenvalues --   -0.33692  -0.32577  -0.32471  -0.32153  -0.27105
 Alpha  occ. eigenvalues --   -0.21295
 Alpha virt. eigenvalues --   -0.07912  -0.02504  -0.00677   0.01156   0.01251
 Alpha virt. eigenvalues --    0.02540   0.02844   0.03461   0.04153   0.04844
 Alpha virt. eigenvalues --    0.06332   0.07004   0.07342   0.07574   0.08237

 Mulliken charges:
               1
     1  Mg   0.416751
     2  C   -0.029915
     3  C   -0.107112
     4  C   -0.059026
     5  C   -0.062117
     6  N   -0.285199
     7  C    0.100924
     8  C    0.004367
     9  C    0.005461
    10  C    0.155361
    11  C   -0.049940
    12  C   -0.015574
    13  C    0.005642
    14  C    0.473114
    15  O   -0.514012
    16  O   -0.273395
    17  N   -0.336310
    18  C    0.124754
    19  C    0.015011
    20  C   -0.030669
    21  C    0.143325
    22  C   -0.041590
    23  C    0.324338
    24  O   -0.527666
    25  C   -0.030942
    26  N   -0.240362
    27  C    0.134288
    28  C    0.001684
    29  C   -0.001092
    30  C    0.119840
    31  C   -0.051893
    32  C   -0.039397
    33  C   -0.055340
    34  N   -0.316811
    35  C    0.070684
    36  C    0.031714
    37  C   -0.073647
    38  C    0.106076
    39  C   -0.034552
    40  C    0.338020
    41  O   -0.515221
    42  C    0.060566
    43  C    0.495355
    44  O   -0.526453
    45  O   -0.273668
    46  C    0.072133
    47  C    0.102413
    48  C   -0.094600
    49  C    0.001868
    50  C   -0.044650
    51  C   -0.017936
    52  C   -0.030409
    53  C   -0.026890
    54  C   -0.012408
    55  C   -0.068753
    56  C   -0.045287
    57  C   -0.041723
    58  C   -0.041528
    59  C   -0.032907
    60  C   -0.070461
    61  C   -0.027723
    62  C   -0.033889
    63  C   -0.034430
    64  C   -0.021609
    65  C   -0.070207
    66  C   -0.058337
    67  H    0.034138
    68  H    0.049267
    69  H    0.034025
    70  H    0.035767
    71  H    0.027905
    72  H    0.034015
    73  H    0.015493
    74  H    0.021610
    75  H    0.024728
    76  H    0.024716
    77  H    0.028474
    78  H    0.049224
    79  H    0.027327
    80  H    0.033859
    81  H    0.043793
    82  H    0.041710
    83  H    0.031469
    84  H    0.037790
    85  H    0.035859
    86  H    0.018042
    87  H    0.026761
    88  H    0.023955
    89  H    0.022816
    90  H    0.017355
    91  H    0.017605
    92  H    0.030266
    93  H    0.015566
    94  H    0.022594
    95  H    0.016067
    96  H    0.026545
    97  H    0.038070
    98  H    0.052323
    99  H    0.031666
   100  H    0.044659
   101  H    0.054791
   102  H    0.027908
   103  H    0.061591
   104  H    0.018365
   105  H    0.029062
   106  H    0.022058
   107  H    0.041876
   108  H    0.004657
   109  H    0.032082
   110  H    0.019877
   111  H    0.021958
   112  H    0.016972
   113  H    0.012643
   114  H    0.022872
   115  H    0.025253
   116  H    0.016558
   117  H    0.014931
   118  H    0.015731
   119  H    0.017801
   120  H    0.023126
   121  H    0.026310
   122  H    0.035989
   123  H    0.024189
   124  H    0.011382
   125  H    0.029090
   126  H    0.010217
   127  H    0.029979
   128  H    0.021245
   129  H    0.006805
   130  H    0.029292
   131  H    0.025924
   132  H    0.009336
   133  H    0.021161
   134  H    0.017770
   135  H    0.031476
   136  H    0.025585
   137  H    0.008630
   138  H    0.020049
   139  H    0.026874
   140  H    0.015087
 Sum of Mulliken charges =  -0.00000

 Dipole moment (field-independent basis, Debye):
    X=             -8.5728    Y=              4.2577    Z=              3.0450  Tot=             10.0445
 N-N= 4.341315456838D+03 E-N= 0.000000000000D+00  KE=-9.356841228364D+03
 Leave Link  601 at Wed May  4 05:14:55 2022, MaxMem=  6710886400 cpu:               0.9 elap:               0.1
 (Enter /sw/apps/gaussian-16.0/g16/l9999.exe)
 1\1\GINC-BP1-COMPUTE098\SP\RZINDO CIS\STO-3G\C55H74Mg1N4O6\OF15641\04-
 May-2022\0\\#p ZINDO=(nstates=5)\\step_1351_chromophore_6 ZINDO\\0,1\M
 g,0,16.906,-2.887,28.355\C,0,16.088,-0.617,30.745\C,0,18.797,-4.681,30
 .659\C,0,18.204,-4.85,25.769\C,0,15.354,-0.878,25.928\N,0,17.46,-2.575
 ,30.497\C,0,16.884,-1.573,31.262\C,0,17.,-2.011,32.718\C,0,18.194,-3.0
 23,32.665\C,0,18.283,-3.405,31.148\C,0,19.592,-2.52,32.997\C,0,15.714,
 -2.537,33.443\C,0,15.309,-1.841,34.787\C,0,16.406,-1.641,35.79\O,0,17.

 Normal termination of Gaussian 16 at Wed May  4 05:14:55 2022.
