 Gaussian 16, Revision A.03,
 Gaussian 16:  ES64L-G16RevA.03 25-Dec-2016

 ------------------------------
 #p blyp/Def2SVP td=(nstates=5)
 ------------------------------

 ---------------------------------------------------
 step_1801_chromophore_26 TDDFT with blyp functional
 ---------------------------------------------------
 Symbolic Z-matrix:
 Charge =  0 Multiplicity = 1

                         Standard orientation:
 ---------------------------------------------------------------------
 Center     Atomic      Atomic             Coordinates (Angstroms)
 Number     Number       Type             X           Y           Z
 ---------------------------------------------------------------------
      1         12           0       -4.057097    1.187662    0.722032
      2          6           0       -5.213774   -1.936058   -0.165389
      3          6           0       -2.372754   -0.259676    3.415662
      4          6           0       -2.348828    4.108803    1.075450
      5          6           0       -5.533869    2.374158   -2.353966
      6          7           0       -3.687621   -0.843497    1.460147
      7          6           0       -4.393931   -1.916845    1.010650
      8          6           0       -3.972519   -3.147403    1.742394
      9          6           0       -3.365113   -2.610112    3.078307
     10          6           0       -3.214456   -1.066282    2.664957
     11          6           0       -4.063471   -2.769661    4.434654
     12          6           0       -2.902963   -4.184258    1.009690
     13          6           0       -1.974485   -3.562310    0.055142
     14          6           0       -0.497061   -4.149244   -0.110853
     15          8           0       -0.163189   -5.326816   -0.080950
     16          8           0        0.393786   -3.113271   -0.435717
     17          7           0       -2.610184    1.902959    2.094891
     18          6           0       -2.073894    1.128854    3.120885
     19          6           0       -1.172197    1.985644    3.900141
     20          6           0       -1.098258    3.301602    3.311574
     21          6           0       -2.040402    3.159725    2.119466
     22          6           0       -0.525857    1.505252    5.187696
     23          6           0       -0.277368    4.460310    3.802474
     24          8           0        0.283784    4.348807    4.875468
     25          6           0       -0.148765    5.719690    3.025323
     26          7           0       -3.824282    2.860015   -0.560997
     27          6           0       -3.221323    3.988371   -0.089434
     28          6           0       -3.362416    5.194829   -1.038309
     29          6           0       -4.227892    4.535104   -2.210401
     30          6           0       -4.591198    3.140550   -1.700823
     31          6           0       -4.038488    6.437300   -0.432737
     32          6           0       -3.508374    4.581211   -3.594120
     33          6           0       -4.355479    4.795254   -4.862253
     34          7           0       -5.357612    0.487527   -0.936812
     35          6           0       -5.861718    0.992845   -2.082028
     36          6           0       -6.740501   -0.023297   -2.782043
     37          6           0       -6.403817   -1.153335   -1.980959
     38          6           0       -5.615063   -0.817126   -0.893016
     39          6           0       -7.506154    0.096725   -3.986368
     40          6           0       -6.695140   -2.558699   -2.022720
     41          8           0       -7.310150   -3.257139   -2.813481
     42          6           0       -5.945830   -3.129036   -0.820201
     43          6           0       -6.988295   -3.825434   -0.006427
     44          8           0       -6.887378   -4.958528    0.458138
     45          8           0       -8.116238   -3.061433    0.151338
     46          6           0       -9.247430   -3.639768    0.877767
     47          6           0        1.752944   -3.530246   -0.780798
     48          6           0        2.256589   -2.553593   -1.937412
     49          6           0        3.613995   -2.241754   -2.001003
     50          6           0        4.664999   -2.941179   -1.226065
     51          6           0        4.019362   -1.186694   -2.941499
     52          6           0        4.086024    0.291472   -2.367039
     53          6           0        5.409669    1.074783   -2.593016
     54          6           0        6.039612    1.731761   -1.441291
     55          6           0        6.069384    3.335459   -1.626764
     56          6           0        7.430206    1.045199   -1.213735
     57          6           0        7.683533    0.788801    0.287075
     58          6           0        8.232403   -0.633029    0.553584
     59          6           0        9.588634   -0.634198    1.220300
     60          6           0        9.658518   -1.507239    2.525619
     61          6           0       10.709376   -0.991729    0.253077
     62          6           0       11.783887    0.143190    0.250434
     63          6           0       12.747127    0.079007   -0.865799
     64          6           0       13.925900   -0.970627   -0.522211
     65          6           0       15.238182   -0.242731   -0.422533
     66          6           0       14.029295   -2.138357   -1.530381
     67          1           0       -1.862451   -0.745649    4.250916
     68          1           0       -1.785051    5.032168    1.226079
     69          1           0       -6.072532    2.744276   -3.229200
     70          1           0       -4.910407   -3.657850    1.959303
     71          1           0       -2.319747   -2.916869    3.121992
     72          1           0       -4.141321   -1.910999    5.100938
     73          1           0       -3.548416   -3.532471    5.019158
     74          1           0       -5.113749   -2.981505    4.235334
     75          1           0       -3.536547   -4.917529    0.512737
     76          1           0       -2.288802   -4.723199    1.731892
     77          1           0       -1.969307   -2.528790    0.399561
     78          1           0       -2.418898   -3.699355   -0.930757
     79          1           0        0.517534    1.822282    5.183007
     80          1           0       -0.563924    0.427646    5.343497
     81          1           0       -1.018606    1.923137    6.064725
     82          1           0       -1.104491    6.231056    2.911370
     83          1           0        0.258140    5.552359    2.027741
     84          1           0        0.487772    6.426739    3.559326
     85          1           0       -2.422476    5.598369   -1.413987
     86          1           0       -5.210306    4.981404   -2.361745
     87          1           0       -3.639763    6.409623    0.581167
     88          1           0       -5.115393    6.263034   -0.437642
     89          1           0       -3.653051    7.371880   -0.840041
     90          1           0       -3.107850    3.567313   -3.624244
     91          1           0       -2.686885    5.296920   -3.627976
     92          1           0       -3.757551    5.431213   -5.514494
     93          1           0       -5.275982    5.329147   -4.623662
     94          1           0       -4.695504    3.938086   -5.444325
     95          1           0       -7.262007   -0.759601   -4.615426
     96          1           0       -7.325605    1.054405   -4.475111
     97          1           0       -8.572089    0.027917   -3.773434
     98          1           0       -5.208930   -3.773543   -1.299614
     99          1           0      -10.143606   -3.495864    0.274623
    100          1           0       -9.290361   -3.100991    1.824372
    101          1           0       -9.120164   -4.698788    1.101454
    102          1           0        1.786287   -4.530462   -1.211357
    103          1           0        2.321755   -3.317691    0.124309
    104          1           0        1.524570   -1.912440   -2.430079
    105          1           0        4.184312   -3.815187   -0.785952
    106          1           0        5.145812   -2.366094   -0.435530
    107          1           0        5.432963   -3.149040   -1.971309
    108          1           0        3.304928   -1.148635   -3.764242
    109          1           0        4.977505   -1.487052   -3.365202
    110          1           0        3.735320    0.258716   -1.335357
    111          1           0        3.274694    0.856088   -2.826528
    112          1           0        4.969873    1.879766   -3.180904
    113          1           0        6.020034    0.431683   -3.227774
    114          1           0        5.429795    1.572591   -0.552356
    115          1           0        5.676302    3.878603   -0.767651
    116          1           0        5.454358    3.648007   -2.470071
    117          1           0        7.068978    3.756066   -1.739029
    118          1           0        8.279149    1.639440   -1.551268
    119          1           0        7.532241    0.151436   -1.829245
    120          1           0        6.821493    0.975447    0.928634
    121          1           0        8.430994    1.501784    0.632900
    122          1           0        8.117507   -1.315730   -0.289188
    123          1           0        7.535296   -1.094606    1.252263
    124          1           0        9.700422    0.329487    1.718782
    125          1           0        9.128580   -2.441129    2.335937
    126          1           0        9.062694   -1.027636    3.301694
    127          1           0       10.695629   -1.673766    2.816578
    128          1           0       10.363028   -1.203908   -0.758347
    129          1           0       11.083860   -1.959222    0.587725
    130          1           0       12.374011    0.070890    1.164357
    131          1           0       11.271778    1.103709    0.190726
    132          1           0       13.046195    1.084508   -1.163178
    133          1           0       12.149730   -0.167394   -1.743919
    134          1           0       13.846481   -1.378959    0.485709
    135          1           0       15.551615    0.367942   -1.268460
    136          1           0       16.105628   -0.893162   -0.316485
    137          1           0       15.130705    0.423297    0.434771
    138          1           0       13.730447   -3.074658   -1.058645
    139          1           0       15.014477   -2.241705   -1.987360
    140          1           0       13.393689   -1.926773   -2.390198
 ---------------------------------------------------------------------

 SCF Done:  E(RB-LYP) =  -3007.34241532     A.U. after   20 cycles

 Excitation energies and oscillator strengths:

 Excited State   1:      Singlet-A      1.7547 eV  706.57 nm  f=0.1235  <S**2>=0.000
     244 -> 247        0.49152
     245 -> 247       -0.22929
     245 -> 248        0.11648
     246 -> 247        0.44473
 This state for optimization and/or second-order correction.
 Total Energy, E(TD-HF/TD-DFT) =  -3007.27793003
 Copying the excited state density for this state as the 1-particle RhoCI density.

 Excited State   2:      Singlet-A      1.7844 eV  694.83 nm  f=0.1996  <S**2>=0.000
     244 -> 247       -0.40030
     245 -> 247        0.20667
     245 -> 248        0.14401
     246 -> 247        0.53108
     246 <- 247       -0.12099

 Excited State   3:      Singlet-A      1.9342 eV  641.00 nm  f=0.0004  <S**2>=0.000
     242 -> 247        0.70660

 Excited State   4:      Singlet-A      1.9493 eV  636.06 nm  f=0.0033  <S**2>=0.000
     243 -> 247        0.68147
     245 -> 247        0.14598

 Excited State   5:      Singlet-A      2.0245 eV  612.41 nm  f=0.0486  <S**2>=0.000
     243 -> 247       -0.18207
     244 -> 247        0.28239
     245 -> 247        0.54439
     246 -> 248       -0.27152

 The electronic state is 1-A.
 Alpha  occ. eigenvalues --  -46.28926 -18.82225 -18.81568 -18.77250 -18.76582
 Alpha  occ. eigenvalues --  -18.75697 -18.75454 -14.04239 -14.04028 -14.01943
 Alpha  occ. eigenvalues --  -14.01032 -10.04453 -10.04369 -10.00173  -9.98781
 Alpha  occ. eigenvalues --   -9.97969  -9.97835  -9.97715  -9.97231  -9.97097
 Alpha  occ. eigenvalues --   -9.96849  -9.96603  -9.96538  -9.96118  -9.94632
 Alpha  occ. eigenvalues --   -9.94451  -9.94400  -9.94339  -9.94148  -9.94107
 Alpha  occ. eigenvalues --   -9.94089  -9.94065  -9.93936  -9.93646  -9.93544
 Alpha  occ. eigenvalues --   -9.93518  -9.93487  -9.93349  -9.92942  -9.92861
 Alpha  occ. eigenvalues --   -9.92737  -9.92724  -9.92699  -9.92536  -9.92480
 Alpha  occ. eigenvalues --   -9.92238  -9.92156  -9.92124  -9.92041  -9.91910
 Alpha  occ. eigenvalues --   -9.91797  -9.91488  -9.91420  -9.91170  -9.91090
 Alpha  occ. eigenvalues --   -9.91069  -9.90885  -9.90839  -9.90777  -9.90767
 Alpha  occ. eigenvalues --   -9.90675  -9.90584  -9.90575  -9.90528  -9.90513
 Alpha  occ. eigenvalues --   -9.90340  -2.93322  -1.73730  -1.73208  -1.73040
 Alpha  occ. eigenvalues --   -0.97776  -0.96685  -0.92315  -0.91281  -0.89484
 Alpha  occ. eigenvalues --   -0.89394  -0.88013  -0.86966  -0.85428  -0.84353
 Alpha  occ. eigenvalues --   -0.76381  -0.73629  -0.73153  -0.72559  -0.72206
 Alpha  occ. eigenvalues --   -0.72075  -0.71697  -0.71111  -0.71002  -0.70617
 Alpha  occ. eigenvalues --   -0.69377  -0.69138  -0.68023  -0.67851  -0.67716
 Alpha  occ. eigenvalues --   -0.66353  -0.66302  -0.65552  -0.65032  -0.64802
 Alpha  occ. eigenvalues --   -0.63923  -0.62777  -0.62279  -0.61775  -0.61143
 Alpha  occ. eigenvalues --   -0.60689  -0.59937  -0.59932  -0.59506  -0.59214
 Alpha  occ. eigenvalues --   -0.57838  -0.57393  -0.56957  -0.55068  -0.54664
 Alpha  occ. eigenvalues --   -0.53992  -0.53665  -0.52841  -0.52073  -0.51813
 Alpha  occ. eigenvalues --   -0.51520  -0.51072  -0.50826  -0.50268  -0.49943
 Alpha  occ. eigenvalues --   -0.49701  -0.49522  -0.49512  -0.48519  -0.46668
 Alpha  occ. eigenvalues --   -0.46321  -0.45513  -0.45319  -0.45037  -0.44667
 Alpha  occ. eigenvalues --   -0.44515  -0.44067  -0.43379  -0.43205  -0.42750
 Alpha  occ. eigenvalues --   -0.42352  -0.42177  -0.41805  -0.41396  -0.41175
 Alpha  occ. eigenvalues --   -0.40796  -0.40741  -0.40244  -0.40119  -0.39946
 Alpha  occ. eigenvalues --   -0.39745  -0.39603  -0.39429  -0.39354  -0.39173
 Alpha  occ. eigenvalues --   -0.38988  -0.38897  -0.38653  -0.38616  -0.38538
 Alpha  occ. eigenvalues --   -0.38359  -0.38068  -0.37626  -0.37334  -0.37177
 Alpha  occ. eigenvalues --   -0.37080  -0.37035  -0.36783  -0.36669  -0.36643
 Alpha  occ. eigenvalues --   -0.36399  -0.36275  -0.36087  -0.35816  -0.35738
 Alpha  occ. eigenvalues --   -0.35567  -0.35211  -0.35106  -0.34905  -0.34852
 Alpha  occ. eigenvalues --   -0.34523  -0.34354  -0.34336  -0.34284  -0.33950
 Alpha  occ. eigenvalues --   -0.33909  -0.33817  -0.33707  -0.33404  -0.33336
 Alpha  occ. eigenvalues --   -0.33060  -0.32861  -0.32807  -0.32741  -0.32605
 Alpha  occ. eigenvalues --   -0.32361  -0.32234  -0.31942  -0.31860  -0.31542
 Alpha  occ. eigenvalues --   -0.31495  -0.31300  -0.31077  -0.30941  -0.30846
 Alpha  occ. eigenvalues --   -0.30539  -0.30473  -0.30364  -0.30174  -0.29974
 Alpha  occ. eigenvalues --   -0.29785  -0.29521  -0.29241  -0.29000  -0.28691
 Alpha  occ. eigenvalues --   -0.28675  -0.28307  -0.28181  -0.27900  -0.27844
 Alpha  occ. eigenvalues --   -0.27655  -0.27243  -0.27067  -0.26728  -0.26318
 Alpha  occ. eigenvalues --   -0.26247  -0.26026  -0.25690  -0.25357  -0.25071
 Alpha  occ. eigenvalues --   -0.24895  -0.24498  -0.24213  -0.23861  -0.23495
 Alpha  occ. eigenvalues --   -0.23324  -0.22478  -0.22110  -0.21627  -0.20740
 Alpha  occ. eigenvalues --   -0.20415  -0.19138  -0.19123  -0.18525  -0.17823
 Alpha  occ. eigenvalues --   -0.16154
 Alpha virt. eigenvalues --   -0.12030  -0.07601  -0.06456  -0.04799  -0.03681
 Alpha virt. eigenvalues --   -0.02972  -0.02722  -0.02515  -0.02433  -0.00423
 Alpha virt. eigenvalues --    0.00708   0.01480   0.01996   0.02432   0.02838

 Mulliken charges:
               1
     1  Mg   0.679164
     2  C   -0.070102
     3  C   -0.072536
     4  C   -0.044489
     5  C   -0.070558
     6  N   -0.209848
     7  C   -0.093108
     8  C    0.048911
     9  C   -0.019663
    10  C    0.018797
    11  C    0.147242
    12  C    0.102002
    13  C    0.095986
    14  C    0.093069
    15  O   -0.182136
    16  O   -0.288861
    17  N   -0.295207
    18  C    0.150441
    19  C   -0.150344
    20  C    0.049005
    21  C    0.074343
    22  C    0.180811
    23  C   -0.090701
    24  O   -0.155720
    25  C    0.134048
    26  N   -0.242142
    27  C    0.080324
    28  C   -0.021951
    29  C    0.027044
    30  C    0.080590
    31  C    0.142619
    32  C    0.090472
    33  C    0.062765
    34  N   -0.199387
    35  C    0.008487
    36  C   -0.137926
    37  C    0.029784
    38  C    0.145952
    39  C    0.189331
    40  C   -0.095778
    41  O   -0.129074
    42  C    0.119763
    43  C    0.133172
    44  O   -0.179110
    45  O   -0.278709
    46  C    0.209748
    47  C    0.268453
    48  C   -0.086433
    49  C   -0.196696
    50  C    0.159346
    51  C    0.142350
    52  C    0.042775
    53  C    0.140416
    54  C   -0.039222
    55  C    0.085375
    56  C    0.105085
    57  C    0.066739
    58  C    0.117058
    59  C   -0.085373
    60  C    0.089971
    61  C    0.141479
    62  C    0.042111
    63  C    0.137009
    64  C   -0.061776
    65  C    0.080387
    66  C    0.114740
    67  H   -0.047495
    68  H   -0.080937
    69  H   -0.064163
    70  H   -0.031108
    71  H   -0.020745
    72  H   -0.011132
    73  H    0.000853
    74  H   -0.013224
    75  H   -0.005808
    76  H   -0.010213
    77  H    0.018363
    78  H    0.012551
    79  H    0.010115
    80  H   -0.029617
    81  H    0.008177
    82  H    0.016747
    83  H    0.018116
    84  H   -0.012020
    85  H   -0.019562
    86  H   -0.032546
    87  H   -0.028873
    88  H   -0.002231
    89  H   -0.006443
    90  H   -0.016881
    91  H   -0.017687
    92  H   -0.011773
    93  H   -0.019949
    94  H    0.000472
    95  H    0.017299
    96  H   -0.016619
    97  H    0.006534
    98  H   -0.001590
    99  H    0.026576
   100  H    0.011266
   101  H    0.026957
   102  H    0.027813
   103  H    0.013497
   104  H   -0.025022
   105  H   -0.005006
   106  H    0.007782
   107  H   -0.005481
   108  H   -0.030096
   109  H   -0.040753
   110  H   -0.033206
   111  H   -0.037371
   112  H   -0.050825
   113  H   -0.025097
   114  H   -0.028436
   115  H   -0.020495
   116  H   -0.017572
   117  H   -0.016108
   118  H   -0.036283
   119  H   -0.030183
   120  H   -0.028135
   121  H   -0.033628
   122  H   -0.036543
   123  H   -0.062677
   124  H   -0.034004
   125  H   -0.024951
   126  H   -0.020539
   127  H   -0.009430
   128  H   -0.044001
   129  H   -0.045319
   130  H   -0.027095
   131  H   -0.035107
   132  H   -0.042837
   133  H   -0.052162
   134  H   -0.025974
   135  H   -0.023526
   136  H   -0.022049
   137  H   -0.021837
   138  H   -0.009955
   139  H   -0.025786
   140  H   -0.025329
 Sum of Mulliken charges =  -0.00000

 Dipole moment (field-independent basis, Debye):
    X=             -0.3514    Y=              6.1120    Z=             -0.1874  Tot=              6.1249
 Quadrupole moment (field-independent basis, Debye-Ang):
   XX=           -390.8983   YY=           -427.0398   ZZ=           -411.7758
   XY=            -31.9989   XZ=            -20.5082   YZ=            -29.8581

 Normal termination of Gaussian 16 at Fri Apr 29 02:46:13 2022.
