 Gaussian 16, Revision A.03,
 Gaussian 16:  ES64L-G16RevA.03 25-Dec-2016

 -----------------------------------
 #p cam-b3lyp/Def2SVP td=(nstates=5)
 -----------------------------------

 --------------------------------------------------------
 step_1801_chromophore_26 TDDFT with cam-b3lyp functional
 --------------------------------------------------------
 Symbolic Z-matrix:
 Charge =  0 Multiplicity = 1

                         Standard orientation:
 ---------------------------------------------------------------------
 Center     Atomic      Atomic             Coordinates (Angstroms)
 Number     Number       Type             X           Y           Z
 ---------------------------------------------------------------------
      1         12           0       -4.057097    1.187662    0.722032
      2          6           0       -5.213774   -1.936058   -0.165389
      3          6           0       -2.372754   -0.259676    3.415662
      4          6           0       -2.348828    4.108803    1.075450
      5          6           0       -5.533869    2.374158   -2.353966
      6          7           0       -3.687621   -0.843497    1.460147
      7          6           0       -4.393931   -1.916845    1.010650
      8          6           0       -3.972519   -3.147403    1.742394
      9          6           0       -3.365113   -2.610112    3.078307
     10          6           0       -3.214456   -1.066282    2.664957
     11          6           0       -4.063471   -2.769661    4.434654
     12          6           0       -2.902963   -4.184258    1.009690
     13          6           0       -1.974485   -3.562310    0.055142
     14          6           0       -0.497061   -4.149244   -0.110853
     15          8           0       -0.163189   -5.326816   -0.080950
     16          8           0        0.393786   -3.113271   -0.435717
     17          7           0       -2.610184    1.902959    2.094891
     18          6           0       -2.073894    1.128854    3.120885
     19          6           0       -1.172197    1.985644    3.900141
     20          6           0       -1.098258    3.301602    3.311574
     21          6           0       -2.040402    3.159725    2.119466
     22          6           0       -0.525857    1.505252    5.187696
     23          6           0       -0.277368    4.460310    3.802474
     24          8           0        0.283784    4.348807    4.875468
     25          6           0       -0.148765    5.719690    3.025323
     26          7           0       -3.824282    2.860015   -0.560997
     27          6           0       -3.221323    3.988371   -0.089434
     28          6           0       -3.362416    5.194829   -1.038309
     29          6           0       -4.227892    4.535104   -2.210401
     30          6           0       -4.591198    3.140550   -1.700823
     31          6           0       -4.038488    6.437300   -0.432737
     32          6           0       -3.508374    4.581211   -3.594120
     33          6           0       -4.355479    4.795254   -4.862253
     34          7           0       -5.357612    0.487527   -0.936812
     35          6           0       -5.861718    0.992845   -2.082028
     36          6           0       -6.740501   -0.023297   -2.782043
     37          6           0       -6.403817   -1.153335   -1.980959
     38          6           0       -5.615063   -0.817126   -0.893016
     39          6           0       -7.506154    0.096725   -3.986368
     40          6           0       -6.695140   -2.558699   -2.022720
     41          8           0       -7.310150   -3.257139   -2.813481
     42          6           0       -5.945830   -3.129036   -0.820201
     43          6           0       -6.988295   -3.825434   -0.006427
     44          8           0       -6.887378   -4.958528    0.458138
     45          8           0       -8.116238   -3.061433    0.151338
     46          6           0       -9.247430   -3.639768    0.877767
     47          6           0        1.752944   -3.530246   -0.780798
     48          6           0        2.256589   -2.553593   -1.937412
     49          6           0        3.613995   -2.241754   -2.001003
     50          6           0        4.664999   -2.941179   -1.226065
     51          6           0        4.019362   -1.186694   -2.941499
     52          6           0        4.086024    0.291472   -2.367039
     53          6           0        5.409669    1.074783   -2.593016
     54          6           0        6.039612    1.731761   -1.441291
     55          6           0        6.069384    3.335459   -1.626764
     56          6           0        7.430206    1.045199   -1.213735
     57          6           0        7.683533    0.788801    0.287075
     58          6           0        8.232403   -0.633029    0.553584
     59          6           0        9.588634   -0.634198    1.220300
     60          6           0        9.658518   -1.507239    2.525619
     61          6           0       10.709376   -0.991729    0.253077
     62          6           0       11.783887    0.143190    0.250434
     63          6           0       12.747127    0.079007   -0.865799
     64          6           0       13.925900   -0.970627   -0.522211
     65          6           0       15.238182   -0.242731   -0.422533
     66          6           0       14.029295   -2.138357   -1.530381
     67          1           0       -1.862451   -0.745649    4.250916
     68          1           0       -1.785051    5.032168    1.226079
     69          1           0       -6.072532    2.744276   -3.229200
     70          1           0       -4.910407   -3.657850    1.959303
     71          1           0       -2.319747   -2.916869    3.121992
     72          1           0       -4.141321   -1.910999    5.100938
     73          1           0       -3.548416   -3.532471    5.019158
     74          1           0       -5.113749   -2.981505    4.235334
     75          1           0       -3.536547   -4.917529    0.512737
     76          1           0       -2.288802   -4.723199    1.731892
     77          1           0       -1.969307   -2.528790    0.399561
     78          1           0       -2.418898   -3.699355   -0.930757
     79          1           0        0.517534    1.822282    5.183007
     80          1           0       -0.563924    0.427646    5.343497
     81          1           0       -1.018606    1.923137    6.064725
     82          1           0       -1.104491    6.231056    2.911370
     83          1           0        0.258140    5.552359    2.027741
     84          1           0        0.487772    6.426739    3.559326
     85          1           0       -2.422476    5.598369   -1.413987
     86          1           0       -5.210306    4.981404   -2.361745
     87          1           0       -3.639763    6.409623    0.581167
     88          1           0       -5.115393    6.263034   -0.437642
     89          1           0       -3.653051    7.371880   -0.840041
     90          1           0       -3.107850    3.567313   -3.624244
     91          1           0       -2.686885    5.296920   -3.627976
     92          1           0       -3.757551    5.431213   -5.514494
     93          1           0       -5.275982    5.329147   -4.623662
     94          1           0       -4.695504    3.938086   -5.444325
     95          1           0       -7.262007   -0.759601   -4.615426
     96          1           0       -7.325605    1.054405   -4.475111
     97          1           0       -8.572089    0.027917   -3.773434
     98          1           0       -5.208930   -3.773543   -1.299614
     99          1           0      -10.143606   -3.495864    0.274623
    100          1           0       -9.290361   -3.100991    1.824372
    101          1           0       -9.120164   -4.698788    1.101454
    102          1           0        1.786287   -4.530462   -1.211357
    103          1           0        2.321755   -3.317691    0.124309
    104          1           0        1.524570   -1.912440   -2.430079
    105          1           0        4.184312   -3.815187   -0.785952
    106          1           0        5.145812   -2.366094   -0.435530
    107          1           0        5.432963   -3.149040   -1.971309
    108          1           0        3.304928   -1.148635   -3.764242
    109          1           0        4.977505   -1.487052   -3.365202
    110          1           0        3.735320    0.258716   -1.335357
    111          1           0        3.274694    0.856088   -2.826528
    112          1           0        4.969873    1.879766   -3.180904
    113          1           0        6.020034    0.431683   -3.227774
    114          1           0        5.429795    1.572591   -0.552356
    115          1           0        5.676302    3.878603   -0.767651
    116          1           0        5.454358    3.648007   -2.470071
    117          1           0        7.068978    3.756066   -1.739029
    118          1           0        8.279149    1.639440   -1.551268
    119          1           0        7.532241    0.151436   -1.829245
    120          1           0        6.821493    0.975447    0.928634
    121          1           0        8.430994    1.501784    0.632900
    122          1           0        8.117507   -1.315730   -0.289188
    123          1           0        7.535296   -1.094606    1.252263
    124          1           0        9.700422    0.329487    1.718782
    125          1           0        9.128580   -2.441129    2.335937
    126          1           0        9.062694   -1.027636    3.301694
    127          1           0       10.695629   -1.673766    2.816578
    128          1           0       10.363028   -1.203908   -0.758347
    129          1           0       11.083860   -1.959222    0.587725
    130          1           0       12.374011    0.070890    1.164357
    131          1           0       11.271778    1.103709    0.190726
    132          1           0       13.046195    1.084508   -1.163178
    133          1           0       12.149730   -0.167394   -1.743919
    134          1           0       13.846481   -1.378959    0.485709
    135          1           0       15.551615    0.367942   -1.268460
    136          1           0       16.105628   -0.893162   -0.316485
    137          1           0       15.130705    0.423297    0.434771
    138          1           0       13.730447   -3.074658   -1.058645
    139          1           0       15.014477   -2.241705   -1.987360
    140          1           0       13.393689   -1.926773   -2.390198
 ---------------------------------------------------------------------

 SCF Done:  E(RCAM-B3LYP) =  -3007.12767451     A.U. after   17 cycles

 Excitation energies and oscillator strengths:

 Excited State   1:      Singlet-A      1.6866 eV  735.11 nm  f=0.3875  <S**2>=0.000
     245 -> 248       -0.17205
     246 -> 247        0.68790
     245 <- 248       -0.10482
 This state for optimization and/or second-order correction.
 Total Energy, E(TD-HF/TD-DFT) =  -3007.06569301
 Copying the excited state density for this state as the 1-particle RhoCI density.

 Excited State   2:      Singlet-A      2.2360 eV  554.50 nm  f=0.0741  <S**2>=0.000
     245 -> 247        0.62270
     246 -> 248        0.31906

 Excited State   3:      Singlet-A      3.3269 eV  372.67 nm  f=0.0558  <S**2>=0.000
     241 -> 247        0.58122
     243 -> 247       -0.28487
     246 -> 248       -0.23369

 Excited State   4:      Singlet-A      3.3847 eV  366.31 nm  f=0.1111  <S**2>=0.000
     241 -> 247        0.11829
     243 -> 247        0.56310
     245 -> 247        0.13417
     246 -> 248       -0.36265

 Excited State   5:      Singlet-A      3.4909 eV  355.17 nm  f=0.1387  <S**2>=0.000
     241 -> 247        0.13087
     242 -> 247        0.51402
     242 -> 249        0.23735
     242 -> 251       -0.17626
     243 -> 247        0.14053
     245 -> 247       -0.15048
     246 -> 248        0.23351

 The electronic state is 1-A.
 Alpha  occ. eigenvalues --  -46.90648 -19.25013 -19.24294 -19.20193 -19.19585
 Alpha  occ. eigenvalues --  -19.19265 -19.18409 -14.43200 -14.42924 -14.40705
 Alpha  occ. eigenvalues --  -14.39286 -10.39822 -10.39727 -10.35639 -10.33848
 Alpha  occ. eigenvalues --  -10.32945 -10.32343 -10.31715 -10.31671 -10.31486
 Alpha  occ. eigenvalues --  -10.31364 -10.31354 -10.31002 -10.29986 -10.29680
 Alpha  occ. eigenvalues --  -10.29014 -10.28479 -10.28340 -10.28340 -10.28319
 Alpha  occ. eigenvalues --  -10.28198 -10.28181 -10.28127 -10.28096 -10.27944
 Alpha  occ. eigenvalues --  -10.27519 -10.27454 -10.27258 -10.26820 -10.26811
 Alpha  occ. eigenvalues --  -10.26593 -10.26536 -10.26512 -10.26483 -10.26057
 Alpha  occ. eigenvalues --  -10.26031 -10.25878 -10.25852 -10.25793 -10.25760
 Alpha  occ. eigenvalues --  -10.25685 -10.25161 -10.25101 -10.24824 -10.24784
 Alpha  occ. eigenvalues --  -10.24733 -10.24544 -10.24454 -10.24432 -10.24417
 Alpha  occ. eigenvalues --  -10.24333 -10.24306 -10.24207 -10.24124 -10.24090
 Alpha  occ. eigenvalues --  -10.23914  -3.18933  -1.93823  -1.93392  -1.93228
 Alpha  occ. eigenvalues --   -1.16184  -1.15040  -1.11078  -1.09474  -1.07240
 Alpha  occ. eigenvalues --   -1.07225  -1.05839  -1.04355  -1.03123  -1.02174
 Alpha  occ. eigenvalues --   -0.93415  -0.90489  -0.89974  -0.89316  -0.88856
 Alpha  occ. eigenvalues --   -0.88772  -0.88452  -0.87680  -0.87590  -0.86952
 Alpha  occ. eigenvalues --   -0.86312  -0.85653  -0.84311  -0.84027  -0.83979
 Alpha  occ. eigenvalues --   -0.82570  -0.82342  -0.81454  -0.80863  -0.80654
 Alpha  occ. eigenvalues --   -0.79605  -0.78336  -0.77779  -0.77578  -0.76568
 Alpha  occ. eigenvalues --   -0.76079  -0.75286  -0.75279  -0.74794  -0.74479
 Alpha  occ. eigenvalues --   -0.72836  -0.72342  -0.71897  -0.69846  -0.69187
 Alpha  occ. eigenvalues --   -0.68711  -0.68176  -0.67447  -0.66362  -0.65977
 Alpha  occ. eigenvalues --   -0.65541  -0.65164  -0.65021  -0.64282  -0.63970
 Alpha  occ. eigenvalues --   -0.63677  -0.63516  -0.63149  -0.62207  -0.60159
 Alpha  occ. eigenvalues --   -0.60019  -0.59008  -0.58922  -0.58543  -0.58100
 Alpha  occ. eigenvalues --   -0.57989  -0.57392  -0.56543  -0.56356  -0.56026
 Alpha  occ. eigenvalues --   -0.55462  -0.55107  -0.54631  -0.54263  -0.54116
 Alpha  occ. eigenvalues --   -0.53584  -0.53432  -0.53134  -0.53016  -0.52742
 Alpha  occ. eigenvalues --   -0.52593  -0.52489  -0.52096  -0.51995  -0.51806
 Alpha  occ. eigenvalues --   -0.51520  -0.51416  -0.51050  -0.50936  -0.50836
 Alpha  occ. eigenvalues --   -0.50696  -0.50393  -0.50250  -0.49939  -0.49750
 Alpha  occ. eigenvalues --   -0.49479  -0.49243  -0.49165  -0.48803  -0.48753
 Alpha  occ. eigenvalues --   -0.48735  -0.48447  -0.48324  -0.48142  -0.47793
 Alpha  occ. eigenvalues --   -0.47689  -0.47245  -0.47010  -0.46793  -0.46708
 Alpha  occ. eigenvalues --   -0.46532  -0.46396  -0.46275  -0.46075  -0.46055
 Alpha  occ. eigenvalues --   -0.45819  -0.45616  -0.45412  -0.45163  -0.45081
 Alpha  occ. eigenvalues --   -0.44885  -0.44752  -0.44474  -0.44334  -0.44283
 Alpha  occ. eigenvalues --   -0.44036  -0.43801  -0.43748  -0.43601  -0.43006
 Alpha  occ. eigenvalues --   -0.42870  -0.42829  -0.42671  -0.42560  -0.42333
 Alpha  occ. eigenvalues --   -0.42060  -0.41836  -0.41572  -0.41504  -0.41462
 Alpha  occ. eigenvalues --   -0.41084  -0.40940  -0.40545  -0.40397  -0.39754
 Alpha  occ. eigenvalues --   -0.39652  -0.39260  -0.39157  -0.39036  -0.38888
 Alpha  occ. eigenvalues --   -0.38563  -0.38336  -0.37916  -0.37483  -0.37369
 Alpha  occ. eigenvalues --   -0.37109  -0.36852  -0.36340  -0.36263  -0.36011
 Alpha  occ. eigenvalues --   -0.35772  -0.35605  -0.34653  -0.34339  -0.34127
 Alpha  occ. eigenvalues --   -0.33998  -0.33714  -0.33487  -0.31912  -0.31343
 Alpha  occ. eigenvalues --   -0.30432  -0.30319  -0.29355  -0.28547  -0.24782
 Alpha  occ. eigenvalues --   -0.21427
 Alpha virt. eigenvalues --   -0.09168  -0.02520  -0.00050   0.01230   0.02204
 Alpha virt. eigenvalues --    0.04273   0.04667   0.05069   0.05388   0.06694
 Alpha virt. eigenvalues --    0.07600   0.08027   0.08194   0.08715   0.09187

 Mulliken charges:
               1
     1  Mg   0.808683
     2  C   -0.087104
     3  C   -0.080519
     4  C   -0.069277
     5  C   -0.073731
     6  N   -0.276371
     7  C   -0.060584
     8  C   -0.003179
     9  C   -0.070831
    10  C    0.034764
    11  C    0.085987
    12  C    0.051513
    13  C    0.031579
    14  C    0.176498
    15  O   -0.224102
    16  O   -0.353769
    17  N   -0.383690
    18  C    0.160109
    19  C   -0.152785
    20  C   -0.019687
    21  C    0.112501
    22  C    0.126427
    23  C   -0.011651
    24  O   -0.194402
    25  C    0.047030
    26  N   -0.314322
    27  C    0.105768
    28  C   -0.077716
    29  C   -0.029574
    30  C    0.095822
    31  C    0.087341
    32  C    0.036061
    33  C    0.000651
    34  N   -0.284295
    35  C    0.010580
    36  C   -0.129762
    37  C   -0.048942
    38  C    0.176642
    39  C    0.131674
    40  C    0.007185
    41  O   -0.169715
    42  C    0.039323
    43  C    0.218953
    44  O   -0.221203
    45  O   -0.341749
    46  C    0.172395
    47  C    0.233334
    48  C   -0.105216
    49  C   -0.214733
    50  C    0.099812
    51  C    0.078239
    52  C   -0.004048
    53  C    0.076600
    54  C   -0.100019
    55  C    0.033231
    56  C    0.057569
    57  C    0.015510
    58  C    0.057398
    59  C   -0.143998
    60  C    0.037612
    61  C    0.087229
    62  C   -0.008116
    63  C    0.078353
    64  C   -0.125279
    65  C    0.025568
    66  C    0.054347
    67  H   -0.011759
    68  H   -0.047229
    69  H   -0.030279
    70  H    0.005448
    71  H    0.013330
    72  H    0.015643
    73  H    0.025692
    74  H    0.012536
    75  H    0.024092
    76  H    0.020433
    77  H    0.047220
    78  H    0.041332
    79  H    0.039034
    80  H   -0.001813
    81  H    0.037462
    82  H    0.043893
    83  H    0.046432
    84  H    0.026181
    85  H    0.015684
    86  H    0.001135
    87  H   -0.005772
    88  H    0.022929
    89  H    0.019872
    90  H    0.013225
    91  H    0.008978
    92  H    0.012481
    93  H    0.002551
    94  H    0.023175
    95  H    0.042331
    96  H    0.006020
    97  H    0.032469
    98  H    0.039563
    99  H    0.047748
   100  H    0.032200
   101  H    0.053086
   102  H    0.057874
   103  H    0.038551
   104  H    0.009824
   105  H    0.018666
   106  H    0.029556
   107  H    0.017627
   108  H    0.002679
   109  H   -0.012694
   110  H   -0.004567
   111  H   -0.007843
   112  H   -0.018493
   113  H    0.002880
   114  H    0.002963
   115  H    0.002848
   116  H    0.005705
   117  H    0.006837
   118  H   -0.008690
   119  H   -0.004193
   120  H   -0.000216
   121  H   -0.006004
   122  H   -0.009091
   123  H   -0.030439
   124  H   -0.001731
   125  H   -0.001480
   126  H    0.003465
   127  H    0.013700
   128  H   -0.015414
   129  H   -0.016296
   130  H   -0.002812
   131  H   -0.007280
   132  H   -0.011179
   133  H   -0.022840
   134  H    0.004320
   135  H    0.000125
   136  H    0.003019
   137  H    0.001290
   138  H    0.013379
   139  H   -0.000224
   140  H   -0.001068
 Sum of Mulliken charges =  -0.00000

 Dipole moment (field-independent basis, Debye):
    X=              0.1772    Y=              6.8530    Z=              0.6234  Tot=              6.8835
 Quadrupole moment (field-independent basis, Debye-Ang):
   XX=           -394.6019   YY=           -423.9961   ZZ=           -409.4963
   XY=            -32.7216   XZ=            -23.0894   YZ=            -29.8680

 Normal termination of Gaussian 16 at Fri Apr 29 01:45:27 2022.
