 Gaussian 16, Revision A.03,
 Gaussian 16:  ES64L-G16RevA.03 25-Dec-2016

 ---------------------------------
 #p PBE1PBE/Def2SVP td=(nstates=5)
 ---------------------------------

 ------------------------------------------------------
 step_1801_chromophore_26 TDDFT with PBE1PBE functional
 ------------------------------------------------------
 Symbolic Z-matrix:
 Charge =  0 Multiplicity = 1

                         Standard orientation:
 ---------------------------------------------------------------------
 Center     Atomic      Atomic             Coordinates (Angstroms)
 Number     Number       Type             X           Y           Z
 ---------------------------------------------------------------------
      1         12           0       -4.057097    1.187662    0.722032
      2          6           0       -5.213774   -1.936058   -0.165389
      3          6           0       -2.372754   -0.259676    3.415662
      4          6           0       -2.348828    4.108803    1.075450
      5          6           0       -5.533869    2.374158   -2.353966
      6          7           0       -3.687621   -0.843497    1.460147
      7          6           0       -4.393931   -1.916845    1.010650
      8          6           0       -3.972519   -3.147403    1.742394
      9          6           0       -3.365113   -2.610112    3.078307
     10          6           0       -3.214456   -1.066282    2.664957
     11          6           0       -4.063471   -2.769661    4.434654
     12          6           0       -2.902963   -4.184258    1.009690
     13          6           0       -1.974485   -3.562310    0.055142
     14          6           0       -0.497061   -4.149244   -0.110853
     15          8           0       -0.163189   -5.326816   -0.080950
     16          8           0        0.393786   -3.113271   -0.435717
     17          7           0       -2.610184    1.902959    2.094891
     18          6           0       -2.073894    1.128854    3.120885
     19          6           0       -1.172197    1.985644    3.900141
     20          6           0       -1.098258    3.301602    3.311574
     21          6           0       -2.040402    3.159725    2.119466
     22          6           0       -0.525857    1.505252    5.187696
     23          6           0       -0.277368    4.460310    3.802474
     24          8           0        0.283784    4.348807    4.875468
     25          6           0       -0.148765    5.719690    3.025323
     26          7           0       -3.824282    2.860015   -0.560997
     27          6           0       -3.221323    3.988371   -0.089434
     28          6           0       -3.362416    5.194829   -1.038309
     29          6           0       -4.227892    4.535104   -2.210401
     30          6           0       -4.591198    3.140550   -1.700823
     31          6           0       -4.038488    6.437300   -0.432737
     32          6           0       -3.508374    4.581211   -3.594120
     33          6           0       -4.355479    4.795254   -4.862253
     34          7           0       -5.357612    0.487527   -0.936812
     35          6           0       -5.861718    0.992845   -2.082028
     36          6           0       -6.740501   -0.023297   -2.782043
     37          6           0       -6.403817   -1.153335   -1.980959
     38          6           0       -5.615063   -0.817126   -0.893016
     39          6           0       -7.506154    0.096725   -3.986368
     40          6           0       -6.695140   -2.558699   -2.022720
     41          8           0       -7.310150   -3.257139   -2.813481
     42          6           0       -5.945830   -3.129036   -0.820201
     43          6           0       -6.988295   -3.825434   -0.006427
     44          8           0       -6.887378   -4.958528    0.458138
     45          8           0       -8.116238   -3.061433    0.151338
     46          6           0       -9.247430   -3.639768    0.877767
     47          6           0        1.752944   -3.530246   -0.780798
     48          6           0        2.256589   -2.553593   -1.937412
     49          6           0        3.613995   -2.241754   -2.001003
     50          6           0        4.664999   -2.941179   -1.226065
     51          6           0        4.019362   -1.186694   -2.941499
     52          6           0        4.086024    0.291472   -2.367039
     53          6           0        5.409669    1.074783   -2.593016
     54          6           0        6.039612    1.731761   -1.441291
     55          6           0        6.069384    3.335459   -1.626764
     56          6           0        7.430206    1.045199   -1.213735
     57          6           0        7.683533    0.788801    0.287075
     58          6           0        8.232403   -0.633029    0.553584
     59          6           0        9.588634   -0.634198    1.220300
     60          6           0        9.658518   -1.507239    2.525619
     61          6           0       10.709376   -0.991729    0.253077
     62          6           0       11.783887    0.143190    0.250434
     63          6           0       12.747127    0.079007   -0.865799
     64          6           0       13.925900   -0.970627   -0.522211
     65          6           0       15.238182   -0.242731   -0.422533
     66          6           0       14.029295   -2.138357   -1.530381
     67          1           0       -1.862451   -0.745649    4.250916
     68          1           0       -1.785051    5.032168    1.226079
     69          1           0       -6.072532    2.744276   -3.229200
     70          1           0       -4.910407   -3.657850    1.959303
     71          1           0       -2.319747   -2.916869    3.121992
     72          1           0       -4.141321   -1.910999    5.100938
     73          1           0       -3.548416   -3.532471    5.019158
     74          1           0       -5.113749   -2.981505    4.235334
     75          1           0       -3.536547   -4.917529    0.512737
     76          1           0       -2.288802   -4.723199    1.731892
     77          1           0       -1.969307   -2.528790    0.399561
     78          1           0       -2.418898   -3.699355   -0.930757
     79          1           0        0.517534    1.822282    5.183007
     80          1           0       -0.563924    0.427646    5.343497
     81          1           0       -1.018606    1.923137    6.064725
     82          1           0       -1.104491    6.231056    2.911370
     83          1           0        0.258140    5.552359    2.027741
     84          1           0        0.487772    6.426739    3.559326
     85          1           0       -2.422476    5.598369   -1.413987
     86          1           0       -5.210306    4.981404   -2.361745
     87          1           0       -3.639763    6.409623    0.581167
     88          1           0       -5.115393    6.263034   -0.437642
     89          1           0       -3.653051    7.371880   -0.840041
     90          1           0       -3.107850    3.567313   -3.624244
     91          1           0       -2.686885    5.296920   -3.627976
     92          1           0       -3.757551    5.431213   -5.514494
     93          1           0       -5.275982    5.329147   -4.623662
     94          1           0       -4.695504    3.938086   -5.444325
     95          1           0       -7.262007   -0.759601   -4.615426
     96          1           0       -7.325605    1.054405   -4.475111
     97          1           0       -8.572089    0.027917   -3.773434
     98          1           0       -5.208930   -3.773543   -1.299614
     99          1           0      -10.143606   -3.495864    0.274623
    100          1           0       -9.290361   -3.100991    1.824372
    101          1           0       -9.120164   -4.698788    1.101454
    102          1           0        1.786287   -4.530462   -1.211357
    103          1           0        2.321755   -3.317691    0.124309
    104          1           0        1.524570   -1.912440   -2.430079
    105          1           0        4.184312   -3.815187   -0.785952
    106          1           0        5.145812   -2.366094   -0.435530
    107          1           0        5.432963   -3.149040   -1.971309
    108          1           0        3.304928   -1.148635   -3.764242
    109          1           0        4.977505   -1.487052   -3.365202
    110          1           0        3.735320    0.258716   -1.335357
    111          1           0        3.274694    0.856088   -2.826528
    112          1           0        4.969873    1.879766   -3.180904
    113          1           0        6.020034    0.431683   -3.227774
    114          1           0        5.429795    1.572591   -0.552356
    115          1           0        5.676302    3.878603   -0.767651
    116          1           0        5.454358    3.648007   -2.470071
    117          1           0        7.068978    3.756066   -1.739029
    118          1           0        8.279149    1.639440   -1.551268
    119          1           0        7.532241    0.151436   -1.829245
    120          1           0        6.821493    0.975447    0.928634
    121          1           0        8.430994    1.501784    0.632900
    122          1           0        8.117507   -1.315730   -0.289188
    123          1           0        7.535296   -1.094606    1.252263
    124          1           0        9.700422    0.329487    1.718782
    125          1           0        9.128580   -2.441129    2.335937
    126          1           0        9.062694   -1.027636    3.301694
    127          1           0       10.695629   -1.673766    2.816578
    128          1           0       10.363028   -1.203908   -0.758347
    129          1           0       11.083860   -1.959222    0.587725
    130          1           0       12.374011    0.070890    1.164357
    131          1           0       11.271778    1.103709    0.190726
    132          1           0       13.046195    1.084508   -1.163178
    133          1           0       12.149730   -0.167394   -1.743919
    134          1           0       13.846481   -1.378959    0.485709
    135          1           0       15.551615    0.367942   -1.268460
    136          1           0       16.105628   -0.893162   -0.316485
    137          1           0       15.130705    0.423297    0.434771
    138          1           0       13.730447   -3.074658   -1.058645
    139          1           0       15.014477   -2.241705   -1.987360
    140          1           0       13.393689   -1.926773   -2.390198
 ---------------------------------------------------------------------

 SCF Done:  E(RPBE1PBE) =  -3005.31806624     A.U. after   16 cycles

 Excitation energies and oscillator strengths:

 Excited State   1:      Singlet-A      1.8197 eV  681.33 nm  f=0.3750  <S**2>=0.000
     245 -> 248       -0.16889
     246 -> 247        0.69500
     246 <- 247       -0.11169
 This state for optimization and/or second-order correction.
 Total Energy, E(TD-HF/TD-DFT) =  -3005.25119228
 Copying the excited state density for this state as the 1-particle RhoCI density.

 Excited State   2:      Singlet-A      2.2350 eV  554.74 nm  f=0.0728  <S**2>=0.000
     245 -> 247        0.63551
     246 -> 248        0.29536

 Excited State   3:      Singlet-A      2.8799 eV  430.51 nm  f=0.0009  <S**2>=0.000
     242 -> 247        0.42450
     242 -> 249        0.11268
     243 -> 247        0.53206

 Excited State   4:      Singlet-A      2.9164 eV  425.13 nm  f=0.0000  <S**2>=0.000
     244 -> 247        0.70695

 Excited State   5:      Singlet-A      2.9786 eV  416.25 nm  f=0.0005  <S**2>=0.000
     241 -> 247        0.23929
     242 -> 247        0.51534
     243 -> 247       -0.40614

 The electronic state is 1-A.
 Alpha  occ. eigenvalues --  -46.93994 -19.25731 -19.25051 -19.20507 -19.19918
 Alpha  occ. eigenvalues --  -19.19257 -19.18833 -14.42635 -14.42465 -14.40221
 Alpha  occ. eigenvalues --  -14.39036 -10.36920 -10.36820 -10.32551 -10.31161
 Alpha  occ. eigenvalues --  -10.30448 -10.29709 -10.29296 -10.29165 -10.28946
 Alpha  occ. eigenvalues --  -10.28946 -10.28881 -10.28854 -10.28063 -10.26989
 Alpha  occ. eigenvalues --  -10.26841 -10.26254 -10.26169 -10.26124 -10.26065
 Alpha  occ. eigenvalues --  -10.26047 -10.25976 -10.25868 -10.25810 -10.25443
 Alpha  occ. eigenvalues --  -10.25435 -10.25023 -10.24930 -10.24490 -10.24207
 Alpha  occ. eigenvalues --  -10.24171 -10.23967 -10.23965 -10.23912 -10.23674
 Alpha  occ. eigenvalues --  -10.23534 -10.23437 -10.23399 -10.23269 -10.23198
 Alpha  occ. eigenvalues --  -10.23173 -10.22709 -10.22631 -10.22456 -10.22307
 Alpha  occ. eigenvalues --  -10.22278 -10.22216 -10.22059 -10.21973 -10.21936
 Alpha  occ. eigenvalues --  -10.21931 -10.21744 -10.21687 -10.21669 -10.21446
 Alpha  occ. eigenvalues --  -10.21258  -3.15869  -1.88698  -1.88246  -1.88084
 Alpha  occ. eigenvalues --   -1.11015  -1.09877  -1.05609  -1.04391  -1.02155
 Alpha  occ. eigenvalues --   -1.02127  -1.00452  -0.99252  -0.97674  -0.96621
 Alpha  occ. eigenvalues --   -0.87911  -0.84576  -0.84057  -0.83547  -0.83149
 Alpha  occ. eigenvalues --   -0.82875  -0.82691  -0.82020  -0.81682  -0.81421
 Alpha  occ. eigenvalues --   -0.80369  -0.79837  -0.78550  -0.78298  -0.78110
 Alpha  occ. eigenvalues --   -0.76719  -0.76481  -0.75796  -0.75131  -0.74940
 Alpha  occ. eigenvalues --   -0.73799  -0.72724  -0.72117  -0.71728  -0.70909
 Alpha  occ. eigenvalues --   -0.70209  -0.69610  -0.69342  -0.68917  -0.68605
 Alpha  occ. eigenvalues --   -0.67266  -0.66705  -0.66347  -0.64094  -0.63608
 Alpha  occ. eigenvalues --   -0.63154  -0.62492  -0.61822  -0.60648  -0.60344
 Alpha  occ. eigenvalues --   -0.59986  -0.59699  -0.59208  -0.58835  -0.58091
 Alpha  occ. eigenvalues --   -0.57812  -0.57759  -0.57640  -0.56747  -0.54847
 Alpha  occ. eigenvalues --   -0.54496  -0.53474  -0.53322  -0.53121  -0.52607
 Alpha  occ. eigenvalues --   -0.52463  -0.51861  -0.50956  -0.50876  -0.50613
 Alpha  occ. eigenvalues --   -0.50028  -0.49606  -0.49096  -0.48876  -0.48582
 Alpha  occ. eigenvalues --   -0.48125  -0.47859  -0.47826  -0.47571  -0.47299
 Alpha  occ. eigenvalues --   -0.46923  -0.46786  -0.46674  -0.46510  -0.46481
 Alpha  occ. eigenvalues --   -0.46055  -0.46023  -0.45613  -0.45511  -0.45387
 Alpha  occ. eigenvalues --   -0.45281  -0.44939  -0.44802  -0.44483  -0.44298
 Alpha  occ. eigenvalues --   -0.44007  -0.43849  -0.43695  -0.43492  -0.43475
 Alpha  occ. eigenvalues --   -0.43254  -0.43083  -0.42878  -0.42772  -0.42430
 Alpha  occ. eigenvalues --   -0.42303  -0.41956  -0.41788  -0.41421  -0.41387
 Alpha  occ. eigenvalues --   -0.41233  -0.41017  -0.40959  -0.40702  -0.40592
 Alpha  occ. eigenvalues --   -0.40534  -0.40373  -0.40174  -0.39966  -0.39816
 Alpha  occ. eigenvalues --   -0.39568  -0.39485  -0.39283  -0.39056  -0.38974
 Alpha  occ. eigenvalues --   -0.38787  -0.38516  -0.38379  -0.38341  -0.37809
 Alpha  occ. eigenvalues --   -0.37588  -0.37505  -0.37425  -0.37381  -0.37169
 Alpha  occ. eigenvalues --   -0.36895  -0.36658  -0.36481  -0.36389  -0.36319
 Alpha  occ. eigenvalues --   -0.35837  -0.35807  -0.35445  -0.35183  -0.34584
 Alpha  occ. eigenvalues --   -0.34507  -0.34007  -0.33961  -0.33870  -0.33652
 Alpha  occ. eigenvalues --   -0.33274  -0.33259  -0.32684  -0.32556  -0.32418
 Alpha  occ. eigenvalues --   -0.31929  -0.31654  -0.31277  -0.31181  -0.30897
 Alpha  occ. eigenvalues --   -0.30833  -0.30561  -0.29784  -0.29249  -0.29194
 Alpha  occ. eigenvalues --   -0.28970  -0.28881  -0.28625  -0.27027  -0.26394
 Alpha  occ. eigenvalues --   -0.25789  -0.25388  -0.25186  -0.23883  -0.21641
 Alpha  occ. eigenvalues --   -0.19078
 Alpha virt. eigenvalues --   -0.11650  -0.06012  -0.04244  -0.02270  -0.01443
 Alpha virt. eigenvalues --    0.00146   0.00201   0.00476   0.00728   0.02567
 Alpha virt. eigenvalues --    0.03802   0.04038   0.04874   0.05267   0.05839

 Mulliken charges:
               1
     1  Mg   0.946317
     2  C   -0.084329
     3  C   -0.063453
     4  C   -0.063823
     5  C   -0.067870
     6  N   -0.377239
     7  C    0.000370
     8  C   -0.066649
     9  C   -0.148319
    10  C    0.065414
    11  C    0.029887
    12  C    0.003219
    13  C   -0.054028
    14  C    0.243272
    15  O   -0.256769
    16  O   -0.382350
    17  N   -0.493397
    18  C    0.180161
    19  C   -0.182191
    20  C   -0.063209
    21  C    0.139389
    22  C    0.069269
    23  C    0.034193
    24  O   -0.231079
    25  C   -0.026415
    26  N   -0.415405
    27  C    0.134312
    28  C   -0.152769
    29  C   -0.098847
    30  C    0.122863
    31  C    0.028165
    32  C   -0.023360
    33  C   -0.071384
    34  N   -0.409677
    35  C    0.042961
    36  C   -0.135958
    37  C   -0.108227
    38  C    0.233660
    39  C    0.072893
    40  C    0.106601
    41  O   -0.216690
    42  C   -0.071762
    43  C    0.305262
    44  O   -0.258551
    45  O   -0.371876
    46  C    0.119497
    47  C    0.190455
    48  C   -0.114496
    49  C   -0.255680
    50  C    0.033769
    51  C    0.012171
    52  C   -0.055792
    53  C    0.014480
    54  C   -0.186174
    55  C   -0.023937
    56  C    0.008806
    57  C   -0.045450
    58  C    0.003450
    59  C   -0.228826
    60  C   -0.026574
    61  C    0.041050
    62  C   -0.082759
    63  C    0.027744
    64  C   -0.220771
    65  C   -0.034045
    66  C   -0.003588
    67  H    0.017797
    68  H   -0.012322
    69  H    0.004040
    70  H    0.047446
    71  H    0.050709
    72  H    0.042506
    73  H    0.052475
    74  H    0.039590
    75  H    0.055922
    76  H    0.052528
    77  H    0.084843
    78  H    0.074768
    79  H    0.065186
    80  H    0.024581
    81  H    0.063863
    82  H    0.069038
    83  H    0.071723
    84  H    0.053687
    85  H    0.050589
    86  H    0.037964
    87  H    0.024716
    88  H    0.049861
    89  H    0.047201
    90  H    0.048086
    91  H    0.041219
    92  H    0.040916
    93  H    0.030021
    94  H    0.049220
    95  H    0.070587
    96  H    0.034848
    97  H    0.062135
    98  H    0.077838
    99  H    0.069082
   100  H    0.054712
   101  H    0.073325
   102  H    0.084366
   103  H    0.065964
   104  H    0.038710
   105  H    0.046354
   106  H    0.058716
   107  H    0.045013
   108  H    0.035219
   109  H    0.019038
   110  H    0.027675
   111  H    0.024261
   112  H    0.016041
   113  H    0.033539
   114  H    0.041059
   115  H    0.030310
   116  H    0.031700
   117  H    0.033433
   118  H    0.023672
   119  H    0.026589
   120  H    0.030686
   121  H    0.026197
   122  H    0.021530
   123  H    0.004373
   124  H    0.035850
   125  H    0.027289
   126  H    0.031948
   127  H    0.041379
   128  H    0.015678
   129  H    0.016470
   130  H    0.031571
   131  H    0.026965
   132  H    0.020179
   133  H    0.009190
   134  H    0.040242
   135  H    0.027943
   136  H    0.031048
   137  H    0.030285
   138  H    0.040154
   139  H    0.026617
   140  H    0.026135
 Sum of Mulliken charges =  -0.00000

 Dipole moment (field-independent basis, Debye):
    X=             -0.2110    Y=              6.7162    Z=              0.1458  Tot=              6.7211
 Quadrupole moment (field-independent basis, Debye-Ang):
   XX=           -388.5231   YY=           -420.7337   ZZ=           -406.3716
   XY=            -32.6309   XZ=            -20.7925   YZ=            -31.7930

 Normal termination of Gaussian 16 at Fri Apr 29 02:05:12 2022.
