 Gaussian 16, Revision A.03,
 Gaussian 16:  ES64L-G16RevA.03 25-Dec-2016

 --------------------------------
 #p wB97XD/Def2SVP td=(nstates=5)
 --------------------------------

 -----------------------------------------------------
 step_1801_chromophore_26 TDDFT with wB97XD functional
 -----------------------------------------------------
 Symbolic Z-matrix:
 Charge =  0 Multiplicity = 1

                         Standard orientation:
 ---------------------------------------------------------------------
 Center     Atomic      Atomic             Coordinates (Angstroms)
 Number     Number       Type             X           Y           Z
 ---------------------------------------------------------------------
      1         12           0       -4.057097    1.187662    0.722032
      2          6           0       -5.213774   -1.936058   -0.165389
      3          6           0       -2.372754   -0.259676    3.415662
      4          6           0       -2.348828    4.108803    1.075450
      5          6           0       -5.533869    2.374158   -2.353966
      6          7           0       -3.687621   -0.843497    1.460147
      7          6           0       -4.393931   -1.916845    1.010650
      8          6           0       -3.972519   -3.147403    1.742394
      9          6           0       -3.365113   -2.610112    3.078307
     10          6           0       -3.214456   -1.066282    2.664957
     11          6           0       -4.063471   -2.769661    4.434654
     12          6           0       -2.902963   -4.184258    1.009690
     13          6           0       -1.974485   -3.562310    0.055142
     14          6           0       -0.497061   -4.149244   -0.110853
     15          8           0       -0.163189   -5.326816   -0.080950
     16          8           0        0.393786   -3.113271   -0.435717
     17          7           0       -2.610184    1.902959    2.094891
     18          6           0       -2.073894    1.128854    3.120885
     19          6           0       -1.172197    1.985644    3.900141
     20          6           0       -1.098258    3.301602    3.311574
     21          6           0       -2.040402    3.159725    2.119466
     22          6           0       -0.525857    1.505252    5.187696
     23          6           0       -0.277368    4.460310    3.802474
     24          8           0        0.283784    4.348807    4.875468
     25          6           0       -0.148765    5.719690    3.025323
     26          7           0       -3.824282    2.860015   -0.560997
     27          6           0       -3.221323    3.988371   -0.089434
     28          6           0       -3.362416    5.194829   -1.038309
     29          6           0       -4.227892    4.535104   -2.210401
     30          6           0       -4.591198    3.140550   -1.700823
     31          6           0       -4.038488    6.437300   -0.432737
     32          6           0       -3.508374    4.581211   -3.594120
     33          6           0       -4.355479    4.795254   -4.862253
     34          7           0       -5.357612    0.487527   -0.936812
     35          6           0       -5.861718    0.992845   -2.082028
     36          6           0       -6.740501   -0.023297   -2.782043
     37          6           0       -6.403817   -1.153335   -1.980959
     38          6           0       -5.615063   -0.817126   -0.893016
     39          6           0       -7.506154    0.096725   -3.986368
     40          6           0       -6.695140   -2.558699   -2.022720
     41          8           0       -7.310150   -3.257139   -2.813481
     42          6           0       -5.945830   -3.129036   -0.820201
     43          6           0       -6.988295   -3.825434   -0.006427
     44          8           0       -6.887378   -4.958528    0.458138
     45          8           0       -8.116238   -3.061433    0.151338
     46          6           0       -9.247430   -3.639768    0.877767
     47          6           0        1.752944   -3.530246   -0.780798
     48          6           0        2.256589   -2.553593   -1.937412
     49          6           0        3.613995   -2.241754   -2.001003
     50          6           0        4.664999   -2.941179   -1.226065
     51          6           0        4.019362   -1.186694   -2.941499
     52          6           0        4.086024    0.291472   -2.367039
     53          6           0        5.409669    1.074783   -2.593016
     54          6           0        6.039612    1.731761   -1.441291
     55          6           0        6.069384    3.335459   -1.626764
     56          6           0        7.430206    1.045199   -1.213735
     57          6           0        7.683533    0.788801    0.287075
     58          6           0        8.232403   -0.633029    0.553584
     59          6           0        9.588634   -0.634198    1.220300
     60          6           0        9.658518   -1.507239    2.525619
     61          6           0       10.709376   -0.991729    0.253077
     62          6           0       11.783887    0.143190    0.250434
     63          6           0       12.747127    0.079007   -0.865799
     64          6           0       13.925900   -0.970627   -0.522211
     65          6           0       15.238182   -0.242731   -0.422533
     66          6           0       14.029295   -2.138357   -1.530381
     67          1           0       -1.862451   -0.745649    4.250916
     68          1           0       -1.785051    5.032168    1.226079
     69          1           0       -6.072532    2.744276   -3.229200
     70          1           0       -4.910407   -3.657850    1.959303
     71          1           0       -2.319747   -2.916869    3.121992
     72          1           0       -4.141321   -1.910999    5.100938
     73          1           0       -3.548416   -3.532471    5.019158
     74          1           0       -5.113749   -2.981505    4.235334
     75          1           0       -3.536547   -4.917529    0.512737
     76          1           0       -2.288802   -4.723199    1.731892
     77          1           0       -1.969307   -2.528790    0.399561
     78          1           0       -2.418898   -3.699355   -0.930757
     79          1           0        0.517534    1.822282    5.183007
     80          1           0       -0.563924    0.427646    5.343497
     81          1           0       -1.018606    1.923137    6.064725
     82          1           0       -1.104491    6.231056    2.911370
     83          1           0        0.258140    5.552359    2.027741
     84          1           0        0.487772    6.426739    3.559326
     85          1           0       -2.422476    5.598369   -1.413987
     86          1           0       -5.210306    4.981404   -2.361745
     87          1           0       -3.639763    6.409623    0.581167
     88          1           0       -5.115393    6.263034   -0.437642
     89          1           0       -3.653051    7.371880   -0.840041
     90          1           0       -3.107850    3.567313   -3.624244
     91          1           0       -2.686885    5.296920   -3.627976
     92          1           0       -3.757551    5.431213   -5.514494
     93          1           0       -5.275982    5.329147   -4.623662
     94          1           0       -4.695504    3.938086   -5.444325
     95          1           0       -7.262007   -0.759601   -4.615426
     96          1           0       -7.325605    1.054405   -4.475111
     97          1           0       -8.572089    0.027917   -3.773434
     98          1           0       -5.208930   -3.773543   -1.299614
     99          1           0      -10.143606   -3.495864    0.274623
    100          1           0       -9.290361   -3.100991    1.824372
    101          1           0       -9.120164   -4.698788    1.101454
    102          1           0        1.786287   -4.530462   -1.211357
    103          1           0        2.321755   -3.317691    0.124309
    104          1           0        1.524570   -1.912440   -2.430079
    105          1           0        4.184312   -3.815187   -0.785952
    106          1           0        5.145812   -2.366094   -0.435530
    107          1           0        5.432963   -3.149040   -1.971309
    108          1           0        3.304928   -1.148635   -3.764242
    109          1           0        4.977505   -1.487052   -3.365202
    110          1           0        3.735320    0.258716   -1.335357
    111          1           0        3.274694    0.856088   -2.826528
    112          1           0        4.969873    1.879766   -3.180904
    113          1           0        6.020034    0.431683   -3.227774
    114          1           0        5.429795    1.572591   -0.552356
    115          1           0        5.676302    3.878603   -0.767651
    116          1           0        5.454358    3.648007   -2.470071
    117          1           0        7.068978    3.756066   -1.739029
    118          1           0        8.279149    1.639440   -1.551268
    119          1           0        7.532241    0.151436   -1.829245
    120          1           0        6.821493    0.975447    0.928634
    121          1           0        8.430994    1.501784    0.632900
    122          1           0        8.117507   -1.315730   -0.289188
    123          1           0        7.535296   -1.094606    1.252263
    124          1           0        9.700422    0.329487    1.718782
    125          1           0        9.128580   -2.441129    2.335937
    126          1           0        9.062694   -1.027636    3.301694
    127          1           0       10.695629   -1.673766    2.816578
    128          1           0       10.363028   -1.203908   -0.758347
    129          1           0       11.083860   -1.959222    0.587725
    130          1           0       12.374011    0.070890    1.164357
    131          1           0       11.271778    1.103709    0.190726
    132          1           0       13.046195    1.084508   -1.163178
    133          1           0       12.149730   -0.167394   -1.743919
    134          1           0       13.846481   -1.378959    0.485709
    135          1           0       15.551615    0.367942   -1.268460
    136          1           0       16.105628   -0.893162   -0.316485
    137          1           0       15.130705    0.423297    0.434771
    138          1           0       13.730447   -3.074658   -1.058645
    139          1           0       15.014477   -2.241705   -1.987360
    140          1           0       13.393689   -1.926773   -2.390198
 ---------------------------------------------------------------------

 SCF Done:  E(RwB97XD) =  -3007.82517035     A.U. after   17 cycles

 Excitation energies and oscillator strengths:

 Excited State   1:      Singlet-A      1.6416 eV  755.26 nm  f=0.3862  <S**2>=0.000
     245 -> 248       -0.17640
     246 -> 247        0.68548
     245 <- 248       -0.11296
 This state for optimization and/or second-order correction.
 Total Energy, E(TD-HF/TD-DFT) =  -3007.76484253
 Copying the excited state density for this state as the 1-particle RhoCI density.

 Excited State   2:      Singlet-A      2.1856 eV  567.28 nm  f=0.0718  <S**2>=0.000
     245 -> 247        0.62031
     246 -> 248        0.32111

 Excited State   3:      Singlet-A      3.3417 eV  371.02 nm  f=0.0938  <S**2>=0.000
     241 -> 247        0.59454
     243 -> 247       -0.15408
     245 -> 247        0.10161
     246 -> 248       -0.30500

 Excited State   4:      Singlet-A      3.4337 eV  361.08 nm  f=0.1661  <S**2>=0.000
     243 -> 247        0.54415
     245 -> 247        0.16543
     246 -> 248       -0.37943

 Excited State   5:      Singlet-A      3.5416 eV  350.08 nm  f=0.1040  <S**2>=0.000
     241 -> 247        0.16772
     242 -> 247        0.46725
     242 -> 249        0.26833
     242 -> 250       -0.18831
     243 -> 247        0.22382
     245 -> 247       -0.13035
     246 -> 248        0.17589

 The electronic state is 1-A.
 Alpha  occ. eigenvalues --  -46.96986 -19.30213 -19.29556 -19.25140 -19.24520
 Alpha  occ. eigenvalues --  -19.24341 -19.23408 -14.47770 -14.47526 -14.45361
 Alpha  occ. eigenvalues --  -14.43812 -10.43662 -10.43562 -10.39651 -10.37799
 Alpha  occ. eigenvalues --  -10.37059 -10.36526 -10.35658 -10.35619 -10.35435
 Alpha  occ. eigenvalues --  -10.35366 -10.35315 -10.34973 -10.33948 -10.33913
 Alpha  occ. eigenvalues --  -10.33145 -10.32551 -10.32538 -10.32386 -10.32345
 Alpha  occ. eigenvalues --  -10.32327 -10.32155 -10.32149 -10.32066 -10.32062
 Alpha  occ. eigenvalues --  -10.31561 -10.31328 -10.31242 -10.30760 -10.30722
 Alpha  occ. eigenvalues --  -10.30553 -10.30419 -10.30394 -10.30378 -10.30051
 Alpha  occ. eigenvalues --  -10.29828 -10.29811 -10.29747 -10.29743 -10.29652
 Alpha  occ. eigenvalues --  -10.29497 -10.29076 -10.29009 -10.28750 -10.28663
 Alpha  occ. eigenvalues --  -10.28659 -10.28449 -10.28346 -10.28327 -10.28325
 Alpha  occ. eigenvalues --  -10.28300 -10.28139 -10.28117 -10.28044 -10.27883
 Alpha  occ. eigenvalues --  -10.27719  -3.22746  -1.96319  -1.95867  -1.95703
 Alpha  occ. eigenvalues --   -1.18330  -1.17219  -1.13350  -1.11652  -1.09459
 Alpha  occ. eigenvalues --   -1.09406  -1.07837  -1.06326  -1.05146  -1.04269
 Alpha  occ. eigenvalues --   -0.95359  -0.92254  -0.91733  -0.91153  -0.90744
 Alpha  occ. eigenvalues --   -0.90548  -0.90377  -0.89594  -0.89354  -0.88835
 Alpha  occ. eigenvalues --   -0.88346  -0.87543  -0.86244  -0.85877  -0.85792
 Alpha  occ. eigenvalues --   -0.84515  -0.84152  -0.83375  -0.82781  -0.82564
 Alpha  occ. eigenvalues --   -0.81453  -0.80277  -0.79679  -0.79544  -0.78479
 Alpha  occ. eigenvalues --   -0.77901  -0.77246  -0.77057  -0.76613  -0.76291
 Alpha  occ. eigenvalues --   -0.74791  -0.74285  -0.73897  -0.71745  -0.71091
 Alpha  occ. eigenvalues --   -0.70709  -0.70086  -0.69463  -0.68232  -0.67897
 Alpha  occ. eigenvalues --   -0.67479  -0.67163  -0.66861  -0.66281  -0.65780
 Alpha  occ. eigenvalues --   -0.65478  -0.65319  -0.65102  -0.64184  -0.62148
 Alpha  occ. eigenvalues --   -0.62021  -0.61024  -0.60816  -0.60485  -0.60089
 Alpha  occ. eigenvalues --   -0.59899  -0.59291  -0.58380  -0.58345  -0.57989
 Alpha  occ. eigenvalues --   -0.57391  -0.56987  -0.56511  -0.56179  -0.55997
 Alpha  occ. eigenvalues --   -0.55514  -0.55294  -0.55087  -0.54937  -0.54690
 Alpha  occ. eigenvalues --   -0.54563  -0.54343  -0.54040  -0.53886  -0.53718
 Alpha  occ. eigenvalues --   -0.53391  -0.53333  -0.52910  -0.52805  -0.52729
 Alpha  occ. eigenvalues --   -0.52616  -0.52297  -0.52221  -0.51944  -0.51668
 Alpha  occ. eigenvalues --   -0.51474  -0.51143  -0.51023  -0.50688  -0.50633
 Alpha  occ. eigenvalues --   -0.50593  -0.50360  -0.50230  -0.50044  -0.49652
 Alpha  occ. eigenvalues --   -0.49574  -0.49200  -0.48925  -0.48671  -0.48640
 Alpha  occ. eigenvalues --   -0.48447  -0.48363  -0.48207  -0.48024  -0.47881
 Alpha  occ. eigenvalues --   -0.47733  -0.47466  -0.47289  -0.47083  -0.47019
 Alpha  occ. eigenvalues --   -0.46780  -0.46669  -0.46365  -0.46197  -0.46171
 Alpha  occ. eigenvalues --   -0.45944  -0.45739  -0.45586  -0.45541  -0.44953
 Alpha  occ. eigenvalues --   -0.44905  -0.44713  -0.44542  -0.44497  -0.44248
 Alpha  occ. eigenvalues --   -0.43954  -0.43742  -0.43511  -0.43417  -0.43372
 Alpha  occ. eigenvalues --   -0.42940  -0.42825  -0.42438  -0.42293  -0.41603
 Alpha  occ. eigenvalues --   -0.41520  -0.41095  -0.40984  -0.40937  -0.40740
 Alpha  occ. eigenvalues --   -0.40369  -0.40286  -0.39741  -0.39571  -0.39292
 Alpha  occ. eigenvalues --   -0.38969  -0.38720  -0.38260  -0.38185  -0.37896
 Alpha  occ. eigenvalues --   -0.37746  -0.37527  -0.36661  -0.36156  -0.36071
 Alpha  occ. eigenvalues --   -0.35916  -0.35706  -0.35540  -0.33919  -0.33536
 Alpha  occ. eigenvalues --   -0.32688  -0.32230  -0.31472  -0.30563  -0.26722
 Alpha  occ. eigenvalues --   -0.23230
 Alpha virt. eigenvalues --   -0.07505  -0.00611   0.02002   0.04216   0.04503
 Alpha virt. eigenvalues --    0.06787   0.06944   0.07356   0.07630   0.09196
 Alpha virt. eigenvalues --    0.10334   0.10762   0.11584   0.11969   0.12515

 Mulliken charges:
               1
     1  Mg   0.941331
     2  C   -0.091563
     3  C   -0.086198
     4  C   -0.080571
     5  C   -0.080621
     6  N   -0.343752
     7  C   -0.031743
     8  C   -0.040386
     9  C   -0.120965
    10  C    0.055267
    11  C    0.037785
    12  C    0.009376
    13  C   -0.026680
    14  C    0.233831
    15  O   -0.254874
    16  O   -0.382395
    17  N   -0.464671
    18  C    0.177072
    19  C   -0.169929
    20  C   -0.060478
    21  C    0.139782
    22  C    0.079854
    23  C    0.033848
    24  O   -0.224962
    25  C   -0.016630
    26  N   -0.385987
    27  C    0.129513
    28  C   -0.129887
    29  C   -0.072410
    30  C    0.113611
    31  C    0.040593
    32  C   -0.010105
    33  C   -0.055297
    34  N   -0.368562
    35  C    0.024552
    36  C   -0.137273
    37  C   -0.100665
    38  C    0.209530
    39  C    0.085123
    40  C    0.088682
    41  O   -0.207456
    42  C   -0.034071
    43  C    0.284040
    44  O   -0.253241
    45  O   -0.371912
    46  C    0.134809
    47  C    0.204571
    48  C   -0.126351
    49  C   -0.240340
    50  C    0.048143
    51  C    0.031421
    52  C   -0.044088
    53  C    0.035360
    54  C   -0.159001
    55  C   -0.010198
    56  C    0.022930
    57  C   -0.027360
    58  C    0.015859
    59  C   -0.197617
    60  C   -0.011527
    61  C    0.049038
    62  C   -0.054215
    63  C    0.038588
    64  C   -0.190887
    65  C   -0.021979
    66  C    0.007104
    67  H    0.012396
    68  H   -0.025705
    69  H   -0.003753
    70  H    0.033455
    71  H    0.038904
    72  H    0.036602
    73  H    0.048205
    74  H    0.034626
    75  H    0.050060
    76  H    0.044840
    77  H    0.069620
    78  H    0.068069
    79  H    0.062181
    80  H    0.021272
    81  H    0.061702
    82  H    0.064567
    83  H    0.068104
    84  H    0.053600
    85  H    0.042324
    86  H    0.023984
    87  H    0.014541
    88  H    0.045093
    89  H    0.043463
    90  H    0.038187
    91  H    0.032998
    92  H    0.035464
    93  H    0.022764
    94  H    0.044246
    95  H    0.064870
    96  H    0.027963
    97  H    0.055752
    98  H    0.070941
    99  H    0.065414
   100  H    0.050147
   101  H    0.069471
   102  H    0.079740
   103  H    0.059487
   104  H    0.036824
   105  H    0.040233
   106  H    0.053053
   107  H    0.038867
   108  H    0.028848
   109  H    0.008869
   110  H    0.017141
   111  H    0.017742
   112  H    0.005526
   113  H    0.024097
   114  H    0.025960
   115  H    0.024542
   116  H    0.025192
   117  H    0.027407
   118  H    0.015506
   119  H    0.014407
   120  H    0.023047
   121  H    0.016213
   122  H    0.012450
   123  H   -0.004986
   124  H    0.020809
   125  H    0.019944
   126  H    0.026033
   127  H    0.035397
   128  H    0.006129
   129  H    0.007180
   130  H    0.018772
   131  H    0.017147
   132  H    0.013875
   133  H   -0.001059
   134  H    0.028935
   135  H    0.021460
   136  H    0.025260
   137  H    0.022992
   138  H    0.035236
   139  H    0.021277
   140  H    0.019314
 Sum of Mulliken charges =  -0.00000

 Dipole moment (field-independent basis, Debye):
    X=              0.2769    Y=              7.0622    Z=              0.7972  Tot=              7.1125
 Quadrupole moment (field-independent basis, Debye-Ang):
   XX=           -391.1928   YY=           -419.9711   ZZ=           -405.3024
   XY=            -32.9559   XZ=            -23.0790   YZ=            -30.3869

 Normal termination of Gaussian 16 at Fri Apr 29 02:32:19 2022.
