 Gaussian 16, Revision A.03,
 Gaussian 16:  ES64L-G16RevA.03 25-Dec-2016

 --------------------
 #p ZINDO=(nstates=5)
 --------------------

 ------------------------------
 step_1801_chromophore_26 ZINDO
 ------------------------------
 Symbolic Z-matrix:
 Charge =  0 Multiplicity = 1

                         Standard orientation:
 ---------------------------------------------------------------------
 Center     Atomic      Atomic             Coordinates (Angstroms)
 Number     Number       Type             X           Y           Z
 ---------------------------------------------------------------------
      1         12           0       -4.057097    1.187662    0.722032
      2          6           0       -5.213774   -1.936058   -0.165389
      3          6           0       -2.372754   -0.259676    3.415662
      4          6           0       -2.348828    4.108803    1.075450
      5          6           0       -5.533869    2.374158   -2.353966
      6          7           0       -3.687621   -0.843497    1.460147
      7          6           0       -4.393931   -1.916845    1.010650
      8          6           0       -3.972519   -3.147403    1.742394
      9          6           0       -3.365113   -2.610112    3.078307
     10          6           0       -3.214456   -1.066282    2.664957
     11          6           0       -4.063471   -2.769661    4.434654
     12          6           0       -2.902963   -4.184258    1.009690
     13          6           0       -1.974485   -3.562310    0.055142
     14          6           0       -0.497061   -4.149244   -0.110853
     15          8           0       -0.163189   -5.326816   -0.080950
     16          8           0        0.393786   -3.113271   -0.435717
     17          7           0       -2.610184    1.902959    2.094891
     18          6           0       -2.073894    1.128854    3.120885
     19          6           0       -1.172197    1.985644    3.900141
     20          6           0       -1.098258    3.301602    3.311574
     21          6           0       -2.040402    3.159725    2.119466
     22          6           0       -0.525857    1.505252    5.187696
     23          6           0       -0.277368    4.460310    3.802474
     24          8           0        0.283784    4.348807    4.875468
     25          6           0       -0.148765    5.719690    3.025323
     26          7           0       -3.824282    2.860015   -0.560997
     27          6           0       -3.221323    3.988371   -0.089434
     28          6           0       -3.362416    5.194829   -1.038309
     29          6           0       -4.227892    4.535104   -2.210401
     30          6           0       -4.591198    3.140550   -1.700823
     31          6           0       -4.038488    6.437300   -0.432737
     32          6           0       -3.508374    4.581211   -3.594120
     33          6           0       -4.355479    4.795254   -4.862253
     34          7           0       -5.357612    0.487527   -0.936812
     35          6           0       -5.861718    0.992845   -2.082028
     36          6           0       -6.740501   -0.023297   -2.782043
     37          6           0       -6.403817   -1.153335   -1.980959
     38          6           0       -5.615063   -0.817126   -0.893016
     39          6           0       -7.506154    0.096725   -3.986368
     40          6           0       -6.695140   -2.558699   -2.022720
     41          8           0       -7.310150   -3.257139   -2.813481
     42          6           0       -5.945830   -3.129036   -0.820201
     43          6           0       -6.988295   -3.825434   -0.006427
     44          8           0       -6.887378   -4.958528    0.458138
     45          8           0       -8.116238   -3.061433    0.151338
     46          6           0       -9.247430   -3.639768    0.877767
     47          6           0        1.752944   -3.530246   -0.780798
     48          6           0        2.256589   -2.553593   -1.937412
     49          6           0        3.613995   -2.241754   -2.001003
     50          6           0        4.664999   -2.941179   -1.226065
     51          6           0        4.019362   -1.186694   -2.941499
     52          6           0        4.086024    0.291472   -2.367039
     53          6           0        5.409669    1.074783   -2.593016
     54          6           0        6.039612    1.731761   -1.441291
     55          6           0        6.069384    3.335459   -1.626764
     56          6           0        7.430206    1.045199   -1.213735
     57          6           0        7.683533    0.788801    0.287075
     58          6           0        8.232403   -0.633029    0.553584
     59          6           0        9.588634   -0.634198    1.220300
     60          6           0        9.658518   -1.507239    2.525619
     61          6           0       10.709376   -0.991729    0.253077
     62          6           0       11.783887    0.143190    0.250434
     63          6           0       12.747127    0.079007   -0.865799
     64          6           0       13.925900   -0.970627   -0.522211
     65          6           0       15.238182   -0.242731   -0.422533
     66          6           0       14.029295   -2.138357   -1.530381
     67          1           0       -1.862451   -0.745649    4.250916
     68          1           0       -1.785051    5.032168    1.226079
     69          1           0       -6.072532    2.744276   -3.229200
     70          1           0       -4.910407   -3.657850    1.959303
     71          1           0       -2.319747   -2.916869    3.121992
     72          1           0       -4.141321   -1.910999    5.100938
     73          1           0       -3.548416   -3.532471    5.019158
     74          1           0       -5.113749   -2.981505    4.235334
     75          1           0       -3.536547   -4.917529    0.512737
     76          1           0       -2.288802   -4.723199    1.731892
     77          1           0       -1.969307   -2.528790    0.399561
     78          1           0       -2.418898   -3.699355   -0.930757
     79          1           0        0.517534    1.822282    5.183007
     80          1           0       -0.563924    0.427646    5.343497
     81          1           0       -1.018606    1.923137    6.064725
     82          1           0       -1.104491    6.231056    2.911370
     83          1           0        0.258140    5.552359    2.027741
     84          1           0        0.487772    6.426739    3.559326
     85          1           0       -2.422476    5.598369   -1.413987
     86          1           0       -5.210306    4.981404   -2.361745
     87          1           0       -3.639763    6.409623    0.581167
     88          1           0       -5.115393    6.263034   -0.437642
     89          1           0       -3.653051    7.371880   -0.840041
     90          1           0       -3.107850    3.567313   -3.624244
     91          1           0       -2.686885    5.296920   -3.627976
     92          1           0       -3.757551    5.431213   -5.514494
     93          1           0       -5.275982    5.329147   -4.623662
     94          1           0       -4.695504    3.938086   -5.444325
     95          1           0       -7.262007   -0.759601   -4.615426
     96          1           0       -7.325605    1.054405   -4.475111
     97          1           0       -8.572089    0.027917   -3.773434
     98          1           0       -5.208930   -3.773543   -1.299614
     99          1           0      -10.143606   -3.495864    0.274623
    100          1           0       -9.290361   -3.100991    1.824372
    101          1           0       -9.120164   -4.698788    1.101454
    102          1           0        1.786287   -4.530462   -1.211357
    103          1           0        2.321755   -3.317691    0.124309
    104          1           0        1.524570   -1.912440   -2.430079
    105          1           0        4.184312   -3.815187   -0.785952
    106          1           0        5.145812   -2.366094   -0.435530
    107          1           0        5.432963   -3.149040   -1.971309
    108          1           0        3.304928   -1.148635   -3.764242
    109          1           0        4.977505   -1.487052   -3.365202
    110          1           0        3.735320    0.258716   -1.335357
    111          1           0        3.274694    0.856088   -2.826528
    112          1           0        4.969873    1.879766   -3.180904
    113          1           0        6.020034    0.431683   -3.227774
    114          1           0        5.429795    1.572591   -0.552356
    115          1           0        5.676302    3.878603   -0.767651
    116          1           0        5.454358    3.648007   -2.470071
    117          1           0        7.068978    3.756066   -1.739029
    118          1           0        8.279149    1.639440   -1.551268
    119          1           0        7.532241    0.151436   -1.829245
    120          1           0        6.821493    0.975447    0.928634
    121          1           0        8.430994    1.501784    0.632900
    122          1           0        8.117507   -1.315730   -0.289188
    123          1           0        7.535296   -1.094606    1.252263
    124          1           0        9.700422    0.329487    1.718782
    125          1           0        9.128580   -2.441129    2.335937
    126          1           0        9.062694   -1.027636    3.301694
    127          1           0       10.695629   -1.673766    2.816578
    128          1           0       10.363028   -1.203908   -0.758347
    129          1           0       11.083860   -1.959222    0.587725
    130          1           0       12.374011    0.070890    1.164357
    131          1           0       11.271778    1.103709    0.190726
    132          1           0       13.046195    1.084508   -1.163178
    133          1           0       12.149730   -0.167394   -1.743919
    134          1           0       13.846481   -1.378959    0.485709
    135          1           0       15.551615    0.367942   -1.268460
    136          1           0       16.105628   -0.893162   -0.316485
    137          1           0       15.130705    0.423297    0.434771
    138          1           0       13.730447   -3.074658   -1.058645
    139          1           0       15.014477   -2.241705   -1.987360
    140          1           0       13.393689   -1.926773   -2.390198
 ---------------------------------------------------------------------

 SCF Done:  E(RZINDO/S) =  -474.146101005     A.U. after   19 cycles

 Excitation energies and oscillator strengths:

 Excited State   1:      Singlet-A      1.2676 eV  978.11 nm  f=0.5812  <S**2>=0.000
     175 ->178         0.17999
     176 ->177         0.66650
 This state for optimization and/or second-order correction.
 Total Energy, E(CIS/TDA) =  -474.099517789
 Copying the excited state density for this state as the 1-particle RhoCI density.

 Excited State   2:      Singlet-A      1.8919 eV  655.34 nm  f=0.0143  <S**2>=0.000
     175 ->177         0.51638
     176 ->178        -0.45301

 Excited State   3:      Singlet-A      2.9368 eV  422.18 nm  f=1.0009  <S**2>=0.000
     170 ->177         0.11506
     175 ->177         0.39606
     176 ->178         0.48467
     176 ->180         0.20584

 Excited State   4:      Singlet-A      2.9852 eV  415.34 nm  f=0.0191  <S**2>=0.000
     170 ->177         0.11168
     170 ->179         0.11128
     170 ->181         0.11920
     171 ->177         0.28904
     171 ->178        -0.12060
     171 ->179         0.30481
     171 ->181         0.31607
     171 ->186         0.18192
     171 ->187         0.11594
     171 ->188         0.16314

 Excited State   5:      Singlet-A      2.9954 eV  413.92 nm  f=0.0071  <S**2>=0.000
     167 ->179        -0.12276
     168 ->177         0.25450
     168 ->178        -0.12980
     168 ->179        -0.32461
     168 ->181         0.22946
     168 ->186        -0.18757
     176 ->179        -0.32601
     176 ->181        -0.10034

 The electronic state is 1-A.
 Alpha  occ. eigenvalues --   -1.85185  -1.81140  -1.78169  -1.72880  -1.70528
 Alpha  occ. eigenvalues --   -1.69478  -1.65934  -1.61354  -1.60930  -1.58544
 Alpha  occ. eigenvalues --   -1.55624  -1.52007  -1.48146  -1.46748  -1.45910
 Alpha  occ. eigenvalues --   -1.45079  -1.42504  -1.40656  -1.39332  -1.38736
 Alpha  occ. eigenvalues --   -1.36345  -1.34562  -1.33645  -1.31502  -1.28367
 Alpha  occ. eigenvalues --   -1.28140  -1.27384  -1.22972  -1.18777  -1.18185
 Alpha  occ. eigenvalues --   -1.15790  -1.15757  -1.15443  -1.13718  -1.13105
 Alpha  occ. eigenvalues --   -1.12316  -1.11813  -1.10296  -1.05254  -1.04104
 Alpha  occ. eigenvalues --   -1.02437  -1.01072  -1.00298  -0.97814  -0.97134
 Alpha  occ. eigenvalues --   -0.96550  -0.94714  -0.93222  -0.92552  -0.91739
 Alpha  occ. eigenvalues --   -0.90608  -0.89855  -0.89426  -0.89077  -0.88176
 Alpha  occ. eigenvalues --   -0.86390  -0.83745  -0.83255  -0.82212  -0.80700
 Alpha  occ. eigenvalues --   -0.79928  -0.78563  -0.78077  -0.76990  -0.76862
 Alpha  occ. eigenvalues --   -0.76306  -0.75303  -0.74246  -0.74130  -0.73741
 Alpha  occ. eigenvalues --   -0.73322  -0.73027  -0.72758  -0.72162  -0.71681
 Alpha  occ. eigenvalues --   -0.70074  -0.69931  -0.69662  -0.68435  -0.67871
 Alpha  occ. eigenvalues --   -0.66925  -0.66618  -0.66458  -0.65841  -0.65399
 Alpha  occ. eigenvalues --   -0.65170  -0.65031  -0.64590  -0.64239  -0.63713
 Alpha  occ. eigenvalues --   -0.63119  -0.63011  -0.62682  -0.62477  -0.62192
 Alpha  occ. eigenvalues --   -0.62150  -0.61867  -0.60927  -0.60792  -0.60311
 Alpha  occ. eigenvalues --   -0.60192  -0.59377  -0.59199  -0.58660  -0.58470
 Alpha  occ. eigenvalues --   -0.57773  -0.57455  -0.57186  -0.57029  -0.56340
 Alpha  occ. eigenvalues --   -0.56047  -0.55496  -0.55393  -0.54985  -0.54792
 Alpha  occ. eigenvalues --   -0.54491  -0.54159  -0.53745  -0.53512  -0.53425
 Alpha  occ. eigenvalues --   -0.53066  -0.52814  -0.52478  -0.52245  -0.52032
 Alpha  occ. eigenvalues --   -0.51863  -0.51140  -0.50855  -0.50634  -0.50618
 Alpha  occ. eigenvalues --   -0.50366  -0.50055  -0.49525  -0.49363  -0.48954
 Alpha  occ. eigenvalues --   -0.48821  -0.48639  -0.48276  -0.47793  -0.47619
 Alpha  occ. eigenvalues --   -0.47452  -0.47370  -0.47134  -0.46876  -0.46719
 Alpha  occ. eigenvalues --   -0.46636  -0.46347  -0.46212  -0.46121  -0.45131
 Alpha  occ. eigenvalues --   -0.45116  -0.44848  -0.44708  -0.44473  -0.43781
 Alpha  occ. eigenvalues --   -0.43712  -0.43553  -0.42348  -0.41764  -0.41691
 Alpha  occ. eigenvalues --   -0.41552  -0.41283  -0.40947  -0.39075  -0.38973
 Alpha  occ. eigenvalues --   -0.38196  -0.37213  -0.36341  -0.35158  -0.33944
 Alpha  occ. eigenvalues --   -0.33827  -0.32924  -0.31679  -0.31139  -0.27300
 Alpha  occ. eigenvalues --   -0.22051
 Alpha virt. eigenvalues --   -0.08775  -0.02861  -0.01001   0.00738   0.01228
 Alpha virt. eigenvalues --    0.01975   0.02386   0.02827   0.03989   0.04049
 Alpha virt. eigenvalues --    0.05896   0.05920   0.06519   0.07319   0.07825

 Mulliken charges:
               1
     1  Mg   0.434251
     2  C   -0.035719
     3  C   -0.078628
     4  C   -0.115898
     5  C   -0.065128
     6  N   -0.251418
     7  C    0.086204
     8  C    0.000115
     9  C   -0.007498
    10  C    0.147120
    11  C   -0.045884
    12  C   -0.019234
    13  C    0.010395
    14  C    0.452581
    15  O   -0.503607
    16  O   -0.282045
    17  N   -0.332787
    18  C    0.117545
    19  C    0.060795
    20  C   -0.058560
    21  C    0.141614
    22  C   -0.036098
    23  C    0.343172
    24  O   -0.516385
    25  C   -0.023980
    26  N   -0.274230
    27  C    0.173806
    28  C   -0.001759
    29  C   -0.007463
    30  C    0.101794
    31  C   -0.056378
    32  C   -0.030300
    33  C   -0.057680
    34  N   -0.312599
    35  C    0.070033
    36  C    0.008914
    37  C   -0.059167
    38  C    0.092043
    39  C   -0.022753
    40  C    0.324929
    41  O   -0.536480
    42  C    0.057098
    43  C    0.496394
    44  O   -0.531318
    45  O   -0.264499
    46  C    0.077444
    47  C    0.094579
    48  C   -0.131302
    49  C    0.008737
    50  C   -0.041396
    51  C   -0.020991
    52  C   -0.038688
    53  C   -0.032237
    54  C   -0.001929
    55  C   -0.064724
    56  C   -0.035175
    57  C   -0.037752
    58  C   -0.033718
    59  C   -0.013506
    60  C   -0.063083
    61  C   -0.031016
    62  C   -0.028976
    63  C   -0.035277
    64  C   -0.006281
    65  C   -0.053315
    66  C   -0.058069
    67  H    0.040064
    68  H    0.026668
    69  H    0.025783
    70  H    0.032729
    71  H    0.030161
    72  H    0.022759
    73  H    0.024133
    74  H    0.024118
    75  H    0.027669
    76  H    0.032315
    77  H    0.044032
    78  H    0.047809
    79  H    0.040937
    80  H    0.020208
    81  H    0.040863
    82  H    0.037178
    83  H    0.037435
    84  H    0.034261
    85  H    0.036855
    86  H    0.025921
    87  H    0.013827
    88  H    0.033810
    89  H    0.028990
    90  H    0.020397
    91  H    0.023150
    92  H    0.015026
    93  H    0.014695
    94  H    0.027169
    95  H    0.040433
    96  H    0.021291
    97  H    0.036867
    98  H    0.061417
    99  H    0.041817
   100  H    0.032099
   101  H    0.053726
   102  H    0.066007
   103  H    0.048782
   104  H    0.045018
   105  H    0.028871
   106  H    0.034437
   107  H    0.028700
   108  H    0.019463
   109  H    0.016901
   110  H    0.018881
   111  H    0.013258
   112  H    0.012184
   113  H    0.028602
   114  H    0.025228
   115  H    0.014498
   116  H    0.021540
   117  H    0.019750
   118  H    0.016131
   119  H    0.022758
   120  H    0.022070
   121  H    0.016021
   122  H    0.022645
   123  H    0.002043
   124  H    0.019818
   125  H    0.014209
   126  H    0.014936
   127  H    0.023920
   128  H    0.019085
   129  H    0.017794
   130  H    0.019295
   131  H    0.015291
   132  H    0.018530
   133  H    0.012832
   134  H    0.026513
   135  H    0.014788
   136  H    0.013174
   137  H    0.009630
   138  H    0.020343
   139  H    0.019403
   140  H    0.015402
 Sum of Mulliken charges =  -0.00000

 Dipole moment (field-independent basis, Debye):
    X=              1.8449    Y=              9.7028    Z=              1.6393  Tot=             10.0117
 N-N= 4.448633995466D+03 E-N= 0.000000000000D+00  KE=-9.570912536954D+03
 Leave Link  601 at Fri Apr 29 02:46:20 2022, MaxMem=  6710886400 cpu:               2.8 elap:               0.1
 (Enter /sw/apps/gaussian-16.0/g16/l9999.exe)
 1\1\GINC-BP1-COMPUTE163\SP\RZINDO CIS\STO-3G\C55H74Mg1N4O6\OF15641\29-
 Apr-2022\0\\#p ZINDO=(nstates=5)\\step_1801_chromophore_26 ZINDO\\0,1\
 Mg,0,-9.567,18.347,42.116\C,0,-6.208,17.589,42.276\C,0,-8.731,21.671,4
 1.453\C,0,-12.806,18.861,41.21\C,0,-10.164,14.795,42.394\N,0,-7.727,19
 .48,41.745\C,0,-6.495,18.97,42.019\C,0,-5.445,19.991,41.732\C,0,-6.203
 ,21.355,41.817\C,0,-7.706,20.793,41.771\C,0,-6.003,22.349,42.968\C,0,-
 4.609,19.895,40.301\C,0,-5.34,19.282,39.183\C,0,-5.074,19.787,37.69\O,

 Normal termination of Gaussian 16 at Fri Apr 29 02:46:20 2022.
